Title
81333
    1CHL1    C3    1   5.975   5.857  10.237 -0.2276  0.8574  0.9838
    1CHL1    H3    2   5.993   5.752  10.208  0.2763  0.9184  1.0681
    1CHL1    O3    3   5.896   5.864  10.359 -0.2891  0.0492 -0.3843
    1CHL1   H3'    4   5.909   5.954  10.390  1.5255  0.8140 -3.0156
    1CHL1    C4    5   6.113   5.934  10.264  0.0791  0.0593  0.6072
    1CHL1   H4A    6   6.082   6.029  10.311 -2.7609 -0.8688  0.8196
    1CHL1   H4B    7   6.163   5.878  10.346  3.3329  1.5683 -0.2039
    1CHL1    C5    8   6.198   5.959  10.134  0.2092 -0.0341 -0.6565
    1CHL1    C6    9   6.326   5.922  10.123 -0.5590 -0.4708  0.2905
    1CHL1    H6   10   6.372   5.884  10.216  0.3579  1.0944  0.5069
    1CHL1    C7   11   6.410   5.936   9.999  0.3479 -0.0529 -0.4511
    1CHL1   H7A   12   6.507   5.988  10.015 -0.1887  0.8549 -0.0463
    1CHL1   H7B   13   6.429   5.834   9.959  1.9650  0.3365 -0.7537
    1CHL1    C8   14   6.346   6.019   9.881  0.6582  0.6124  0.2218
    1CHL1    H8   15   6.353   6.128   9.900 -1.5733  0.6819  0.8392
    1CHL1   C14   16   6.415   5.989   9.743 -0.1239  0.3254 -0.4492
    1CHL1   H14   17   6.401   5.880   9.726  0.6285  0.0933  0.3656
    1CHL1   C15   18   6.562   6.012   9.721 -0.7316 -0.2627 -0.2541
    1CHL1  H15A   19   6.594   6.110   9.765 -1.0929 -0.2401 -0.0366
    1CHL1  H15B   20   6.622   5.927   9.760  0.6127 -0.5916 -2.8186
    1CHL1   C16   21   6.576   6.008   9.571  0.8372 -0.1225 -0.8966
    1CHL1  H16A   22   6.638   6.097   9.547 -0.2188  1.7599  2.6115
    1CHL1  H16B   23   6.634   5.921   9.535 -0.4985 -0.9724 -1.0445
    1CHL1   C17   24   6.432   6.016   9.511  0.1971 -0.6121 -0.6879
    1CHL1   H17   25   6.391   5.913   9.504  0.6157 -1.0955  2.5050
    1CHL1   C13   26   6.344   6.065   9.626 -0.1671  0.1128 -0.1112
    1CHL1   C18   27   6.368   6.217   9.640 -0.0785 -0.1812 -0.8962
    1CHL1  H18A   28   6.299   6.237   9.725 -0.8688 -3.5539 -0.5875
    1CHL1  H18B   29   6.465   6.252   9.681  0.8288 -1.4347 -1.8707
    1CHL1  H18C   30   6.337   6.280   9.554 -0.4170 -0.1167 -0.7314
    1CHL1   C12   31   6.199   6.014   9.623 -0.6030 -0.3711  0.5117
    1CHL1  H12A   32   6.151   6.064   9.537 -1.5391 -0.5268  0.9363
    1CHL1  H12B   33   6.196   5.906   9.595  1.7942 -0.5695  0.7335
    1CHL1   C11   34   6.123   6.035   9.746  0.2317  0.8763 -0.4283
    1CHL1  H11A   35   6.116   6.144   9.765 -0.0494  0.6877  0.6078
    1CHL1  H11B   36   6.024   5.986   9.739  1.6104 -2.5961  1.6944
    1CHL1    C9   37   6.193   5.976   9.876 -0.2983  0.5065 -0.0880
    1CHL1    H9   38   6.200   5.866   9.875 -0.9659  0.4564 -1.3621
    1CHL1   C10   39   6.118   6.009  10.011 -0.5325  0.2485 -0.0723
    1CHL1   C19   40   6.107   6.159  10.037  0.0218 -0.4017  0.5762
    1CHL1  H19A   41   6.203   6.215  10.028  0.4643 -1.2707 -0.3686
    1CHL1  H19B   42   6.046   6.207   9.957 -0.1992 -0.9490  0.4117
    1CHL1  H19C   43   6.051   6.175  10.132 -2.0758 -0.7615 -0.5336
    1CHL1    C1   44   5.976   5.949  10.003 -0.3038  0.2285  0.1817
    1CHL1   H1A   45   5.916   5.990   9.918  0.0523 -2.5572 -1.5421
    1CHL1   H1B   46   5.993   5.846   9.965  2.2605  0.6161  0.1664
    1CHL1    C2   47   5.904   5.936  10.131 -0.1867  0.4736 -0.0270
    1CHL1   H2A   48   5.807   5.884  10.115 -0.8160  0.6428  2.7396
    1CHL1   H2B   49   5.886   6.033  10.180  0.1878  0.2913  0.4805
    1CHL1   C20   50   6.417   6.106   9.379  0.2285 -0.2417  0.5069
    1CHL1   H20   51   6.314   6.148   9.369  0.4952 -0.0559 -2.2699
    1CHL1   C21   52   6.426   6.010   9.271  0.7309 -0.0559  0.8022
    1CHL1  H21A   53   6.331   5.952   9.272 -1.2054  2.6950 -2.2140
    1CHL1  H21B   54   6.520   5.952   9.264  1.0723  0.3457  1.8917
    1CHL1  H21C   55   6.420   6.067   9.176  0.7687  1.9563  1.9486
    1CHL1   C22   56   6.515   6.226   9.356 -0.3530  0.3432  0.4393
    1CHL1  H22A   57   6.547   6.268   9.454 -0.9504  0.8497  0.4243
    1CHL1  H22B   58   6.595   6.192   9.287  0.1319  1.1077  0.6107
    1CHL1   C23   59   6.457   6.338   9.272  0.0913 -0.5117  0.4344
    1CHL1  H23A   60   6.408   6.308   9.177 -2.1580  0.9660  1.0470
    1CHL1  H23B   61   6.377   6.378   9.338  1.5807  1.2116  1.3034
    1CHL1   C24   62   6.565   6.439   9.234  0.2318  0.1777  0.0474
    1CHL1  H24A   63   6.625   6.488   9.314 -0.9866  2.1541 -0.1533
    1CHL1  H24B   64   6.633   6.398   9.157 -0.7072  0.7780 -1.1309
    1CHL1   C25   65   6.504   6.565   9.147  0.0587 -0.5450 -0.3404
    1CHL1   H25   66   6.426   6.609   9.212 -1.4121 -1.3599 -1.5092
    1CHL1   C26   67   6.616   6.674   9.128 -0.1573 -0.2569 -0.2712
    1CHL1  H26A   68   6.568   6.769   9.095  0.8468 -0.3941 -2.2979
    1CHL1  H26B   69   6.642   6.690   9.235 -3.7313  0.3736  0.6369
    1CHL1  H26C   70   6.692   6.644   9.052 -1.7138 -2.8580 -0.8946
    1CHL1   C27   71   6.459   6.519   9.007  0.0833  0.3392 -0.1792
    1CHL1  H27A   72   6.537   6.457   8.958  0.5368  0.2507  0.6334
    1CHL1  H27B   73   6.371   6.454   9.026  0.1884  0.8429  2.3653
    1CHL1  H27C   74   6.424   6.606   8.947  0.2468  1.4670  1.3127
    2CHL1    C3   75   6.426   4.586  10.120 -0.2256  0.2443 -0.4565
    2CHL1    H3   76   6.341   4.657  10.110 -1.5615 -1.1235  0.7354
    2CHL1    O3   77   6.404   4.519  10.247  0.0988  0.2613  0.1512
    2CHL1   H3'   78   6.384   4.589  10.310  2.0532  1.2517 -0.2227
    2CHL1    C4   79   6.436   4.491   9.997  0.2711 -0.4199 -0.0725
    2CHL1   H4A   80   6.514   4.416  10.019 -0.6815 -1.3978  0.0511
    2CHL1   H4B   81   6.336   4.442  10.001 -0.2050  0.3821 -1.3254
    2CHL1    C5   82   6.452   4.565   9.869 -0.7349  0.5602  0.1321
    2CHL1    C6   83   6.374   4.544   9.766 -0.9906 -0.0579  0.0734
    2CHL1    H6   84   6.296   4.467   9.773 -1.5354  0.1950 -2.3261
    2CHL1    C7   85   6.368   4.622   9.644 -0.0834 -0.1510  0.3248
    2CHL1   H7A   86   6.342   4.560   9.556  0.0888  1.9069 -1.2693
    2CHL1   H7B   87   6.289   4.701   9.640 -0.2395 -0.3519 -1.3938
    2CHL1    C8   88   6.506   4.686   9.614  0.5231  0.1687  0.0367
    2CHL1    H8   89   6.577   4.606   9.584  2.2450  0.5414  2.7607
    2CHL1   C14   90   6.497   4.789   9.503 -0.2455 -0.4037 -0.2487
    2CHL1   H14   91   6.449   4.880   9.546  2.3191  0.1944  1.6346
    2CHL1   C15   92   6.428   4.763   9.368 -0.3764 -0.0978 -0.8184
    2CHL1  H15A   93   6.461   4.668   9.320  0.8513  0.5715 -1.3643
    2CHL1  H15B   94   6.318   4.776   9.363 -0.4575  0.1648  1.1534
    2CHL1   C16   95   6.490   4.870   9.267 -0.4612 -0.5241  0.5449
    2CHL1  H16A   96   6.523   4.821   9.173  0.0649  0.2052  0.3466
    2CHL1  H16B   97   6.411   4.945   9.245 -0.1159  0.4712  2.4943
    2CHL1   C17   98   6.604   4.930   9.349  0.3809 -0.6940 -0.1951
    2CHL1   H17   99   6.561   5.019   9.400 -0.9271 -1.5008  0.1532
    2CHL1   C13  100   6.632   4.837   9.468  0.2151 -0.4248  0.0621
    2CHL1   C18  101   6.721   4.727   9.394 -0.0575 -0.3113  0.2461
    2CHL1  H18A  102   6.722   4.641   9.464 -2.1678  0.2375  1.0469
    2CHL1  H18B  103   6.668   4.708   9.298  0.3424  2.1116 -0.5214
    2CHL1  H18C  104   6.826   4.761   9.381  0.2775 -1.4800 -0.1912
    2CHL1   C12  105   6.694   4.907   9.591  0.3547 -0.2829  0.3622
    2CHL1  H12A  106   6.794   4.950   9.565  1.5733 -1.6305  2.4494
    2CHL1  H12B  107   6.638   4.999   9.619  1.4193  0.9569 -1.3950
    2CHL1   C11  108   6.710   4.815   9.710 -0.2419 -0.9702  0.2700
    2CHL1  H11A  109   6.775   4.729   9.682 -0.0630 -0.4272 -1.0437
    2CHL1  H11B  110   6.765   4.867   9.791  2.1118  0.2766 -1.9685
    2CHL1    C9  111   6.567   4.753   9.739  0.5982 -0.1563 -0.0356
    2CHL1    H9  112   6.501   4.842   9.747 -0.5417 -0.9754 -0.0268
    2CHL1   C10  113   6.564   4.664   9.864 -0.4401  0.1091 -0.2466
    2CHL1   C19  114   6.698   4.584   9.863 -0.6131  0.2054  0.6422
    2CHL1  H19A  115   6.776   4.653   9.900 -0.2227 -1.5561  3.3787
    2CHL1  H19B  116   6.702   4.495   9.929  2.5976 -0.9880 -0.9440
    2CHL1  H19C  117   6.722   4.541   9.763  2.2381 -1.3721  1.8997
    2CHL1    C1  118   6.571   4.749   9.991 -0.6661 -0.4451 -0.5471
    2CHL1   H1A  119   6.668   4.802   9.999 -0.2035 -1.4128  0.6807
    2CHL1   H1B  120   6.500   4.834   9.987 -1.7140 -1.3448 -2.0450
    2CHL1    C2  121   6.547   4.677  10.124  0.1332  0.1694  0.3169
    2CHL1   H2A  122   6.541   4.756  10.203 -1.1742  0.6095 -0.1919
    2CHL1   H2B  123   6.635   4.611  10.138 -1.3209 -1.5793  1.8128
    2CHL1   C20  124   6.723   4.995   9.271  1.2139 -0.0755 -0.3164
    2CHL1   H20  125   6.812   4.932   9.291  0.7190 -1.2321 -1.5809
    2CHL1   C21  126   6.765   5.133   9.326 -0.7553 -0.2026 -0.1519
    2CHL1  H21A  127   6.867   5.154   9.288 -0.8455  2.0309  0.6930
    2CHL1  H21B  128   6.773   5.133   9.437  2.6552  0.1582 -0.3005
    2CHL1  H21C  129   6.701   5.210   9.278 -1.7958 -1.6154 -1.1160
    2CHL1   C22  130   6.720   4.992   9.116  0.0444  0.1366  0.1908
    2CHL1  H22A  131   6.723   4.884   9.090  1.5851 -0.1651  1.4624
    2CHL1  H22B  132   6.632   5.042   9.071 -0.8007  0.0433  1.6895
    2CHL1   C23  133   6.844   5.057   9.043  0.0603  0.0977 -0.2588
    2CHL1  H23A  134   6.828   5.162   9.073 -1.9204 -0.5581  1.2441
    2CHL1  H23B  135   6.940   5.024   9.088  0.3092  0.5576 -0.4548
    2CHL1   C24  136   6.816   5.037   8.898 -0.1945  0.0375  0.2688
    2CHL1  H24A  137   6.818   4.929   8.871  1.7829 -0.8468  3.3302
    2CHL1  H24B  138   6.714   5.068   8.869  0.1445  0.7956 -0.1329
    2CHL1   C25  139   6.910   5.111   8.803 -0.4323  0.3906 -0.6207
    2CHL1   H25  140   6.890   5.220   8.807  0.1525  0.4696  1.5057
    2CHL1   C26  141   7.061   5.094   8.838 -0.4017 -0.6591 -0.0968
    2CHL1  H26A  142   7.123   5.170   8.786 -0.5421  0.5129  1.3818
    2CHL1  H26B  143   7.091   5.104   8.944  1.8248 -0.1895 -0.7319
    2CHL1  H26C  144   7.107   4.999   8.803  0.9055 -0.1398  0.1671
    2CHL1   C27  145   6.887   5.055   8.663  0.0750 -0.6280  0.0119
    2CHL1  H27A  146   6.778   5.066   8.644  0.0423  1.3719  1.1383
    2CHL1  H27B  147   6.944   5.114   8.588 -2.0847 -1.3606 -2.3495
    2CHL1  H27C  148   6.915   4.948   8.652 -1.8052 -0.9385 -2.6671
    3CHL1    C3  149   0.860   4.027  10.328 -0.1531 -0.2163 -0.0204
    3CHL1    H3  150   0.773   3.962  10.306  2.4231 -3.9387 -0.1092
    3CHL1    O3  151   0.861   4.065  10.465 -0.2396  0.6143  0.2072
    3CHL1   H3'  152   0.949   4.099  10.484 -1.0707  1.0200  4.1329
    3CHL1    C4  153   0.984   3.946  10.289 -0.1264  0.2347 -0.4019
    3CHL1   H4A  154   1.069   4.014  10.313 -0.4169 -0.2499  2.4028
    3CHL1   H4B  155   0.992   3.852  10.348 -1.6343  0.5796  0.4088
    3CHL1    C5  156   0.987   3.921  10.140 -0.2425 -0.3593 -0.3571
    3CHL1    C6  157   0.988   3.798  10.082 -0.2376  0.2275  0.2297
    3CHL1    H6  158   0.993   3.709  10.146  0.9610  0.7090  0.8444
    3CHL1    C7  159   0.986   3.769   9.932  0.7581 -0.1639  0.5803
    3CHL1   H7A  160   1.047   3.681   9.906  0.8208  0.6370 -2.3529
    3CHL1   H7B  161   0.882   3.746   9.898  1.4077  0.9241 -2.4599
    3CHL1    C8  162   1.038   3.892   9.850  0.3707  0.0356  0.1716
    3CHL1    H8  163   1.148   3.907   9.857  0.5412  0.1244 -2.1849
    3CHL1   C14  164   1.004   3.877   9.704 -0.9420 -0.5032  0.3135
    3CHL1   H14  165   0.894   3.875   9.691 -0.9040  0.4706 -0.2619
    3CHL1   C15  166   1.052   3.750   9.622  0.0024 -0.1498 -0.1801
    3CHL1  H15A  167   1.157   3.728   9.649  0.4985 -0.4883 -2.2120
    3CHL1  H15B  168   0.996   3.654   9.631 -0.5647  0.1873 -0.0251
    3CHL1   C16  169   1.060   3.804   9.476 -0.3485  0.8488 -0.0566
    3CHL1  H16A  170   1.165   3.805   9.439 -0.0402  1.5587  0.8055
    3CHL1  H16B  171   1.000   3.733   9.415  1.0308 -0.7833  0.4292
    3CHL1   C17  172   0.996   3.949   9.486  0.1926  0.0389  0.4401
    3CHL1   H17  173   0.886   3.931   9.491  0.3932 -1.1697  0.7784
    3CHL1   C13  174   1.023   4.001   9.622 -0.4008  0.4002  0.1985
    3CHL1   C18  175   1.170   4.048   9.613 -0.1616 -0.3110 -0.2260
    3CHL1  H18A  176   1.170   4.149   9.567  1.6622  0.0591  0.5237
    3CHL1  H18B  177   1.227   4.050   9.708 -0.0660 -4.1493 -0.0332
    3CHL1  H18C  178   1.222   3.970   9.554  1.3167  1.1066 -0.8853
    3CHL1   C12  179   0.932   4.113   9.662 -0.2256 -0.1422 -0.8627
    3CHL1  H12A  180   0.936   4.204   9.600 -0.1436  0.3416 -0.1619
    3CHL1  H12B  181   0.826   4.079   9.651 -0.9194  1.6117  0.0957
    3CHL1   C11  182   0.969   4.147   9.807 -0.1526  0.7030  0.1827
    3CHL1  H11A  183   1.070   4.193   9.810 -0.2054  0.7756  1.5363
    3CHL1  H11B  184   0.892   4.216   9.848 -0.1083  0.1517  1.2030
    3CHL1    C9  185   0.961   4.015   9.898 -0.0503 -0.8489 -0.0256
    3CHL1    H9  186   0.854   3.984   9.893 -0.5208  0.7078 -0.0653
    3CHL1   C10  187   0.982   4.044  10.055  0.5331 -0.4677  0.4761
    3CHL1   C19  188   1.119   4.118  10.067  0.2072 -0.0025  0.3011
    3CHL1  H19A  189   1.109   4.220  10.024  0.1792 -0.4567 -0.8001
    3CHL1  H19B  190   1.157   4.135  10.170 -1.5215  2.6392  0.6062
    3CHL1  H19C  191   1.197   4.066  10.008  0.1385  2.5379 -2.2718
    3CHL1    C1  192   0.859   4.132  10.107  0.3387 -0.7124  0.0898
    3CHL1   H1A  193   0.885   4.231  10.063  0.4026 -0.6772  0.2074
    3CHL1   H1B  194   0.761   4.098  10.065  0.2722 -0.6953  0.2312
    3CHL1    C2  195   0.847   4.159  10.257 -0.5927 -0.2361  0.5876
    3CHL1   H2A  196   0.753   4.214  10.281 -0.0174  1.4360 -0.7948
    3CHL1   H2B  197   0.928   4.231  10.280 -0.7522 -0.0776  0.6608
    3CHL1   C20  198   1.008   4.048   9.367  0.5853  0.8734  0.0136
    3CHL1   H20  199   1.019   4.151   9.408  1.7711  0.2947  1.2052
    3CHL1   C21  200   0.881   4.042   9.278  0.4260 -0.3589  0.3859
    3CHL1  H21A  201   0.784   4.071   9.323  1.3427  3.1822  0.3737
    3CHL1  H21B  202   0.868   3.942   9.231 -0.5625 -0.0663  0.0197
    3CHL1  H21C  203   0.888   4.106   9.187 -1.2833  1.3203  1.3605
    3CHL1   C22  204   1.126   4.021   9.275  0.3667  0.3902  0.7253
    3CHL1  H22A  205   1.215   4.004   9.339  0.5549  3.3472  1.3917
    3CHL1  H22B  206   1.106   3.928   9.217  0.5115  0.6280  0.2851
    3CHL1   C23  207   1.173   4.126   9.175  0.2877  0.0367  0.0573
    3CHL1  H23A  208   1.092   4.137   9.100  1.0278  0.3070 -0.7236
    3CHL1  H23B  209   1.200   4.220   9.227 -0.4090  0.4918 -0.3931
    3CHL1   C24  210   1.294   4.074   9.102  0.0581  0.5095  0.5093
    3CHL1  H24A  211   1.379   4.075   9.173  0.2598  2.7805  0.3022
    3CHL1  H24B  212   1.272   3.968   9.078 -2.0730  1.3496 -1.7509
    3CHL1   C25  213   1.333   4.140   8.972  0.9402  0.9041 -0.2071
    3CHL1   H25  214   1.426   4.089   8.939 -1.5825 -3.1159 -1.8822
    3CHL1   C26  215   1.232   4.103   8.867  0.2572 -0.0845  0.5380
    3CHL1  H26A  216   1.282   4.141   8.775  2.0895 -0.6038  1.2807
    3CHL1  H26B  217   1.223   3.993   8.871  4.3105 -0.7092 -2.1615
    3CHL1  H26C  218   1.142   4.164   8.891  1.3252  2.1510 -0.7589
    3CHL1   C27  219   1.357   4.288   8.994  0.2479 -0.0959  0.4932
    3CHL1  H27A  220   1.270   4.347   9.028 -0.0254 -0.8072  1.0466
    3CHL1  H27B  221   1.447   4.301   9.058  1.3545  1.4029 -1.2482
    3CHL1  H27C  222   1.375   4.327   8.891 -0.6619 -2.7264 -0.7705
    4CHL1    C3  223   5.427   5.425  10.361  0.1088 -0.3864 -0.2797
    4CHL1    H3  224   5.485   5.339  10.322 -3.9304 -4.1271  1.0869
    4CHL1    O3  225   5.423   5.400  10.496  0.5517 -0.0981  0.0845
    4CHL1   H3'  226   5.374   5.472  10.537  2.6866  2.1967 -1.0428
    4CHL1    C4  227   5.500   5.559  10.320  0.0524  0.0010  0.2647
    4CHL1   H4A  228   5.449   5.645  10.368  2.2011  1.3511  0.2854
    4CHL1   H4B  229   5.599   5.550  10.371 -0.3733 -0.6627  0.9923
    4CHL1    C5  230   5.509   5.573  10.167  1.2543  0.3603 -0.4728
    4CHL1    C6  231   5.621   5.602  10.103 -0.5151 -0.4633 -0.0921
    4CHL1    H6  232   5.711   5.613  10.166 -0.1187 -0.0525 -0.7063
    4CHL1    C7  233   5.627   5.632   9.958  0.3824  0.5471 -0.3910
    4CHL1   H7A  234   5.691   5.721   9.943  0.0841  0.8911  0.3107
    4CHL1   H7B  235   5.687   5.552   9.910  0.2494  0.9550 -1.2567
    4CHL1    C8  236   5.495   5.643   9.890  0.5834 -0.1021  0.9102
    4CHL1    H8  237   5.456   5.746   9.906  1.0905  0.4332 -1.0214
    4CHL1   C14  238   5.505   5.610   9.743 -0.4214 -0.3782  0.5403
    4CHL1   H14  239   5.539   5.505   9.736 -1.3617 -0.6929  0.5314
    4CHL1   C15  240   5.604   5.699   9.659  0.0339  0.2147 -0.1513
    4CHL1  H15A  241   5.619   5.808   9.674 -0.5983  0.4265 -0.9711
    4CHL1  H15B  242   5.707   5.658   9.664  0.5462  1.1126 -2.2479
    4CHL1   C16  243   5.552   5.677   9.516  0.1995 -0.2883 -0.0829
    4CHL1  H16A  244   5.521   5.774   9.472  0.0631  0.8071  2.2717
    4CHL1  H16B  245   5.629   5.627   9.453  1.6405  0.2176  1.1910
    4CHL1   C17  246   5.428   5.581   9.527 -0.0765  0.5334 -0.0916
    4CHL1   H17  247   5.461   5.475   9.534  0.4524  0.6400 -0.7712
    4CHL1   C13  248   5.378   5.617   9.666 -0.3687 -0.7744  0.8487
    4CHL1   C18  249   5.315   5.756   9.654  0.4206  0.3552 -0.2119
    4CHL1  H18A  250   5.315   5.802   9.754 -2.3974  2.2887 -0.9760
    4CHL1  H18B  251   5.359   5.819   9.574 -0.3957 -0.3000 -1.2068
    4CHL1  H18C  252   5.211   5.736   9.618  0.1924  1.5890 -0.2861
    4CHL1   C12  253   5.272   5.523   9.725  0.3375  0.0632 -0.2035
    4CHL1  H12A  254   5.175   5.540   9.674  0.7072  0.8586 -0.6687
    4CHL1  H12B  255   5.294   5.415   9.720 -0.1638 -0.0290 -0.4967
    4CHL1   C11  256   5.250   5.550   9.878  0.2544  0.3056  0.8529
    4CHL1  H11A  257   5.205   5.651   9.886 -0.9801 -0.2775  1.6083
    4CHL1  H11B  258   5.182   5.470   9.915 -0.1240  1.0294  1.7659
    4CHL1    C9  259   5.386   5.545   9.952  0.3324  0.0869  0.9325
    4CHL1    H9  260   5.421   5.441   9.942  1.7395  0.5195  1.1232
    4CHL1   C10  261   5.375   5.561  10.100  0.1776 -0.2384 -0.3768
    4CHL1   C19  262   5.291   5.687  10.130 -0.2414 -0.0126  0.0012
    4CHL1  H19A  263   5.330   5.775  10.074  0.7305  0.1064  0.8515
    4CHL1  H19B  264   5.182   5.680  10.109 -0.6995  1.6482  1.4987
    4CHL1  H19C  265   5.299   5.717  10.236  1.5223 -0.2596 -0.0378
    4CHL1    C1  266   5.292   5.442  10.153 -0.1576 -0.4335  0.0913
    4CHL1   H1A  267   5.183   5.448  10.132 -0.9621 -3.0908  2.8161
    4CHL1   H1B  268   5.340   5.356  10.101 -1.1588  0.6038 -2.7380
    4CHL1    C2  269   5.291   5.418  10.308  0.2479 -0.0552 -0.1042
    4CHL1   H2A  270   5.246   5.319  10.328 -0.0669  0.1944  0.4258
    4CHL1   H2B  271   5.218   5.489  10.351  0.4720  0.0821  0.0535
    4CHL1   C20  272   5.333   5.587   9.404  0.2242  0.6804 -0.0317
    4CHL1   H20  273   5.310   5.694   9.387 -1.8727  0.6831  2.1753
    4CHL1   C21  274   5.210   5.492   9.427  0.8345 -0.2952 -0.3712
    4CHL1  H21A  275   5.121   5.534   9.480  0.9358 -1.4332  0.7450
    4CHL1  H21B  276   5.243   5.397   9.474  2.1443 -0.2621 -1.1766
    4CHL1  H21C  277   5.169   5.473   9.325 -1.5069 -0.7720  0.5832
    4CHL1   C22  278   5.404   5.530   9.277  0.1220  0.6154  0.5597
    4CHL1  H22A  279   5.512   5.553   9.291  0.7868 -2.8455  2.2476
    4CHL1  H22B  280   5.390   5.420   9.265 -0.2270  0.9463 -3.2434
    4CHL1   C23  281   5.346   5.586   9.151  0.1910 -1.1344 -0.3710
    4CHL1  H23A  282   5.238   5.560   9.150 -0.2765  0.3339  1.9307
    4CHL1  H23B  283   5.349   5.697   9.160 -1.5814 -1.2054  2.3982
    4CHL1   C24  284   5.424   5.548   9.020  0.0843  0.2646 -0.5775
    4CHL1  H24A  285   5.425   5.627   8.942  2.2327 -0.6736 -1.6026
    4CHL1  H24B  286   5.531   5.530   9.048  0.6022  2.4013 -0.9678
    4CHL1   C25  287   5.378   5.416   8.961 -0.2788  0.1205 -0.2569
    4CHL1   H25  288   5.394   5.335   9.036  0.1388  0.5777  0.1500
    4CHL1   C26  289   5.229   5.404   8.920 -0.4664  0.1725 -0.0357
    4CHL1  H26A  290   5.199   5.486   8.852  0.6267 -0.2133 -1.0145
    4CHL1  H26B  291   5.222   5.305   8.870  1.7588 -0.4763  0.8395
    4CHL1  H26C  292   5.169   5.405   9.014  0.7464 -2.0682  0.8331
    4CHL1   C27  293   5.471   5.370   8.846  0.4138  0.2063 -0.2508
    4CHL1  H27A  294   5.569   5.350   8.895 -0.1765 -0.9554  0.5130
    4CHL1  H27B  295   5.449   5.264   8.823  1.6688  0.2527 -1.7873
    4CHL1  H27C  296   5.474   5.438   8.759  1.7728 -2.0198 -2.0469
    5CHL1    C3  297   0.754   3.307  10.171  0.7570  0.5590  0.4548
    5CHL1    H3  298   0.818   3.235  10.227 -2.3470 -1.7458  1.3137
    5CHL1    O3  299   0.666   3.373  10.259  0.5991  0.1214  0.6339
    5CHL1   H3'  300   0.618   3.301  10.301  0.6496  0.7061  1.7523
    5CHL1    C4  301   0.846   3.410  10.106 -0.7990 -0.7291  0.0152
    5CHL1   H4A  302   0.791   3.506  10.097 -0.9394 -0.7856  0.2403
    5CHL1   H4B  303   0.931   3.431  10.175 -0.6041  0.6846 -0.6191
    5CHL1    C5  304   0.912   3.371   9.973  0.2143 -0.4069 -0.2216
    5CHL1    C6  305   1.041   3.392   9.954 -0.7902  0.0944 -0.1752
    5CHL1    H6  306   1.088   3.456  10.031 -1.7453  1.7777 -0.9250
    5CHL1    C7  307   1.125   3.374   9.830  0.3841  0.9708  0.2353
    5CHL1   H7A  308   1.171   3.472   9.808  1.3162  0.4309 -0.2871
    5CHL1   H7B  309   1.210   3.301   9.836  1.4533  2.2161  0.6433
    5CHL1    C8  310   1.034   3.326   9.717 -0.5190  0.2545 -0.5679
    5CHL1    H8  311   0.996   3.419   9.670  0.0154  0.0531 -1.4255
    5CHL1   C14  312   1.116   3.269   9.606  0.0949 -0.1716  0.1636
    5CHL1   H14  313   1.158   3.172   9.642 -1.0163 -0.6603  0.1816
    5CHL1   C15  314   1.236   3.349   9.566 -0.0252 -1.4124 -0.1505
    5CHL1  H15A  315   1.201   3.454   9.555  1.1617 -1.0668 -0.8125
    5CHL1  H15B  316   1.326   3.342   9.631  0.3931 -0.2232 -0.5603
    5CHL1   C16  317   1.265   3.310   9.421  0.1367 -0.3478 -0.6287
    5CHL1  H16A  318   1.259   3.395   9.349  1.3194 -1.4327 -2.0601
    5CHL1  H16B  319   1.364   3.261   9.424  1.0108  1.3502 -0.0502
    5CHL1   C17  320   1.158   3.205   9.384 -0.8958  0.7794  0.9515
    5CHL1   H17  321   1.203   3.108   9.414  1.4889  2.2063  2.3279
    5CHL1   C13  322   1.038   3.245   9.476  0.3286  0.4368  1.1376
    5CHL1   C18  323   0.969   3.372   9.416 -0.3175  0.2628  0.0828
    5CHL1  H18A  324   1.047   3.451   9.407  0.1755 -0.3536 -1.2722
    5CHL1  H18B  325   0.918   3.356   9.319  0.9515  2.1188 -0.9477
    5CHL1  H18C  326   0.903   3.422   9.490 -1.5325 -1.1561 -0.0155
    5CHL1   C12  327   0.930   3.134   9.502  0.3893 -0.1891 -0.3078
    5CHL1  H12A  328   0.858   3.144   9.418 -2.6182  0.9897  2.2213
    5CHL1  H12B  329   0.968   3.032   9.527 -1.5367 -0.6736  0.8513
    5CHL1   C11  330   0.840   3.185   9.622 -0.0647 -0.5667 -0.4391
    5CHL1  H11A  331   0.774   3.266   9.583  1.3040  0.6086 -0.3949
    5CHL1  H11B  332   0.780   3.100   9.662  0.8976 -0.7064  0.7754
    5CHL1    C9  333   0.918   3.230   9.754 -0.0376 -0.0075  0.2811
    5CHL1    H9  334   0.964   3.135   9.786 -2.4347 -1.6985 -0.9971
    5CHL1   C10  335   0.827   3.284   9.870 -0.7922 -0.4585  0.2378
    5CHL1   C19  336   0.733   3.386   9.800 -0.3035 -0.0322 -0.0160
    5CHL1  H19A  337   0.685   3.463   9.864 -0.2436  0.9687 -1.1417
    5CHL1  H19B  338   0.789   3.442   9.722 -0.8416 -0.0775 -0.4407
    5CHL1  H19C  339   0.650   3.336   9.745  1.2073 -1.2129 -1.3080
    5CHL1    C1  340   0.737   3.182   9.951 -0.3902  0.3926  0.3820
    5CHL1   H1A  341   0.664   3.136   9.881 -0.5130 -0.1047  0.8341
    5CHL1   H1B  342   0.808   3.103   9.984 -1.6461 -0.2880  1.5249
    5CHL1    C2  343   0.666   3.233  10.075 -0.4655 -0.2857 -0.1243
    5CHL1   H2A  344   0.623   3.149  10.133 -0.6961  0.2375  0.4775
    5CHL1   H2B  345   0.581   3.295  10.040 -1.1744 -1.4295 -0.4580
    5CHL1   C20  346   1.131   3.192   9.231  0.1413 -0.0105 -0.3891
    5CHL1   H20  347   1.075   3.285   9.207  0.5113  0.9377  2.1511
    5CHL1   C21  348   1.050   3.065   9.204 -0.4040 -0.1906 -1.1684
    5CHL1  H21A  349   1.115   2.979   9.228  0.6096  0.7963 -0.2424
    5CHL1  H21B  350   1.027   3.054   9.096  1.1999  0.9891 -1.6722
    5CHL1  H21C  351   0.953   3.062   9.257  0.4479  1.3515  0.5812
    5CHL1   C22  352   1.261   3.200   9.151  0.2773  0.5049 -0.7332
    5CHL1  H22A  353   1.298   3.304   9.159  0.8734  0.1520  1.7874
    5CHL1  H22B  354   1.339   3.142   9.204 -0.7304 -0.2100  0.0119
    5CHL1   C23  355   1.253   3.153   9.003 -0.3746 -0.3910  0.3379
    5CHL1  H23A  356   1.209   3.050   9.002 -3.2203  0.7147 -1.2085
    5CHL1  H23B  357   1.181   3.214   8.945 -0.7031  1.2869  2.4007
    5CHL1   C24  358   1.392   3.179   8.939  0.0630  0.2278  0.8184
    5CHL1  H24A  359   1.401   3.289   8.937 -1.1284  0.3532  1.2520
    5CHL1  H24B  360   1.452   3.148   9.027 -0.8157  0.4066  1.5031
    5CHL1   C25  361   1.412   3.109   8.805  0.3448 -0.5090  0.2670
    5CHL1   H25  362   1.408   2.999   8.818 -0.5427 -0.6198 -0.7983
    5CHL1   C26  363   1.313   3.162   8.698 -0.0440  0.3112  0.3280
    5CHL1  H26A  364   1.209   3.126   8.718  0.1848 -1.7072 -1.7090
    5CHL1  H26B  365   1.313   3.273   8.699  0.1783  0.3374  2.8846
    5CHL1  H26C  366   1.338   3.134   8.593  0.1908 -0.3807  0.5616
    5CHL1   C27  367   1.548   3.145   8.750  0.1460  0.3548  0.2424
    5CHL1  H27A  368   1.570   3.253   8.763  0.8880  0.2600 -0.1924
    5CHL1  H27B  369   1.627   3.088   8.804 -2.0944 -1.8847  1.3906
    5CHL1  H27C  370   1.560   3.119   8.643  0.5841  3.3519 -0.5310
    6CHL1    C3  371   5.481   2.526  10.448  0.0501 -0.2562  0.1544
    6CHL1    H3  372   5.425   2.431  10.440  2.7428 -1.8806 -0.5838
    6CHL1    O3  373   5.509   2.545  10.587  0.3880  0.1824  0.3521
    6CHL1   H3'  374   5.562   2.471  10.616  0.9290  0.0831 -0.8539
    6CHL1    C4  375   5.619   2.521  10.386  0.0961  0.0080 -0.4582
    6CHL1   H4A  376   5.675   2.613  10.413  3.3677 -1.4902 -1.5696
    6CHL1   H4B  377   5.683   2.444  10.435  1.0413  0.1897 -1.3595
    6CHL1    C5  378   5.613   2.501  10.236  0.7270  0.2577 -1.0128
    6CHL1    C6  379   5.668   2.398  10.171  0.6123  0.4739 -0.6592
    6CHL1    H6  380   5.715   2.316  10.228 -0.3546  0.9072  0.8410
    6CHL1    C7  381   5.664   2.385  10.020  0.8046 -0.3081 -0.4549
    6CHL1   H7A  382   5.760   2.356   9.972  1.3197  0.7749 -0.0925
    6CHL1   H7B  383   5.595   2.304   9.987  0.2696 -0.9104  1.9287
    6CHL1    C8  384   5.628   2.518   9.949 -0.7841 -0.0622  0.4789
    6CHL1    H8  385   5.710   2.593   9.953 -1.3551  0.5209  2.1392
    6CHL1   C14  386   5.594   2.493   9.800 -0.3602 -0.5435  0.2981
    6CHL1   H14  387   5.498   2.437   9.809 -0.2048 -0.4918  3.3482
    6CHL1   C15  388   5.687   2.400   9.716 -0.0545 -0.1392  0.1055
    6CHL1  H15A  389   5.794   2.424   9.736  0.1650 -2.0686  1.5023
    6CHL1  H15B  390   5.685   2.294   9.748 -1.3734  0.6587  2.8868
    6CHL1   C16  391   5.644   2.431   9.572 -0.1738 -0.4501  0.3784
    6CHL1  H16A  392   5.730   2.461   9.508 -2.3738  1.7434 -1.7949
    6CHL1  H16B  393   5.610   2.336   9.526 -0.9587 -1.2170  2.4300
    6CHL1   C17  394   5.538   2.543   9.579 -0.2485 -0.1986  0.8429
    6CHL1   H17  395   5.437   2.497   9.583  0.4819 -2.4102 -2.5423
    6CHL1   C13  396   5.561   2.616   9.712  0.2089 -0.0318  0.6214
    6CHL1   C18  397   5.685   2.707   9.708  0.4065 -0.7906  1.1454
    6CHL1  H18A  398   5.705   2.740   9.812 -2.1780  0.1671  1.4174
    6CHL1  H18B  399   5.765   2.648   9.659 -2.0140 -2.8787 -0.5523
    6CHL1  H18C  400   5.668   2.796   9.644  1.3299 -1.7617 -0.5056
    6CHL1   C12  401   5.453   2.687   9.778 -0.4222  0.3935  0.0006
    6CHL1  H12A  402   5.439   2.792   9.743 -1.8732  1.3232  2.9805
    6CHL1  H12B  403   5.359   2.630   9.768  1.2253 -2.0303 -3.0421
    6CHL1   C11  404   5.472   2.704   9.927 -0.2923 -0.5071  0.4538
    6CHL1  H11A  405   5.548   2.783   9.942  0.8804 -1.1289 -1.8310
    6CHL1  H11B  406   5.376   2.742   9.967 -0.4876 -1.4316  0.8875
    6CHL1    C9  407   5.513   2.586  10.016 -0.3415 -0.0929 -0.1382
    6CHL1    H9  408   5.429   2.514  10.013  0.0397 -0.6189  1.2210
    6CHL1   C10  409   5.534   2.619  10.167 -0.2248 -0.0782  0.1527
    6CHL1   C19  410   5.618   2.747  10.177  0.5014 -0.0196 -0.4771
    6CHL1  H19A  411   5.642   2.771  10.283  1.4728  1.6694 -1.0394
    6CHL1  H19B  412   5.714   2.736  10.122  0.2957 -0.7899 -0.7011
    6CHL1  H19C  413   5.565   2.836  10.137  1.0229 -0.1105 -1.4238
    6CHL1    C1  414   5.394   2.649  10.241  0.2383  0.0469  0.0175
    6CHL1   H1A  415   5.344   2.738  10.197  1.2836  0.7601  0.2115
    6CHL1   H1B  416   5.335   2.561  10.208  4.0528 -1.0949 -4.9305
    6CHL1    C2  417   5.400   2.650  10.393 -0.7254  0.0426  0.4476
    6CHL1   H2A  418   5.299   2.661  10.437 -1.2160 -0.9570 -0.4003
    6CHL1   H2B  419   5.458   2.741  10.420 -2.0446  0.7245  1.0615
    6CHL1   C20  420   5.540   2.631   9.455 -0.5626  0.1484  0.5204
    6CHL1   H20  421   5.626   2.699   9.442 -0.2548  0.0905  2.0901
    6CHL1   C21  422   5.424   2.732   9.468  0.0981  0.3484 -0.6854
    6CHL1  H21A  423   5.398   2.784   9.374 -1.4873 -0.8070 -0.9300
    6CHL1  H21B  424   5.458   2.800   9.548  1.3283 -1.2464  0.2189
    6CHL1  H21C  425   5.328   2.683   9.496 -0.8752  2.3123 -0.4093
    6CHL1   C22  426   5.517   2.572   9.315 -0.4029 -0.0250 -0.2244
    6CHL1  H22A  427   5.449   2.483   9.318 -1.7355  0.9873  0.9739
    6CHL1  H22B  428   5.455   2.644   9.257  1.4013  3.5374  1.9218
    6CHL1   C23  429   5.644   2.542   9.230 -0.2935  0.9096 -0.3475
    6CHL1  H23A  430   5.721   2.623   9.234 -0.0478  0.8947 -3.0354
    6CHL1  H23B  431   5.688   2.447   9.267 -1.5523  1.1908  2.1138
    6CHL1   C24  432   5.608   2.522   9.085  0.4642  0.3491  0.1149
    6CHL1  H24A  433   5.518   2.457   9.084 -0.7156  1.8980 -1.7834
    6CHL1  H24B  434   5.568   2.617   9.045 -1.2368 -0.2231  0.3911
    6CHL1   C25  435   5.721   2.452   9.006  0.1404  0.4431 -0.5043
    6CHL1   H25  436   5.743   2.357   9.060 -2.2325  0.6284  0.9357
    6CHL1   C26  437   5.685   2.425   8.867 -0.0529  0.7070  0.2252
    6CHL1  H26A  438   5.666   2.515   8.804 -1.6972  0.8245  0.8386
    6CHL1  H26B  439   5.754   2.357   8.814 -2.1323 -1.1056 -0.3129
    6CHL1  H26C  440   5.595   2.361   8.853 -0.2133  1.2076 -1.2988
    6CHL1   C27  441   5.846   2.534   9.010 -0.7278  0.0656  0.2053
    6CHL1  H27A  442   5.893   2.549   9.110 -0.0696 -0.3090 -0.0389
    6CHL1  H27B  443   5.920   2.475   8.952 -2.3373 -1.2615 -0.5909
    6CHL1  H27C  444   5.822   2.635   8.969 -1.1795  0.1575  0.6898
    7CHL1    C3  445   2.272   5.132  10.569  0.4124  0.1260 -0.5520
    7CHL1    H3  446   2.303   5.048  10.504 -2.3961 -1.4359 -0.0552
    7CHL1    O3  447   2.301   5.097  10.701 -0.6421 -0.1455  0.2350
    7CHL1   H3'  448   2.331   5.176  10.746 -0.2684 -0.4733  0.5738
    7CHL1    C4  449   2.333   5.270  10.531  0.1426  0.2773 -0.1202
    7CHL1   H4A  450   2.288   5.345  10.599  0.1513  1.0710 -0.9679
    7CHL1   H4B  451   2.442   5.266  10.554 -0.3116 -0.7315  2.0290
    7CHL1    C5  452   2.303   5.304  10.386 -0.0772  0.1081 -0.4502
    7CHL1    C6  453   2.398   5.318  10.293  0.2838 -0.0466  0.6240
    7CHL1    H6  454   2.505   5.318  10.319  0.5427  0.1223 -0.3899
    7CHL1    C7  455   2.385   5.349  10.149 -0.0509 -0.7132  0.7054
    7CHL1   H7A  456   2.461   5.428  10.128 -1.1072  0.2044  0.2024
    7CHL1   H7B  457   2.402   5.262  10.082  0.3463 -0.3447  0.3157
    7CHL1    C8  458   2.243   5.406  10.127 -0.0154  0.3362 -0.4645
    7CHL1    H8  459   2.245   5.506  10.176  0.4934  0.1763 -0.1610
    7CHL1   C14  460   2.212   5.413   9.979 -0.1941 -0.2506 -0.7108
    7CHL1   H14  461   2.214   5.306   9.951 -2.9941 -1.2744  2.3609
    7CHL1   C15  462   2.308   5.481   9.885 -0.4734 -0.6868  0.5052
    7CHL1  H15A  463   2.340   5.580   9.923 -0.5211  0.2957 -1.8171
    7CHL1  H15B  464   2.399   5.422   9.861  0.3729 -0.3456  2.6601
    7CHL1   C16  465   2.227   5.503   9.752  0.0249 -0.6118 -0.0578
    7CHL1  H16A  466   2.237   5.610   9.726  3.7904 -1.0140 -0.9585
    7CHL1  H16B  467   2.275   5.449   9.667  1.3793  1.8140 -0.9356
    7CHL1   C17  468   2.081   5.451   9.785 -0.0295  0.2215 -0.1609
    7CHL1   H17  469   2.083   5.344   9.755  1.8851  0.3843 -0.7498
    7CHL1   C13  470   2.074   5.454   9.938 -0.4468 -0.9566 -0.0331
    7CHL1   C18  471   2.041   5.599   9.986 -0.2251 -0.3202  0.7553
    7CHL1  H18A  472   2.130   5.656   9.951 -0.2856  0.6178  2.0729
    7CHL1  H18B  473   1.955   5.639   9.928  0.6504  0.2270 -0.1907
    7CHL1  H18C  474   2.026   5.617  10.095  0.4711  1.5542  0.5700
    7CHL1   C12  475   1.970   5.355   9.995  0.0924  0.4159  0.0317
    7CHL1  H12A  476   1.865   5.388   9.982 -1.0684 -2.9906 -0.1360
    7CHL1  H12B  477   1.979   5.261   9.935 -3.1082  0.7313 -1.1272
    7CHL1   C11  478   1.992   5.339  10.145 -0.2912 -0.1648  0.1661
    7CHL1  H11A  479   1.959   5.438  10.183  0.8129  0.0939  0.4890
    7CHL1  H11B  480   1.930   5.260  10.192  1.3872 -1.1173  0.8945
    7CHL1    C9  481   2.139   5.324  10.197  0.4730 -0.4039 -0.0111
    7CHL1    H9  482   2.155   5.221  10.157 -0.5491 -0.3676 -0.5592
    7CHL1   C10  483   2.156   5.304  10.353  0.6020  0.0524 -0.4802
    7CHL1   C19  484   2.097   5.430  10.415 -0.1331 -0.1514 -0.4861
    7CHL1  H19A  485   1.987   5.437  10.399 -0.4338  2.0434  1.8539
    7CHL1  H19B  486   2.102   5.421  10.526  0.8659 -0.9361 -0.5763
    7CHL1  H19C  487   2.144   5.525  10.383  0.0730  0.4322  1.4356
    7CHL1    C1  488   2.076   5.178  10.411 -0.0175  0.8694  0.0705
    7CHL1   H1A  489   1.965   5.189  10.405 -0.3066 -1.4738  0.1168
    7CHL1   H1B  490   2.107   5.098  10.341  0.4269  0.7806  0.3679
    7CHL1    C2  491   2.118   5.135  10.553 -0.0521 -0.1072  0.4052
    7CHL1   H2A  492   2.081   5.032  10.575 -1.3230  0.0010 -1.1015
    7CHL1   H2B  493   2.085   5.212  10.626  0.4321  0.8878 -0.4075
    7CHL1   C20  494   1.975   5.513   9.694  0.2371 -0.1832 -0.0364
    7CHL1   H20  495   1.979   5.624   9.703 -2.2230  0.0498 -1.0249
    7CHL1   C21  496   1.831   5.471   9.732  0.1192 -0.0723  0.0196
    7CHL1  H21A  497   1.754   5.502   9.658 -0.5507 -0.7676  0.4214
    7CHL1  H21B  498   1.813   5.528   9.825 -0.9480  2.2265 -1.4817
    7CHL1  H21C  499   1.825   5.361   9.748 -2.2721  0.0911  0.5214
    7CHL1   C22  500   1.998   5.482   9.538  0.0572  0.3865  0.5236
    7CHL1  H22A  501   2.081   5.541   9.495 -0.3418  0.3594 -0.3029
    7CHL1  H22B  502   2.002   5.371   9.536 -1.2859  0.3122 -1.7800
    7CHL1   C23  503   1.880   5.503   9.437 -0.1112  0.3396  0.2979
    7CHL1  H23A  504   1.812   5.415   9.438  1.1786 -0.7045  0.4032
    7CHL1  H23B  505   1.824   5.597   9.454  1.0763  1.6252 -2.3206
    7CHL1   C24  506   1.923   5.534   9.294  0.4760  0.6912  0.2334
    7CHL1  H24A  507   1.829   5.553   9.237 -1.1646  3.8976  3.5232
    7CHL1  H24B  508   1.976   5.632   9.287 -0.0064  0.8323 -2.8723
    7CHL1   C25  509   2.003   5.423   9.228  0.1415  0.2526 -0.0643
    7CHL1   H25  510   2.090   5.412   9.296 -0.2897 -1.2730  0.2640
    7CHL1   C26  511   1.925   5.293   9.218 -0.5956  0.0162  0.0602
    7CHL1  H26A  512   1.849   5.299   9.137  0.3968  0.7119 -0.8515
    7CHL1  H26B  513   1.984   5.205   9.185 -2.1073 -1.7630  1.8864
    7CHL1  H26C  514   1.874   5.265   9.313  0.8685  1.8270  1.4546
    7CHL1   C27  515   2.062   5.472   9.090 -0.3739 -0.2677 -1.1410
    7CHL1  H27A  516   1.980   5.493   9.018  0.4324 -0.1039 -2.0301
    7CHL1  H27B  517   2.118   5.566   9.110  0.5566 -1.4419  2.5473
    7CHL1  H27C  518   2.117   5.387   9.045  0.3033 -0.6009  0.2628
    8CHL1    C3  519   2.015   6.230  10.272  0.6537  0.7125 -0.6222
    8CHL1    H3  520   2.126   6.239  10.275  0.5359  3.0261 -1.1301
    8CHL1    O3  521   1.962   6.273  10.393 -0.1505  0.2668 -0.5520
    8CHL1   H3'  522   1.973   6.368  10.392  1.9012  0.0646 -0.9634
    8CHL1    C4  523   1.968   6.320  10.158 -0.4367 -0.0649 -0.1979
    8CHL1   H4A  524   1.858   6.329  10.150 -0.3937 -0.8499 -2.3226
    8CHL1   H4B  525   2.012   6.420  10.179  1.8409 -1.0955  0.2220
    8CHL1    C5  526   2.028   6.286  10.023  0.0417 -1.0200 -0.1152
    8CHL1    C6  527   2.103   6.371   9.953 -0.6463  0.1035  0.5458
    8CHL1    H6  528   2.129   6.469   9.995 -0.2193  0.9055 -1.5084
    8CHL1    C7  529   2.164   6.336   9.821 -0.0289  0.6137  0.3170
    8CHL1   H7A  530   2.141   6.423   9.755  1.4257  0.4279 -0.4758
    8CHL1   H7B  531   2.272   6.321   9.845 -0.2315  2.0929  2.3999
    8CHL1    C8  532   2.101   6.211   9.758 -0.4205 -0.5837  0.2719
    8CHL1    H8  533   2.000   6.237   9.720 -0.0272 -0.9883 -1.0973
    8CHL1   C14  534   2.189   6.165   9.646  0.0549  0.3993 -0.5845
    8CHL1   H14  535   2.286   6.130   9.687 -0.9107 -0.7574  0.7996
    8CHL1   C15  536   2.235   6.265   9.540  0.0174  0.3234 -0.2694
    8CHL1  H15A  537   2.146   6.326   9.513  1.0648  1.5799 -1.0474
    8CHL1  H15B  538   2.313   6.330   9.585 -3.0934  2.0581  3.1150
    8CHL1   C16  539   2.284   6.174   9.426  0.0073 -0.0767 -0.2073
    8CHL1  H16A  540   2.231   6.206   9.334  1.2965 -0.7221 -1.2149
    8CHL1  H16B  541   2.392   6.196   9.410  0.1365 -2.0000 -2.4442
    8CHL1   C17  542   2.244   6.027   9.452 -0.4979 -0.0104  0.2345
    8CHL1   H17  543   2.331   5.979   9.502 -0.6451  2.0565  2.7134
    8CHL1   C13  544   2.143   6.040   9.567  0.4140 -0.3840  0.2014
    8CHL1   C18  545   1.994   6.057   9.494  0.4781  0.7340 -0.6199
    8CHL1  H18A  546   1.998   6.127   9.408 -1.7465  0.1103 -1.2949
    8CHL1  H18B  547   1.966   5.955   9.460  0.3585 -0.2198  2.0759
    8CHL1  H18C  548   1.924   6.090   9.574  0.4104 -0.4119 -0.1832
    8CHL1   C12  549   2.139   5.926   9.669 -0.1249 -0.1520 -0.0546
    8CHL1  H12A  550   2.106   5.834   9.616  2.0494 -1.1414  0.2231
    8CHL1  H12B  551   2.245   5.912   9.697  1.0720  1.1046 -3.4630
    8CHL1   C11  552   2.051   5.958   9.788 -0.6054  0.1591 -0.6070
    8CHL1  H11A  553   1.943   5.959   9.759 -1.0760 -1.0371  0.9671
    8CHL1  H11B  554   2.063   5.883   9.869  1.7973  1.0857 -0.0316
    8CHL1    C9  555   2.085   6.101   9.860 -0.5371 -0.1433  0.2031
    8CHL1    H9  556   2.191   6.084   9.889 -0.5855  0.5768  0.8192
    8CHL1   C10  557   2.005   6.135   9.986 -0.7295 -0.1137  0.8046
    8CHL1   C19  558   1.841   6.111   9.959 -0.0758 -0.4500  0.3960
    8CHL1  H19A  559   1.785   6.133  10.052 -1.3347  3.8834 -1.1433
    8CHL1  H19B  560   1.816   6.178   9.874  1.7424  1.1323  1.0120
    8CHL1  H19C  561   1.815   6.011   9.919  0.9639 -0.2997 -0.7162
    8CHL1    C1  562   2.049   6.049  10.106 -0.0062  0.3958 -0.8764
    8CHL1   H1A  563   2.008   5.947  10.088  0.3173  0.2343 -0.7009
    8CHL1   H1B  564   2.159   6.031  10.100 -0.2312 -0.8436 -1.7780
    8CHL1    C2  565   1.979   6.083  10.240 -0.5659 -0.9909 -0.4111
    8CHL1   H2A  566   2.015   6.018  10.322 -1.3696  1.9212  2.4541
    8CHL1   H2B  567   1.869   6.069  10.240 -0.8959  1.2169  0.2941
    8CHL1   C20  568   2.214   5.947   9.323  0.2625  0.3174 -0.1718
    8CHL1   H20  569   2.128   5.987   9.266  1.7346  0.6351 -2.3157
    8CHL1   C21  570   2.195   5.797   9.353 -0.0151  0.0369 -0.0409
    8CHL1  H21A  571   2.113   5.785   9.428 -0.3197  1.3092 -0.1446
    8CHL1  H21B  572   2.287   5.752   9.395  0.0035 -1.1876 -1.3142
    8CHL1  H21C  573   2.175   5.738   9.261  2.0774  0.5992 -0.9063
    8CHL1   C22  574   2.324   5.974   9.222 -0.3020 -0.8499  0.1651
    8CHL1  H22A  575   2.354   6.081   9.212  0.1482 -0.7939  1.8277
    8CHL1  H22B  576   2.406   5.905   9.250 -1.6811 -2.9025 -0.5648
    8CHL1   C23  577   2.283   5.930   9.082 -0.2430 -0.2985 -0.4663
    8CHL1  H23A  578   2.375   5.914   9.021  0.9591  2.3523  0.5178
    8CHL1  H23B  579   2.238   5.828   9.078  0.9134 -0.8110 -3.5149
    8CHL1   C24  580   2.188   6.027   9.004 -0.0777  0.0367 -1.1084
    8CHL1  H24A  581   2.164   5.990   8.902 -1.0241  1.5797 -1.4957
    8CHL1  H24B  582   2.091   6.015   9.057  0.3084  1.8845  0.1442
    8CHL1   C25  583   2.236   6.174   8.982  0.7896 -0.0053 -0.1656
    8CHL1   H25  584   2.271   6.221   9.077  0.6989 -0.7840  0.2558
    8CHL1   C26  585   2.354   6.185   8.884  0.6337  0.2121  0.2170
    8CHL1  H26A  586   2.425   6.104   8.910 -1.3523 -1.1914  1.5242
    8CHL1  H26B  587   2.321   6.148   8.784 -0.6789 -2.2601  1.4789
    8CHL1  H26C  588   2.399   6.287   8.887  2.8330 -0.6322 -1.4970
    8CHL1   C27  589   2.114   6.254   8.940 -0.0731 -0.5709 -0.0232
    8CHL1  H27A  590   2.074   6.207   8.847 -1.1715 -2.2316  1.2257
    8CHL1  H27B  591   2.035   6.254   9.018 -2.3589  0.1414 -2.2293
    8CHL1  H27C  592   2.138   6.358   8.909 -0.8291 -0.5337 -0.5007
    9CHL1    C3  593   5.836   1.992  10.269 -0.2499 -0.1838  0.7209
    9CHL1    H3  594   5.740   2.046  10.258  0.5094  1.2251  0.8205
    9CHL1    O3  595   5.856   1.954  10.405 -0.8550 -0.6181 -0.1022
    9CHL1   H3'  596   5.937   1.902  10.399 -0.2364  0.4822 -2.6101
    9CHL1    C4  597   5.828   1.866  10.187  0.2349  0.2147  0.6272
    9CHL1   H4A  598   5.926   1.820  10.211 -0.9967 -2.4705  0.9773
    9CHL1   H4B  599   5.743   1.802  10.220 -0.2424 -0.4992 -1.7971
    9CHL1    C5  600   5.833   1.895  10.033 -0.0837  0.0835  0.2403
    9CHL1    C6  601   5.751   1.832   9.949  0.0882 -0.0739  0.0961
    9CHL1    H6  602   5.673   1.769   9.994 -0.5250  0.0053 -0.8321
    9CHL1    C7  603   5.748   1.854   9.799 -0.0506 -0.0075  0.5560
    9CHL1   H7A  604   5.737   1.759   9.741  0.3124  0.7221 -0.7392
    9CHL1   H7B  605   5.656   1.913   9.777 -0.6312 -0.5581  1.4233
    9CHL1    C8  606   5.873   1.926   9.740 -0.0447 -0.1437 -0.1423
    9CHL1    H8  607   5.961   1.859   9.732  0.3554  0.2753  0.6136
    9CHL1   C14  608   5.839   1.983   9.607 -0.7882 -0.6853  0.4814
    9CHL1   H14  609   5.762   2.063   9.621 -1.3175 -1.2292  0.7341
    9CHL1   C15  610   5.779   1.890   9.501  0.4974  1.0170 -0.2886
    9CHL1  H15A  611   5.839   1.797   9.508  0.7793  1.2908  1.1888
    9CHL1  H15B  612   5.674   1.861   9.525  0.1734 -0.1076 -2.7422
    9CHL1   C16  613   5.806   1.950   9.362  0.0868  0.8697  0.0567
    9CHL1  H16A  614   5.872   1.873   9.318 -1.2450 -0.6011  0.5800
    9CHL1  H16B  615   5.715   1.966   9.301  0.0722 -2.1014 -0.8102
    9CHL1   C17  616   5.883   2.083   9.383 -0.0557 -0.6053 -0.2668
    9CHL1   H17  617   5.806   2.163   9.388 -0.6019 -0.8362 -3.2615
    9CHL1   C13  618   5.947   2.058   9.529  0.7958 -0.3722 -0.0107
    9CHL1   C18  619   6.067   1.960   9.516 -0.0654 -0.6289 -0.1815
    9CHL1  H18A  620   6.041   1.868   9.459  0.0767  0.5716 -2.2812
    9CHL1  H18B  621   6.145   2.007   9.453  0.5500 -0.0518  0.9715
    9CHL1  H18C  622   6.114   1.931   9.612 -0.1881  0.5709  0.2571
    9CHL1   C12  623   5.982   2.177   9.620  0.6204 -0.2841 -0.0572
    9CHL1  H12A  624   6.068   2.230   9.573  1.6726 -1.1429  0.8539
    9CHL1  H12B  625   5.902   2.254   9.628  1.7297  0.7719  1.6679
    9CHL1   C11  626   6.019   2.126   9.767 -0.1458  0.3002  0.1879
    9CHL1  H11A  627   6.124   2.090   9.761  0.9237  3.1411  0.2216
    9CHL1  H11B  628   6.039   2.215   9.831  0.2591  0.0695  0.3865
    9CHL1    C9  629   5.910   2.040   9.834  0.0739 -0.0196 -0.9393
    9CHL1    H9  630   5.820   2.103   9.850  1.2940  1.6748 -0.3942
    9CHL1   C10  631   5.944   1.988   9.980  0.2195 -0.5089  0.1493
    9CHL1   C19  632   6.079   1.911   9.978 -1.0937  0.9148 -0.1949
    9CHL1  H19A  633   6.103   1.878  10.082 -1.0278 -2.7418 -1.2118
    9CHL1  H19B  634   6.063   1.815   9.923  0.8551  1.0405 -1.0304
    9CHL1  H19C  635   6.167   1.963   9.936  0.1290 -1.4047 -0.6824
    9CHL1    C1  636   5.950   2.121  10.073  0.4332  0.4265 -0.0063
    9CHL1   H1A  637   6.043   2.176  10.048  1.1554  0.0905  1.7744
    9CHL1   H1B  638   5.870   2.190  10.041  0.3573  1.3541  2.0040
    9CHL1    C2  639   5.946   2.087  10.225 -0.8863 -1.2140 -0.7686
    9CHL1   H2A  640   5.937   2.183  10.281 -1.4818 -1.7105  0.0133
    9CHL1   H2B  641   6.046   2.046  10.252  0.5375  2.1878 -0.4126
    9CHL1   C20  642   5.977   2.120   9.271 -0.4107 -0.3711  0.8264
    9CHL1   H20  643   6.067   2.057   9.288 -0.0656 -0.2915 -0.6041
    9CHL1   C21  644   6.036   2.266   9.276  0.6551 -0.5475 -0.7503
    9CHL1  H21A  645   6.121   2.284   9.207 -0.8795 -1.3826 -2.9955
    9CHL1  H21B  646   6.088   2.271   9.374 -1.3060 -1.3769  0.4070
    9CHL1  H21C  647   5.955   2.342   9.267 -0.4098 -1.2153  2.1982
    9CHL1   C22  648   5.929   2.087   9.130 -0.1736 -0.1012 -0.3390
    9CHL1  H22A  649   5.884   1.986   9.119 -0.4505 -0.1556  1.0386
    9CHL1  H22B  650   5.852   2.164   9.110 -0.1415  0.2373  0.7419
    9CHL1   C23  651   6.037   2.105   9.018 -0.0668 -0.4432  0.8585
    9CHL1  H23A  652   6.102   2.194   9.032  1.1651 -1.1571 -0.0601
    9CHL1  H23B  653   6.110   2.021   9.026 -1.4418 -1.7012  0.5910
    9CHL1   C24  654   5.975   2.120   8.879  0.7816 -0.0582  0.4505
    9CHL1  H24A  655   5.883   2.057   8.874  1.0773 -0.4681  0.1408
    9CHL1  H24B  656   5.950   2.228   8.866  0.4822  0.3420  3.6768
    9CHL1   C25  657   6.064   2.113   8.753 -0.8252 -0.1442 -0.6602
    9CHL1   H25  658   5.994   2.146   8.673 -2.9053 -0.9699  0.7182
    9CHL1   C26  659   6.178   2.218   8.755  0.0184 -0.0913 -0.8415
    9CHL1  H26A  660   6.154   2.325   8.741  2.7820  0.5898 -0.8436
    9CHL1  H26B  661   6.216   2.212   8.859  1.3554 -1.2580 -1.3617
    9CHL1  H26C  662   6.254   2.198   8.676 -2.0583 -1.0801 -2.6999
    9CHL1   C27  663   6.118   1.976   8.717  0.4488 -0.3509  0.0183
    9CHL1  H27A  664   6.155   1.932   8.812  0.2630  1.1553  0.8259
    9CHL1  H27B  665   6.043   1.907   8.672  0.3951  0.1569 -0.6833
    9CHL1  H27C  666   6.199   1.974   8.640 -0.0377 -0.8895 -0.4914
   10CHL1    C3  667   4.681   6.305  10.048  0.2539  0.9205  0.1706
   10CHL1    H3  668   4.691   6.203  10.006 -0.7236  0.2660  1.4301
   10CHL1    O3  669   4.696   6.285  10.186  0.5366 -0.2824  0.2922
   10CHL1   H3'  670   4.677   6.368  10.230  1.7146  0.5758 -0.7507
   10CHL1    C4  671   4.772   6.418   9.996  0.9421  0.6042 -0.0312
   10CHL1   H4A  672   4.769   6.510  10.059 -0.8271 -1.2686  2.8290
   10CHL1   H4B  673   4.872   6.368   9.999 -0.7724 -3.4928 -2.4986
   10CHL1    C5  674   4.743   6.462   9.855 -0.1229  0.5649  0.0238
   10CHL1    C6  675   4.838   6.451   9.764 -0.0263  0.1474  0.1196
   10CHL1    H6  676   4.929   6.399   9.799 -0.9041 -0.8417  1.0323
   10CHL1    C7  677   4.835   6.503   9.623 -0.0928 -0.2771  0.4856
   10CHL1   H7A  678   4.922   6.567   9.594 -1.8061  2.1753  0.4090
   10CHL1   H7B  679   4.822   6.421   9.549 -2.1869  1.1809 -0.8710
   10CHL1    C8  680   4.711   6.588   9.605  0.4173 -0.1055 -0.1282
   10CHL1    H8  681   4.737   6.688   9.646 -1.2155  0.4712 -0.4390
   10CHL1   C14  682   4.684   6.611   9.457 -0.3376 -0.3811 -0.1447
   10CHL1   H14  683   4.659   6.508   9.425 -2.5640  0.7131 -2.1853
   10CHL1   C15  684   4.792   6.672   9.367  0.0072  0.1383  0.5840
   10CHL1  H15A  685   4.854   6.748   9.420 -0.4671  0.6272  0.4570
   10CHL1  H15B  686   4.855   6.587   9.334 -1.5471 -1.2123  0.9434
   10CHL1   C16  687   4.709   6.729   9.252 -0.1398 -1.1533  0.5026
   10CHL1  H16A  688   4.735   6.837   9.248  1.1189 -1.3694  2.0516
   10CHL1  H16B  689   4.742   6.681   9.157  2.9249  0.1347  0.8189
   10CHL1   C17  690   4.556   6.705   9.284 -0.1821 -0.2538  0.2145
   10CHL1   H17  691   4.523   6.602   9.261  0.7422 -0.5509  0.1614
   10CHL1   C13  692   4.559   6.695   9.431 -0.1328 -0.5664 -0.0137
   10CHL1   C18  693   4.578   6.837   9.487 -0.4690 -0.5011  0.2603
   10CHL1  H18A  694   4.485   6.896   9.503 -0.2701  0.3083 -1.4147
   10CHL1  H18B  695   4.632   6.839   9.584  2.2056  0.2465 -1.1466
   10CHL1  H18C  696   4.643   6.903   9.426 -0.9177 -1.5395 -1.4258
   10CHL1   C12  697   4.435   6.639   9.490  0.5147 -0.1050 -0.4987
   10CHL1  H12A  698   4.345   6.703   9.478  1.0574  1.1286  1.4638
   10CHL1  H12B  699   4.407   6.544   9.440 -0.9941 -0.0465  0.1884
   10CHL1   C11  700   4.454   6.610   9.639 -0.0308  0.3594  0.2376
   10CHL1  H11A  701   4.463   6.701   9.701  2.0995 -0.3498  1.0855
   10CHL1  H11B  702   4.370   6.549   9.679  2.3787 -2.0755  1.9205
   10CHL1    C9  703   4.584   6.538   9.680 -1.0561 -0.1657 -0.0343
   10CHL1    H9  704   4.572   6.435   9.640  0.4314 -0.6174  0.5942
   10CHL1   C10  705   4.604   6.521   9.831 -0.0417 -0.1280 -0.6587
   10CHL1   C19  706   4.588   6.649   9.916  0.0504  0.4582 -0.4141
   10CHL1  H19A  707   4.664   6.727   9.893 -0.9105  0.6854 -3.1337
   10CHL1  H19B  708   4.487   6.692   9.897 -1.2100 -2.7625 -1.6368
   10CHL1  H19C  709   4.594   6.621  10.024 -0.7733 -0.8136 -0.6784
   10CHL1    C1  710   4.508   6.404   9.879  0.2759 -0.2299 -0.0950
   10CHL1   H1A  711   4.405   6.445   9.879 -0.7946 -2.5638 -2.3830
   10CHL1   H1B  712   4.512   6.320   9.806 -1.8440 -0.2654 -0.2222
   10CHL1    C2  713   4.533   6.350  10.023  0.2377  0.1207  0.2972
   10CHL1   H2A  714   4.451   6.277  10.040 -2.3165  3.1172  1.9360
   10CHL1   H2B  715   4.514   6.434  10.093 -1.2723  1.1007 -1.2026
   10CHL1   C20  716   4.461   6.809   9.216  0.3067  0.0674  0.3246
   10CHL1   H20  717   4.466   6.900   9.280  1.3088 -0.7221  1.4209
   10CHL1   C21  718   4.318   6.748   9.205  0.2159 -0.5888 -0.5338
   10CHL1  H21A  719   4.263   6.733   9.300 -0.1482 -0.3871 -0.7080
   10CHL1  H21B  720   4.327   6.650   9.154  0.9075  0.1379 -1.8739
   10CHL1  H21C  721   4.250   6.800   9.134 -0.3851  1.0398  1.1257
   10CHL1   C22  722   4.504   6.847   9.076  0.1651 -1.2523  0.3366
   10CHL1  H22A  723   4.608   6.886   9.066 -0.6932  0.6372 -2.3004
   10CHL1  H22B  724   4.492   6.757   9.013 -2.3323  0.0996 -1.2664
   10CHL1   C23  725   4.432   6.958   8.990 -0.7032  0.1145  0.2428
   10CHL1  H23A  726   4.323   6.936   8.982 -0.7882  0.1087  1.2356
   10CHL1  H23B  727   4.445   7.054   9.045  1.3286  0.8566 -1.4260
   10CHL1   C24  728   4.498   6.976   8.853 -0.1490  0.1164 -0.3257
   10CHL1  H24A  729   4.606   6.995   8.867 -0.3021 -0.1651  1.4716
   10CHL1  H24B  730   4.483   6.888   8.788 -0.9364  1.0278 -1.4189
   10CHL1   C25  731   4.433   7.088   8.767 -0.2110 -0.8036  0.8840
   10CHL1   H25  732   4.412   7.163   8.846 -2.3346 -1.6311  1.1817
   10CHL1   C26  733   4.530   7.134   8.648  0.3020  0.5234 -0.0640
   10CHL1  H26A  734   4.557   7.050   8.580  1.4960 -1.2023  2.3934
   10CHL1  H26B  735   4.472   7.207   8.588  1.3614  1.3902 -0.0726
   10CHL1  H26C  736   4.626   7.175   8.687 -0.2209  1.3292  0.4043
   10CHL1   C27  737   4.289   7.045   8.716 -0.4273  0.5458  0.4588
   10CHL1  H27A  738   4.248   7.127   8.653  0.6149  1.1607  0.5696
   10CHL1  H27B  739   4.297   6.948   8.662  0.5963  1.0485 -0.3375
   10CHL1  H27C  740   4.221   7.034   8.803 -1.8424 -0.8905 -0.7592
   11CHL1    C3  741   6.170   3.969  10.210 -1.1426 -0.4219 -0.3546
   11CHL1    H3  742   6.126   3.868  10.224 -2.7108 -0.1749 -2.7863
   11CHL1    O3  743   6.191   4.031  10.336  0.1775 -0.8255 -0.2281
   11CHL1   H3'  744   6.241   4.112  10.322 -1.2872  0.2341  0.3559
   11CHL1    C4  745   6.308   3.976  10.130  0.9014 -0.8873  0.5768
   11CHL1   H4A  746   6.354   4.076  10.141  0.2923 -0.5966  0.4926
   11CHL1   H4B  747   6.381   3.905  10.174 -0.4160 -1.4355  1.9765
   11CHL1    C5  748   6.288   3.944   9.986  0.0974  0.5310 -0.3497
   11CHL1    C6  749   6.370   3.859   9.923  0.7029 -0.4776  0.0364
   11CHL1    H6  750   6.436   3.793   9.981 -0.3203 -2.5759 -1.0883
   11CHL1    C7  751   6.374   3.825   9.779 -0.5425  0.3711 -0.0739
   11CHL1   H7A  752   6.478   3.840   9.742 -0.6741  2.1901  0.1813
   11CHL1   H7B  753   6.330   3.726   9.754 -1.1226  0.9598 -1.5149
   11CHL1    C8  754   6.291   3.917   9.684  0.0315  0.0387  0.2029
   11CHL1    H8  755   6.353   4.008   9.670 -0.7650  0.4912 -0.4998
   11CHL1   C14  756   6.256   3.861   9.549  0.6898 -0.3099  0.5330
   11CHL1   H14  757   6.182   3.779   9.564 -1.7094  0.7380 -3.8056
   11CHL1   C15  758   6.375   3.804   9.467 -1.0539 -0.1320  0.8154
   11CHL1  H15A  759   6.461   3.872   9.483 -0.8672  0.0012 -0.5868
   11CHL1  H15B  760   6.387   3.699   9.500  1.1275 -0.0786  0.3780
   11CHL1   C16  761   6.320   3.802   9.321  0.4436 -0.5325 -0.0792
   11CHL1  H16A  762   6.388   3.863   9.258  1.1503 -2.3412 -1.1479
   11CHL1  H16B  763   6.319   3.704   9.270 -1.7584 -0.0158 -1.1723
   11CHL1   C17  764   6.170   3.867   9.333 -0.1559  0.6806  0.6570
   11CHL1   H17  765   6.107   3.778   9.356  1.4351 -0.9206 -0.8315
   11CHL1   C13  766   6.167   3.952   9.455 -0.1499 -0.5989 -0.2077
   11CHL1   C18  767   6.252   4.087   9.433 -0.4843  0.0229  0.7661
   11CHL1  H18A  768   6.185   4.164   9.388 -2.3037 -1.5934  0.6060
   11CHL1  H18B  769   6.283   4.127   9.532  2.4038 -1.5718  0.6071
   11CHL1  H18C  770   6.348   4.083   9.377 -0.6798 -0.4531  0.4670
   11CHL1   C12  771   6.033   3.982   9.522  0.5540  0.1870  0.7081
   11CHL1  H12A  772   5.959   4.050   9.476  0.4981 -0.6151 -0.4114
   11CHL1  H12B  773   5.980   3.886   9.536 -0.2264  0.7671  1.9023
   11CHL1   C11  774   6.064   4.038   9.664  0.2714  0.5088  0.6199
   11CHL1  H11A  775   6.099   4.143   9.650 -0.3844  0.9342  1.9754
   11CHL1  H11B  776   5.968   4.055   9.717 -0.2184 -0.3333  0.0143
   11CHL1    C9  777   6.167   3.957   9.756 -0.4536  0.5028 -0.1994
   11CHL1    H9  778   6.114   3.863   9.782 -0.7363  0.1750 -1.8612
   11CHL1   C10  779   6.193   4.024   9.905 -0.1873  0.4558  0.0776
   11CHL1   C19  780   6.248   4.169   9.887  0.0210 -0.0191 -0.4060
   11CHL1  H19A  781   6.175   4.234   9.835  0.2327 -2.2460 -3.9065
   11CHL1  H19B  782   6.270   4.220   9.983  0.5363  1.2231 -1.1614
   11CHL1  H19C  783   6.339   4.167   9.823 -0.3210  0.1733 -0.9068
   11CHL1    C1  784   6.057   4.026   9.989  0.5838  0.4772  0.7226
   11CHL1   H1A  785   5.993   4.100   9.937  0.4275  1.0052  1.6435
   11CHL1   H1B  786   6.001   3.931   9.973  3.0943 -0.8386 -1.0598
   11CHL1    C2  787   6.068   4.059  10.136  0.4231 -0.1601  0.3993
   11CHL1   H2A  788   5.977   4.045  10.200  0.7757 -0.9016  0.7512
   11CHL1   H2B  789   6.114   4.159  10.148  0.0877 -0.0352  0.6768
   11CHL1   C20  790   6.102   3.908   9.205  0.4687 -0.3727 -0.1237
   11CHL1   H20  791   6.173   3.971   9.148 -1.8815  0.5990 -2.1371
   11CHL1   C21  792   5.975   3.996   9.225 -0.0138 -0.1252  0.3588
   11CHL1  H21A  793   5.897   3.943   9.283  0.0543  0.8173  1.3452
   11CHL1  H21B  794   5.926   4.025   9.129  0.6903  0.0729  0.0482
   11CHL1  H21C  795   6.003   4.089   9.279  0.9280 -0.4583  0.4681
   11CHL1   C22  796   6.065   3.794   9.109 -0.3389  0.2923 -0.5680
   11CHL1  H22A  797   6.127   3.704   9.129 -1.2687 -0.0908  0.8197
   11CHL1  H22B  798   5.962   3.756   9.128 -1.0410  0.5509 -3.4390
   11CHL1   C23  799   6.071   3.847   8.964  0.3440 -0.0725 -0.5189
   11CHL1  H23A  800   5.976   3.904   8.952  0.9685  1.1965  0.4050
   11CHL1  H23B  801   6.152   3.919   8.942  0.3751  0.0555  0.0141
   11CHL1   C24  802   6.061   3.736   8.863 -0.3740  0.1594 -0.4963
   11CHL1  H24A  803   6.152   3.672   8.867 -1.5478 -1.8452 -2.9688
   11CHL1  H24B  804   5.974   3.674   8.895 -0.5733  0.5454 -0.2919
   11CHL1   C25  805   6.030   3.778   8.725  0.1593  0.0877  0.6209
   11CHL1   H25  806   6.057   3.690   8.662  2.4570  0.7159  0.6398
   11CHL1   C26  807   5.887   3.824   8.707 -0.1866 -0.7268  0.1047
   11CHL1  H26A  808   5.818   3.744   8.740  0.7203 -1.5855 -0.0541
   11CHL1  H26B  809   5.875   3.913   8.773 -1.1953 -0.3508 -0.5500
   11CHL1  H26C  810   5.879   3.863   8.603  0.6508 -0.8452 -0.0086
   11CHL1   C27  811   6.125   3.889   8.673 -0.2060  0.0237 -0.1085
   11CHL1  H27A  812   6.230   3.862   8.694 -0.0781 -0.7701 -1.6854
   11CHL1  H27B  813   6.095   3.908   8.568 -0.6355  2.0399  0.3383
   11CHL1  H27C  814   6.102   3.981   8.731  2.1936 -0.4101  1.6736
   12CHL1    C3  815   2.869   0.981  10.197  0.8064  0.4083  0.0109
   12CHL1    H3  816   2.767   0.996  10.156  0.1899  0.0887  1.3761
   12CHL1    O3  817   2.866   0.980  10.339 -0.4722 -0.2957  0.4917
   12CHL1   H3'  818   2.956   0.995  10.366  0.0279  0.7513 -1.5423
   12CHL1    C4  819   2.937   0.852  10.155 -0.3648  0.4117  0.4921
   12CHL1   H4A  820   3.039   0.848  10.200  0.6254  1.0884 -1.5553
   12CHL1   H4B  821   2.875   0.767  10.190 -0.3386  0.6625  1.1496
   12CHL1    C5  822   2.959   0.851   9.999 -0.1376 -0.5745 -0.4418
   12CHL1    C6  823   2.908   0.758   9.925  0.0983 -0.1112  0.1075
   12CHL1    H6  824   2.843   0.684   9.973 -1.0245  0.5314 -0.3860
   12CHL1    C7  825   2.921   0.742   9.772  1.3353 -0.5570  0.3251
   12CHL1   H7A  826   2.961   0.640   9.754 -1.1145 -1.5264  0.0331
   12CHL1   H7B  827   2.822   0.763   9.725  2.5593  2.7728 -1.1409
   12CHL1    C8  828   3.025   0.841   9.714 -0.6381 -0.4499  0.1225
   12CHL1    H8  829   3.126   0.803   9.740 -0.0777  0.3747 -0.7924
   12CHL1   C14  830   3.017   0.861   9.565 -0.7026 -0.3324 -0.2109
   12CHL1   H14  831   2.918   0.910   9.554 -1.0833 -0.7356  1.2438
   12CHL1   C15  832   3.013   0.733   9.479  0.3952  0.2825 -0.2756
   12CHL1  H15A  833   3.089   0.664   9.523 -1.6926 -2.5357 -0.7968
   12CHL1  H15B  834   2.910   0.690   9.479  0.5339 -0.0675 -0.7880
   12CHL1   C16  835   3.055   0.780   9.342 -0.8342 -0.3517  0.4768
   12CHL1  H16A  836   3.153   0.735   9.313 -1.3178 -0.4954 -1.0523
   12CHL1  H16B  837   2.977   0.757   9.266  0.8832 -0.1891 -1.4570
   12CHL1   C17  838   3.073   0.939   9.352 -0.0927  0.0150 -0.0282
   12CHL1   H17  839   2.972   0.982   9.336  0.7619  2.1915  0.1836
   12CHL1   C13  840   3.112   0.959   9.501 -0.3173  0.3282  0.5500
   12CHL1   C18  841   3.258   0.911   9.526  0.1001 -0.1381  0.2464
   12CHL1  H18A  842   3.330   0.984   9.482 -1.2456  1.1802  0.1606
   12CHL1  H18B  843   3.281   0.918   9.635 -2.6214  0.9407  0.8093
   12CHL1  H18C  844   3.277   0.811   9.481 -0.3943 -0.4748  0.7738
   12CHL1   C12  845   3.082   1.095   9.564 -0.4978 -0.5507 -0.0148
   12CHL1  H12A  846   3.167   1.155   9.526 -0.3812  0.0163  1.1038
   12CHL1  H12B  847   2.988   1.148   9.537  0.1833 -0.1438 -1.7003
   12CHL1   C11  848   3.105   1.084   9.719  0.2333 -0.2431  0.1754
   12CHL1  H11A  849   3.215   1.070   9.730  0.2296  0.8472  2.0007
   12CHL1  H11B  850   3.076   1.185   9.753 -0.2415 -0.0368 -0.8211
   12CHL1    C9  851   3.012   0.979   9.785  0.2146  0.7446 -0.1294
   12CHL1    H9  852   2.908   1.015   9.774 -0.3613 -0.4306  1.1384
   12CHL1   C10  853   3.035   0.975   9.939  1.0179 -0.0597  0.5680
   12CHL1   C19  854   3.190   0.960   9.970 -0.1486  0.3742 -0.2367
   12CHL1  H19A  855   3.251   1.047   9.936  0.3803 -0.1799 -0.7230
   12CHL1  H19B  856   3.217   0.945  10.076  1.4765  1.5654 -0.4466
   12CHL1  H19C  857   3.224   0.878   9.903 -2.8338  2.1944 -4.3314
   12CHL1    C1  858   2.974   1.101   9.996  0.5369 -0.6580  0.4763
   12CHL1   H1A  859   3.054   1.177   9.987  1.2585 -0.8143  3.9945
   12CHL1   H1B  860   2.879   1.135   9.949  1.6173 -0.3216 -1.5394
   12CHL1    C2  861   2.961   1.094  10.150  0.1321  0.3449  0.1138
   12CHL1   H2A  862   2.919   1.191  10.185 -1.7894 -0.5461  0.3981
   12CHL1   H2B  863   3.063   1.094  10.195  0.9412 -3.5814 -1.3464
   12CHL1   C20  864   3.161   0.989   9.243 -0.2531 -0.7458  0.4975
   12CHL1   H20  865   3.270   0.985   9.264  0.2960  0.0901 -1.8694
   12CHL1   C21  866   3.111   1.139   9.224 -0.2474  0.4226 -0.3935
   12CHL1  H21A  867   3.133   1.193   9.318 -3.5437  1.5099 -0.1340
   12CHL1  H21B  868   3.001   1.144   9.212 -0.1565 -1.1350 -2.6519
   12CHL1  H21C  869   3.159   1.196   9.142  2.9442  0.0449  1.0670
   12CHL1   C22  870   3.142   0.920   9.103  0.5637  1.0511 -1.4205
   12CHL1  H22A  871   3.186   0.818   9.107 -1.5469  0.0629 -1.9163
   12CHL1  H22B  872   3.036   0.894   9.085  0.0566  1.1755  1.0592
   12CHL1   C23  873   3.202   0.998   8.991 -0.2616  0.5983  0.0786
   12CHL1  H23A  874   3.148   1.092   8.970  1.6210  1.5915 -0.5155
   12CHL1  H23B  875   3.301   1.044   9.008  0.4169  0.4710 -2.9003
   12CHL1   C24  876   3.204   0.922   8.854 -0.6373  0.5713  0.1018
   12CHL1  H24A  877   3.263   0.981   8.781  0.5063  1.9419  2.0529
   12CHL1  H24B  878   3.258   0.825   8.866  0.9889  1.4104 -0.1669
   12CHL1   C25  879   3.064   0.900   8.791  0.2386 -0.0949  0.7822
   12CHL1   H25  880   2.991   0.879   8.872  0.7526 -1.0820  1.0169
   12CHL1   C26  881   3.012   1.019   8.714 -0.8645  0.5969 -0.5892
   12CHL1  H26A  882   2.910   0.996   8.676 -0.7490  0.1117 -0.6073
   12CHL1  H26B  883   3.000   1.106   8.783  0.3039 -0.6599  1.2700
   12CHL1  H26C  884   3.085   1.054   8.638  0.4494  2.6065  1.4842
   12CHL1   C27  885   3.077   0.773   8.700 -0.0187  0.1705 -0.6368
   12CHL1  H27A  886   3.084   0.681   8.762 -0.6067 -0.9748 -2.2061
   12CHL1  H27B  887   2.982   0.750   8.647  0.3608 -0.2765 -1.1313
   12CHL1  H27C  888   3.162   0.795   8.632  1.2273 -2.4189 -0.0492
   13CHL1    C3  889   2.399   0.252  10.111 -0.4719 -0.0515  0.3119
   13CHL1    H3  890   2.473   0.325  10.073 -0.2635  0.0912  0.9660
   13CHL1    O3  891   2.389   0.260  10.254  0.5396 -0.4832 -0.2220
   13CHL1   H3'  892   2.338   0.184  10.283 -1.3036 -0.2138 -2.3907
   13CHL1    C4  893   2.256   0.269  10.060 -0.2510 -0.4898  0.4219
   13CHL1   H4A  894   2.186   0.202  10.114 -1.3061  0.0820 -0.2053
   13CHL1   H4B  895   2.228   0.374  10.084 -3.8070 -1.1537 -0.2660
   13CHL1    C5  896   2.261   0.234   9.916  0.1738  1.0788  0.2239
   13CHL1    C6  897   2.226   0.322   9.829 -0.8586 -0.7376  1.2466
   13CHL1    H6  898   2.192   0.418   9.870  0.2802 -0.0831  0.7287
   13CHL1    C7  899   2.217   0.288   9.681  0.7804  0.4515  0.0779
   13CHL1   H7A  900   2.124   0.339   9.646  1.1641 -0.5723 -2.6158
   13CHL1   H7B  901   2.309   0.318   9.628  2.1614 -0.3723  1.9031
   13CHL1    C8  902   2.197   0.130   9.655  0.4188 -0.4851  0.0014
   13CHL1    H8  903   2.102   0.087   9.693 -0.0624  0.7709  0.2602
   13CHL1   C14  904   2.212   0.109   9.504  1.0053  0.4579  0.3609
   13CHL1   H14  905   2.317   0.135   9.483  1.4446 -2.5787 -1.7821
   13CHL1   C15  906   2.132   0.193   9.402 -0.3434 -0.7994  0.2521
   13CHL1  H15A  907   2.030   0.203   9.446 -0.4990 -1.3135  0.0188
   13CHL1  H15B  908   2.179   0.290   9.379 -1.4518 -0.1460  0.6417
   13CHL1   C16  909   2.123   0.111   9.271 -0.6476  0.3293 -0.5320
   13CHL1  H16A  910   2.017   0.089   9.246 -0.8365  1.2136 -0.5507
   13CHL1  H16B  911   2.176   0.164   9.189  0.8031  0.1322  0.2289
   13CHL1   C17  912   2.199  -0.018   9.304  0.0472  1.1659  0.4264
   13CHL1   H17  913   2.307  -0.004   9.279  0.0765 -0.2552 -0.3377
   13CHL1   C13  914   2.197  -0.036   9.457  0.1482  0.3145 -0.4584
   13CHL1   C18  915   2.058  -0.094   9.504 -0.1229 -0.1659 -0.1314
   13CHL1  H18A  916   1.972  -0.037   9.462 -0.4899 -1.0766 -0.6388
   13CHL1  H18B  917   2.049  -0.200   9.473  1.9148 -0.0868 -1.1959
   13CHL1  H18C  918   2.046  -0.090   9.615  0.4300 -0.0922 -0.0684
   13CHL1   C12  919   2.311  -0.121   9.527 -0.4984 -0.1481  0.3333
   13CHL1  H12A  920   2.294  -0.228   9.505 -2.5160 -0.0175  1.0674
   13CHL1  H12B  921   2.409  -0.090   9.485  0.3480  1.7272  3.3604
   13CHL1   C11  922   2.317  -0.102   9.677 -0.1420 -0.5835 -0.6033
   13CHL1  H11A  923   2.220  -0.149   9.701 -0.9852 -0.3933 -3.3205
   13CHL1  H11B  924   2.397  -0.156   9.732 -1.4163  0.3355  2.3025
   13CHL1    C9  925   2.310   0.054   9.718  0.4038 -0.5764  0.5203
   13CHL1    H9  926   2.408   0.094   9.682  0.2816  0.1399  0.9517
   13CHL1   C10  927   2.308   0.078   9.875 -0.3859  0.2880  0.1969
   13CHL1   C19  928   2.205  -0.022   9.938  0.5350 -0.0173  0.8475
   13CHL1  H19A  929   2.104  -0.010   9.893  0.2524  0.6016  1.6229
   13CHL1  H19B  930   2.241  -0.127   9.930 -0.5539 -0.2666 -2.1332
   13CHL1  H19C  931   2.190  -0.007  10.047  2.0686 -3.4973  1.6932
   13CHL1    C1  932   2.445   0.054   9.936 -0.6950  0.1691 -0.6058
   13CHL1   H1A  933   2.470  -0.055   9.931  0.4062  0.4450 -1.9530
   13CHL1   H1B  934   2.519   0.107   9.873 -1.5836  0.4231 -1.4667
   13CHL1    C2  935   2.450   0.106  10.086 -0.0783 -0.0349  0.0193
   13CHL1   H2A  936   2.558   0.105  10.113 -0.3867 -1.4596  1.3270
   13CHL1   H2B  937   2.399   0.022  10.137  1.7812 -0.6719  0.9385
   13CHL1   C20  938   2.152  -0.128   9.210  0.1479  0.4949 -0.6734
   13CHL1   H20  939   2.045  -0.140   9.237 -0.4105  5.1436  0.0244
   13CHL1   C21  940   2.228  -0.259   9.233  0.0234 -0.1317  0.6192
   13CHL1  H21A  941   2.223  -0.332   9.149  0.7350 -1.1637  1.4595
   13CHL1  H21B  942   2.201  -0.299   9.333  0.0688  0.2592  0.7898
   13CHL1  H21C  943   2.331  -0.219   9.235  0.0855  0.0254 -2.0016
   13CHL1   C22  944   2.151  -0.093   9.067 -0.2793 -0.4923  0.1385
   13CHL1  H22A  945   2.106  -0.180   9.015  0.6281 -1.3462  0.7515
   13CHL1  H22B  946   2.097   0.002   9.044  0.4069 -0.0121  0.4587
   13CHL1   C23  947   2.294  -0.081   9.005 -0.3384  0.0896  0.5823
   13CHL1  H23A  948   2.343   0.011   9.045 -2.0415  1.2760  0.0456
   13CHL1  H23B  949   2.356  -0.171   9.027 -2.2205 -0.8346  2.5322
   13CHL1   C24  950   2.296  -0.069   8.848 -0.6972  0.0323 -0.3546
   13CHL1  H24A  951   2.229  -0.149   8.810 -2.0704  0.9125  0.1141
   13CHL1  H24B  952   2.250   0.028   8.818  0.0492 -0.1702 -2.2602
   13CHL1   C25  953   2.441  -0.082   8.791 -0.6702 -0.0401 -0.1669
   13CHL1   H25  954   2.511  -0.145   8.850 -0.2172  0.2097 -0.4327
   13CHL1   C26  955   2.426  -0.148   8.649  0.3760  1.0234  0.6290
   13CHL1  H26A  956   2.355  -0.084   8.592 -1.2505  0.2087  1.6680
   13CHL1  H26B  957   2.525  -0.153   8.599  0.9533 -1.0194  1.8674
   13CHL1  H26C  958   2.381  -0.249   8.655  1.8931  0.2206 -0.8983
   13CHL1   C27  959   2.509   0.061   8.790  0.6299  0.3922 -0.7943
   13CHL1  H27A  960   2.434   0.121   8.734 -0.9419 -0.9670 -0.2474
   13CHL1  H27B  961   2.521   0.107   8.891  0.5476  1.9446 -1.4577
   13CHL1  H27C  962   2.611   0.060   8.746  1.5289 -3.4056  0.9572
   14CHL1    C3  963   1.586   4.269  10.281 -0.0157  0.3010 -0.1078
   14CHL1    H3  964   1.500   4.337  10.267  0.0144  0.3539 -0.0393
   14CHL1    O3  965   1.576   4.222  10.415  0.1306  0.7408  1.0069
   14CHL1   H3'  966   1.656   4.171  10.429 -0.5294 -0.2519  1.2061
   14CHL1    C4  967   1.573   4.142  10.194  0.2582  0.4263  0.2938
   14CHL1   H4A  968   1.669   4.090  10.216 -0.1984 -0.7504 -0.3746
   14CHL1   H4B  969   1.490   4.080  10.233  0.1646 -0.1988 -0.8436
   14CHL1    C5  970   1.571   4.172  10.044 -0.6216  0.0938  0.2912
   14CHL1    C6  971   1.473   4.129   9.963 -0.2792 -0.1349  0.3974
   14CHL1    H6  972   1.395   4.060   9.999  1.5172 -1.9366  1.0117
   14CHL1    C7  973   1.478   4.142   9.813 -0.9609  0.5659  0.1268
   14CHL1   H7A  974   1.459   4.043   9.766 -2.4623  1.2679 -0.8102
   14CHL1   H7B  975   1.394   4.202   9.772 -1.2439 -0.3207 -0.6079
   14CHL1    C8  976   1.612   4.193   9.754 -1.2728  0.4248 -0.4075
   14CHL1    H8  977   1.693   4.117   9.746 -0.4248  1.1542  0.8907
   14CHL1   C14  978   1.596   4.249   9.612  0.3616 -0.0423 -0.4184
   14CHL1   H14  979   1.519   4.329   9.622  1.1821  0.6002  1.3112
   14CHL1   C15  980   1.543   4.159   9.505  0.8685 -0.0950 -0.6731
   14CHL1  H15A  981   1.592   4.060   9.512 -4.1373 -2.8361  0.1360
   14CHL1  H15B  982   1.436   4.139   9.523  1.6360 -1.1856  3.8965
   14CHL1   C16  983   1.580   4.223   9.368  0.0776 -0.2013 -0.3893
   14CHL1  H16A  984   1.630   4.140   9.313  0.0005 -1.6684  1.6679
   14CHL1  H16B  985   1.501   4.268   9.303 -2.3309 -0.6732  2.0594
   14CHL1   C17  986   1.681   4.341   9.403  0.6258  0.3047  0.0637
   14CHL1   H17  987   1.617   4.431   9.416  2.2848  1.4766  0.4396
   14CHL1   C13  988   1.725   4.319   9.553  0.1501  0.3217  0.0691
   14CHL1   C18  989   1.845   4.221   9.565 -0.4982 -0.5634  0.6682
   14CHL1  H18A  990   1.882   4.222   9.670  1.8089  2.7431 -0.0255
   14CHL1  H18B  991   1.823   4.118   9.528 -0.1757 -0.2678 -0.3705
   14CHL1  H18C  992   1.918   4.263   9.493 -1.0383 -2.2967 -1.0031
   14CHL1   C12  993   1.757   4.444   9.644  0.8097  0.4502 -0.0834
   14CHL1  H12A  994   1.852   4.492   9.613 -0.6231  2.4888 -1.5432
   14CHL1  H12B  995   1.675   4.518   9.632 -2.1623 -1.8786  3.4505
   14CHL1   C11  996   1.766   4.407   9.793 -0.0506  0.2930  0.1821
   14CHL1  H11A  997   1.870   4.372   9.808  0.4154  0.8822 -1.4432
   14CHL1  H11B  998   1.759   4.505   9.845 -0.0586 -0.4095  1.5490
   14CHL1    C9  999   1.658   4.310   9.845 -0.1534 -0.8103 -0.1600
   14CHL1    H9 1000   1.569   4.375   9.857  1.7452  2.4924 -2.3449
   14CHL1   C10 1001   1.689   4.256   9.992 -0.0538 -0.5733  0.0876
   14CHL1   C19 1002   1.810   4.161   9.986 -0.0227  0.7525  0.2701
   14CHL1  H19A 1003   1.898   4.227   9.967 -0.9091  2.9308  2.9068
   14CHL1  H19B 1004   1.825   4.114  10.085  1.6176  0.6452 -0.0027
   14CHL1  H19C 1005   1.796   4.084   9.908 -1.5901 -0.3454  1.5652
   14CHL1    C1 1006   1.716   4.380  10.093 -0.1907 -0.0113  0.1371
   14CHL1   H1A 1007   1.812   4.431  10.071  1.2592 -1.2540  3.1157
   14CHL1   H1B 1008   1.633   4.452  10.077 -0.3430 -0.1835  0.1356
   14CHL1    C2 1009   1.715   4.343  10.249  0.6521 -1.5899 -0.0085
   14CHL1   H2A 1010   1.715   4.438  10.306 -1.2951 -0.2267 -2.1096
   14CHL1   H2B 1011   1.802   4.281  10.280  2.3684 -0.5157 -2.4198
   14CHL1   C20 1012   1.780   4.382   9.295 -0.3093  0.2832  0.4429
   14CHL1   H20 1013   1.833   4.289   9.267 -0.0471 -0.6277  3.5811
   14CHL1   C21 1014   1.879   4.494   9.339  0.1754 -0.5824  0.3568
   14CHL1  H21A 1015   1.819   4.578   9.380  0.3494 -0.5797  0.6074
   14CHL1  H21B 1016   1.940   4.531   9.254 -2.1461  3.4050  0.1806
   14CHL1  H21C 1017   1.943   4.460   9.423 -0.0515 -0.7521  0.4639
   14CHL1   C22 1018   1.703   4.432   9.169  0.0965  1.1511 -0.3327
   14CHL1  H22A 1019   1.633   4.351   9.139 -0.4731  1.2271  0.7610
   14CHL1  H22B 1020   1.643   4.522   9.194  1.4806  2.1132 -0.4018
   14CHL1   C23 1021   1.787   4.469   9.047 -0.0897  0.7304 -0.7258
   14CHL1  H23A 1022   1.842   4.562   9.075  1.2004 -0.0910 -0.4528
   14CHL1  H23B 1023   1.855   4.385   9.021 -0.9836 -0.0228 -0.6925
   14CHL1   C24 1024   1.687   4.494   8.922 -0.2567  0.1787  0.2291
   14CHL1  H24A 1025   1.619   4.407   8.909 -1.3144  1.0121  0.0785
   14CHL1  H24B 1026   1.620   4.577   8.952 -4.3232 -2.6082 -0.4068
   14CHL1   C25 1027   1.758   4.531   8.788  1.5705 -0.2016 -0.1702
   14CHL1   H25 1028   1.817   4.617   8.826  1.9881  0.0640 -1.3677
   14CHL1   C26 1029   1.864   4.424   8.746  0.3834 -0.1989  0.5507
   14CHL1  H26A 1030   1.951   4.412   8.814 -1.0494  2.0075  2.9621
   14CHL1  H26B 1031   1.800   4.334   8.746 -0.0323  0.0649 -1.0272
   14CHL1  H26C 1032   1.897   4.445   8.642 -1.6441 -0.5849 -0.2083
   14CHL1   C27 1033   1.660   4.569   8.684  0.1429  0.5718  0.0352
   14CHL1  H27A 1034   1.615   4.666   8.715 -0.2972  0.5647 -0.5763
   14CHL1  H27B 1035   1.714   4.585   8.589 -0.1922  0.2093 -0.2161
   14CHL1  H27C 1036   1.590   4.484   8.670  1.8071 -0.5344 -2.0282
   15CHL1    C3 1037   1.656   3.246  10.191 -0.9044 -0.5300 -0.5128
   15CHL1    H3 1038   1.759   3.208  10.210 -0.7009  0.4120  0.3569
   15CHL1    O3 1039   1.597   3.283  10.315  0.3851 -0.9058  0.0675
   15CHL1   H3' 1040   1.513   3.238  10.315 -1.1724  1.7050  1.4911
   15CHL1    C4 1041   1.664   3.370  10.099 -0.4320  1.0051 -0.0479
   15CHL1   H4A 1042   1.563   3.415  10.087  0.3939  2.4788 -1.9296
   15CHL1   H4B 1043   1.708   3.453  10.157  0.0636 -0.2766  1.4853
   15CHL1    C5 1044   1.716   3.330   9.960  0.6624 -0.0949 -0.0826
   15CHL1    C6 1045   1.816   3.394   9.905 -0.3013 -0.6957 -0.4520
   15CHL1    H6 1046   1.862   3.464   9.977 -1.3003 -0.6371  0.1557
   15CHL1    C7 1047   1.876   3.366   9.768 -0.3654  0.3011 -0.8163
   15CHL1   H7A 1048   1.893   3.461   9.713 -0.1109  2.2037  2.3210
   15CHL1   H7B 1049   1.971   3.312   9.785  1.0285  2.2035 -2.1778
   15CHL1    C8 1050   1.779   3.280   9.680 -0.0251 -0.1851 -0.4018
   15CHL1    H8 1051   1.690   3.342   9.655 -1.1146 -1.5545  0.0081
   15CHL1   C14 1052   1.854   3.229   9.557 -0.3001  0.2650 -0.1793
   15CHL1   H14 1053   1.932   3.162   9.599 -1.3457  0.3056  2.0112
   15CHL1   C15 1054   1.910   3.341   9.468 -0.1445 -0.3944  0.6524
   15CHL1  H15A 1055   1.839   3.417   9.429  1.2852  0.8701  0.4332
   15CHL1  H15B 1056   1.994   3.395   9.518  0.5703 -2.5961  1.9837
   15CHL1   C16 1057   1.955   3.258   9.346  0.2800  0.1236  0.1427
   15CHL1  H16A 1058   1.919   3.310   9.255  0.0819 -1.0256 -0.4555
   15CHL1  H16B 1059   2.066   3.269   9.342  0.3675 -0.7756 -0.1414
   15CHL1   C17 1060   1.884   3.115   9.351 -0.1741 -0.3674  0.9722
   15CHL1   H17 1061   1.955   3.054   9.412  0.4252 -1.0998 -0.4144
   15CHL1   C13 1062   1.772   3.138   9.461  0.5178 -0.6460  0.4181
   15CHL1   C18 1063   1.651   3.211   9.403 -0.6495  1.0488  0.1641
   15CHL1  H18A 1064   1.574   3.238   9.479 -1.0603  1.3351 -0.3529
   15CHL1  H18B 1065   1.683   3.305   9.354  0.6921  0.8496  0.5990
   15CHL1  H18C 1066   1.600   3.149   9.327  1.5404  0.4835 -0.9148
   15CHL1   C12 1067   1.733   3.014   9.538  0.1293  0.0558 -0.2136
   15CHL1  H12A 1068   1.656   2.955   9.483 -0.7885  1.6927 -0.7600
   15CHL1  H12B 1069   1.816   2.945   9.563  1.4611  1.2828 -1.0954
   15CHL1   C11 1070   1.659   3.054   9.672  0.1334 -0.0270  0.0468
   15CHL1  H11A 1071   1.553   3.079   9.649  0.8668  0.3360 -3.3715
   15CHL1  H11B 1072   1.655   2.961   9.733  0.4002 -0.2180 -0.2234
   15CHL1    C9 1073   1.726   3.164   9.761 -0.0654  0.6265  0.3736
   15CHL1    H9 1074   1.810   3.110   9.810 -0.6559  0.4185  1.1852
   15CHL1   C10 1075   1.644   3.214   9.883  0.4047 -0.1228 -0.2397
   15CHL1   C19 1076   1.506   3.264   9.841 -0.9073 -0.3118 -0.4735
   15CHL1  H19A 1077   1.444   3.177   9.811 -0.5786 -0.5375 -0.5041
   15CHL1  H19B 1078   1.458   3.304   9.933  0.7659 -0.7284  0.6242
   15CHL1  H19C 1079   1.509   3.333   9.754  0.0425 -0.4716 -0.5772
   15CHL1    C1 1080   1.625   3.096   9.983  0.2914  0.0917  0.3922
   15CHL1   H1A 1081   1.564   3.017   9.933 -0.5028  0.4342  0.8049
   15CHL1   H1B 1082   1.725   3.049   9.999  0.8076  1.4423  1.3345
   15CHL1    C2 1083   1.568   3.133  10.126 -0.1427  0.3413  0.1129
   15CHL1   H2A 1084   1.583   3.048  10.196 -0.6531 -1.5236 -1.9453
   15CHL1   H2B 1085   1.459   3.154  10.120 -0.5710 -1.1215  1.9115
   15CHL1   C20 1086   1.845   3.045   9.214 -0.9176  0.3526  0.0325
   15CHL1   H20 1087   1.754   3.097   9.178  0.0314  0.6063 -2.1644
   15CHL1   C21 1088   1.816   2.894   9.246  0.0811 -0.3770  0.3076
   15CHL1  H21A 1089   1.825   2.835   9.153 -1.9705  0.3265 -0.3817
   15CHL1  H21B 1090   1.710   2.893   9.279 -0.6003  0.9075 -1.7178
   15CHL1  H21C 1091   1.883   2.848   9.322  2.0296 -4.5493 -3.4800
   15CHL1   C22 1092   1.952   3.057   9.104 -0.8116 -0.6601  0.2295
   15CHL1  H22A 1093   1.916   2.988   9.024  3.0777 -1.9121 -0.7076
   15CHL1  H22B 1094   1.965   3.157   9.059 -0.3643 -0.0163  1.7288
   15CHL1   C23 1095   2.090   3.009   9.156  0.5317 -0.3152  0.0829
   15CHL1  H23A 1096   2.126   3.078   9.236 -1.9150 -0.4978  1.4312
   15CHL1  H23B 1097   2.084   2.906   9.198  0.8536 -0.0666  0.7629
   15CHL1   C24 1098   2.195   2.999   9.047  0.0023  0.0591 -0.6597
   15CHL1  H24A 1099   2.282   2.958   9.103 -1.3576 -0.7278  0.9460
   15CHL1  H24B 1100   2.166   2.926   8.968  0.5066 -1.1541  0.2542
   15CHL1   C25 1101   2.235   3.117   8.962  0.4189  0.5023 -0.3429
   15CHL1   H25 1102   2.145   3.176   8.935  0.3246 -0.4064 -2.1379
   15CHL1   C26 1103   2.343   3.207   9.027 -0.2922 -0.7088  0.5704
   15CHL1  H26A 1104   2.300   3.264   9.112  1.6407  2.0630 -0.1607
   15CHL1  H26B 1105   2.425   3.137   9.057 -1.8363 -2.6190  0.4858
   15CHL1  H26C 1106   2.384   3.280   8.955 -2.4657  0.5824  0.5769
   15CHL1   C27 1107   2.288   3.049   8.833 -0.2669 -0.4000  0.5277
   15CHL1  H27A 1108   2.342   3.130   8.780  2.5939 -1.1173  2.1581
   15CHL1  H27B 1109   2.374   2.981   8.853 -0.3653 -1.3379 -1.9306
   15CHL1  H27C 1110   2.207   2.997   8.776  0.5187 -0.5862 -0.4482
   16CHL1    C3 1111   2.545   3.915  10.451  0.0513 -0.3739 -0.2654
   16CHL1    H3 1112   2.544   4.025  10.435 -2.8745  0.1033  2.3311
   16CHL1    O3 1113   2.506   3.898  10.580  0.5422 -0.8242  0.4505
   16CHL1   H3' 1114   2.473   3.808  10.585  0.1938 -0.9390 -2.3373
   16CHL1    C4 1115   2.459   3.846  10.356  0.3149 -0.6403  0.0774
   16CHL1   H4A 1116   2.462   3.740  10.390  0.5056 -0.7512 -0.2782
   16CHL1   H4B 1117   2.354   3.878  10.373  0.7558 -0.2065  2.3088
   16CHL1    C5 1118   2.495   3.859  10.213 -0.7069 -0.3707 -0.0780
   16CHL1    C6 1119   2.416   3.916  10.120  0.3046  0.2989 -0.1302
   16CHL1    H6 1120   2.320   3.958  10.154  1.3534  1.0920  2.0198
   16CHL1    C7 1121   2.457   3.947   9.981  0.0934  0.5169  0.2043
   16CHL1   H7A 1122   2.370   3.919   9.917 -0.4230 -1.3007  1.6150
   16CHL1   H7B 1123   2.481   4.055   9.975 -1.4436  0.8849  0.1597
   16CHL1    C8 1124   2.574   3.857   9.939  0.6897  0.0956 -0.0661
   16CHL1    H8 1125   2.534   3.754   9.930 -2.4424  1.3146 -1.5173
   16CHL1   C14 1126   2.626   3.899   9.803 -0.5828 -0.0687  0.2123
   16CHL1   H14 1127   2.670   4.000   9.815  1.3719 -0.8729  0.1580
   16CHL1   C15 1128   2.524   3.900   9.688 -0.0182  0.3401 -0.1056
   16CHL1  H15A 1129   2.463   3.807   9.683  1.3565 -0.6635  0.9700
   16CHL1  H15B 1130   2.458   3.989   9.682  1.1867  1.1635 -2.2163
   16CHL1   C16 1131   2.611   3.909   9.563 -0.0153  0.5391  0.3408
   16CHL1  H16A 1132   2.585   3.833   9.487 -0.8525  0.8177  0.3459
   16CHL1  H16B 1133   2.603   4.008   9.512  0.4279  0.3679 -0.0747
   16CHL1   C17 1134   2.760   3.878   9.603 -0.0627 -0.0860 -0.2576
   16CHL1   H17 1135   2.813   3.976   9.602  0.4152 -0.3113 -2.0242
   16CHL1   C13 1136   2.742   3.818   9.741  0.4845  1.0417 -0.7005
   16CHL1   C18 1137   2.704   3.664   9.735  0.5315 -0.2149  0.7614
   16CHL1  H18A 1138   2.798   3.605   9.725  1.2852  1.2416 -1.9370
   16CHL1  H18B 1139   2.639   3.623   9.815 -0.6993 -0.1651 -0.1865
   16CHL1  H18C 1140   2.648   3.644   9.641 -1.2378 -0.7083  1.8868
   16CHL1   C12 1141   2.850   3.836   9.849 -0.1558 -0.2704  0.4878
   16CHL1  H12A 1142   2.939   3.774   9.826 -0.1873 -0.8014  1.7201
   16CHL1  H12B 1143   2.888   3.938   9.869  1.0298 -0.6470  0.2047
   16CHL1   C11 1144   2.806   3.779   9.991  0.2943 -0.5135 -0.1503
   16CHL1  H11A 1145   2.781   3.671   9.979 -1.2672 -0.1293 -0.5127
   16CHL1  H11B 1146   2.899   3.797  10.049  0.6403  1.0599 -1.1192
   16CHL1    C9 1147   2.690   3.857  10.053 -0.4360  0.6464 -0.0037
   16CHL1    H9 1148   2.723   3.963  10.064 -1.2353  1.0043 -0.8833
   16CHL1   C10 1149   2.643   3.813  10.189 -0.0392  0.0269  0.2645
   16CHL1   C19 1150   2.636   3.654  10.196 -0.0533 -0.5700 -0.0720
   16CHL1  H19A 1151   2.741   3.623  10.217 -0.5355 -2.2147  0.0155
   16CHL1  H19B 1152   2.589   3.635  10.294 -0.4374  1.8228  0.2775
   16CHL1  H19C 1153   2.592   3.602  10.108 -0.7093 -1.8909  0.9974
   16CHL1    C1 1154   2.737   3.858  10.301  0.1856  0.4778 -0.1376
   16CHL1   H1A 1155   2.827   3.792  10.291 -0.1533 -0.1619  0.8566
   16CHL1   H1B 1156   2.779   3.959  10.281  1.3277 -0.3642 -2.3060
   16CHL1    C2 1157   2.684   3.858  10.442  0.0575 -0.0920 -0.2360
   16CHL1   H2A 1158   2.744   3.914  10.517 -0.1076  0.2805 -0.3815
   16CHL1   H2B 1159   2.694   3.757  10.487  0.2247 -0.3802 -0.9027
   16CHL1   C20 1160   2.833   3.803   9.497 -0.1887  0.5381  0.0437
   16CHL1   H20 1161   2.786   3.703   9.483  0.4418  0.2458  0.0099
   16CHL1   C21 1162   2.987   3.778   9.530  0.7970 -0.1550 -0.0478
   16CHL1  H21A 1163   3.014   3.743   9.632  1.3057  1.3652  0.3780
   16CHL1  H21B 1164   3.032   3.879   9.514  0.3563  0.4252  2.0574
   16CHL1  H21C 1165   3.043   3.718   9.455  0.4349 -1.4077  0.6533
   16CHL1   C22 1166   2.836   3.863   9.359 -0.1995  0.0546  0.5565
   16CHL1  H22A 1167   2.742   3.913   9.328 -0.4955 -1.5399 -1.3632
   16CHL1  H22B 1168   2.916   3.941   9.362 -1.1547  1.0377  1.1856
   16CHL1   C23 1169   2.872   3.770   9.241 -0.0414  0.3659  0.0871
   16CHL1  H23A 1170   2.969   3.721   9.260 -1.5567 -3.2930 -0.8363
   16CHL1  H23B 1171   2.795   3.690   9.235 -0.2084  0.5652 -0.4332
   16CHL1   C24 1172   2.878   3.839   9.103 -0.2136 -0.2534 -0.0721
   16CHL1  H24A 1173   2.950   3.922   9.119  0.3735 -1.0298  1.4492
   16CHL1  H24B 1174   2.921   3.782   9.019  0.5495 -0.6242  0.5581
   16CHL1   C25 1175   2.738   3.893   9.056  0.6154 -0.3118 -0.3031
   16CHL1   H25 1176   2.694   3.964   9.129  0.6548  0.5737 -1.1258
   16CHL1   C26 1177   2.750   3.960   8.912  0.3555  0.0452  0.3650
   16CHL1  H26A 1178   2.827   4.038   8.926  0.4200 -0.0394  0.4872
   16CHL1  H26B 1179   2.804   3.902   8.835 -1.0683 -0.1120 -0.5463
   16CHL1  H26C 1180   2.661   4.008   8.865  0.1216  0.6874  1.4276
   16CHL1   C27 1181   2.640   3.773   9.050  0.1979 -0.3517  0.3683
   16CHL1  H27A 1182   2.697   3.690   9.003 -2.0379 -0.3121 -2.7567
   16CHL1  H27B 1183   2.603   3.745   9.151 -0.2880  1.7581  0.8387
   16CHL1  H27C 1184   2.557   3.805   8.983  2.0223  3.2593 -0.4518
   17CHL1    C3 1185   5.301   0.326  10.301  0.5781  0.0158 -0.0597
   17CHL1    H3 1186   5.334   0.222  10.280 -0.9955 -0.5214  0.0125
   17CHL1    O3 1187   5.195   0.321  10.396 -0.3723  0.0310 -0.3024
   17CHL1   H3' 1188   5.168   0.412  10.414 -3.4150 -0.6454 -0.8578
   17CHL1    C4 1189   5.416   0.406  10.349  0.0520 -0.1588 -0.4609
   17CHL1   H4A 1190   5.370   0.504  10.373  0.4123  0.0287 -0.5268
   17CHL1   H4B 1191   5.450   0.360  10.444  0.9783 -0.1949 -0.7916
   17CHL1    C5 1192   5.526   0.417  10.241  0.9198  0.0302  0.2282
   17CHL1    C6 1193   5.655   0.365  10.266  0.1943 -0.2047  1.2826
   17CHL1    H6 1194   5.688   0.322  10.362 -0.0754 -3.1004  0.1676
   17CHL1    C7 1195   5.768   0.376  10.162  0.3647 -1.1570 -0.2361
   17CHL1   H7A 1196   5.842   0.449  10.201  0.1294 -1.0907  0.0935
   17CHL1   H7B 1197   5.815   0.279  10.139 -0.9169 -1.3333 -2.3557
   17CHL1    C8 1198   5.731   0.459  10.037  0.8257 -0.6154  0.2378
   17CHL1    H8 1199   5.735   0.567  10.063 -0.5280  0.0310 -1.9646
   17CHL1   C14 1200   5.829   0.430   9.926 -0.4905  0.6147 -0.3996
   17CHL1   H14 1201   5.821   0.324   9.894  0.3396  1.2430 -2.9406
   17CHL1   C15 1202   5.983   0.447   9.952  0.6751  0.1437 -0.6569
   17CHL1  H15A 1203   5.998   0.541  10.009 -0.0456  0.4073 -0.8927
   17CHL1  H15B 1204   6.031   0.374  10.021 -1.1915 -0.5610 -0.0485
   17CHL1   C16 1205   6.041   0.459   9.812  0.5058 -0.1351 -0.3440
   17CHL1  H16A 1206   6.108   0.548   9.801  0.1718  0.4600  1.8691
   17CHL1  H16B 1207   6.104   0.371   9.789 -2.3362 -2.0784 -1.0841
   17CHL1   C17 1208   5.925   0.459   9.715 -0.5021  0.2742  0.0456
   17CHL1   H17 1209   5.898   0.356   9.683  0.2915  0.0490  0.0761
   17CHL1   C13 1210   5.800   0.506   9.798 -0.1918 -0.2748  0.6476
   17CHL1   C18 1211   5.810   0.661   9.819 -0.0401 -0.5571  0.0227
   17CHL1  H18A 1212   5.798   0.723   9.728  0.5291  0.5143  0.6637
   17CHL1  H18B 1213   5.724   0.687   9.884 -0.8624 -1.1455 -0.8129
   17CHL1  H18C 1214   5.900   0.694   9.876  0.5134 -1.2862 -0.4179
   17CHL1   C12 1215   5.662   0.458   9.745 -0.4739  0.2397 -0.1843
   17CHL1  H12A 1216   5.635   0.508   9.649 -2.3843 -1.4247 -0.6075
   17CHL1  H12B 1217   5.667   0.350   9.716  0.9241  0.4272 -0.7117
   17CHL1   C11 1218   5.552   0.477   9.847 -0.0616 -0.0784 -0.2673
   17CHL1  H11A 1219   5.525   0.584   9.860  1.7140  0.4965 -0.8803
   17CHL1  H11B 1220   5.462   0.425   9.811 -2.1191  2.5655  0.6827
   17CHL1    C9 1221   5.586   0.437   9.997 -0.1971  0.1436 -0.3102
   17CHL1    H9 1222   5.595   0.326   9.986 -1.2339  0.0124 -0.0235
   17CHL1   C10 1223   5.477   0.462  10.104 -0.4924 -0.1293 -0.0180
   17CHL1   C19 1224   5.450   0.611  10.098  0.9048  0.8797  0.1894
   17CHL1  H19A 1225   5.387   0.628  10.008 -0.4840  0.1804  1.0174
   17CHL1  H19B 1226   5.383   0.631  10.184 -0.5636  0.0832 -0.7336
   17CHL1  H19C 1227   5.549   0.664  10.100  1.7425 -0.6727  1.7066
   17CHL1    C1 1228   5.357   0.381  10.067 -0.2650 -0.3406  0.3636
   17CHL1   H1A 1229   5.310   0.433   9.980  0.6102  0.4991  0.3786
   17CHL1   H1B 1230   5.376   0.279  10.027  1.3568 -0.0195  0.2748
   17CHL1    C2 1231   5.241   0.374  10.163 -0.2778  0.4417 -0.5045
   17CHL1   H2A 1232   5.161   0.305  10.129 -1.5897  2.6092 -2.0424
   17CHL1   H2B 1233   5.196   0.475  10.170 -0.1387  0.5889 -1.5711
   17CHL1   C20 1234   5.971   0.518   9.583 -0.2731  0.6059  0.2049
   17CHL1   H20 1235   6.014   0.619   9.600  1.4021  0.3866 -2.1944
   17CHL1   C21 1236   5.853   0.540   9.498 -0.2968 -0.3609  0.1138
   17CHL1  H21A 1237   5.887   0.595   9.408 -2.1852  0.1465 -0.3446
   17CHL1  H21B 1238   5.781   0.604   9.554  0.3021 -0.6976  1.2945
   17CHL1  H21C 1239   5.813   0.444   9.458 -2.8317  0.6808 -0.0813
   17CHL1   C22 1240   6.082   0.440   9.510 -0.2032 -0.2795 -0.6044
   17CHL1  H22A 1241   6.158   0.414   9.587 -0.1242  1.8105  0.0765
   17CHL1  H22B 1242   6.048   0.348   9.457  2.0051 -0.0397 -2.5774
   17CHL1   C23 1243   6.159   0.528   9.399  0.2215 -0.0212 -0.2880
   17CHL1  H23A 1244   6.089   0.557   9.318  1.5821  0.0566 -1.4638
   17CHL1  H23B 1245   6.192   0.613   9.462  2.1487 -3.5710  4.0664
   17CHL1   C24 1246   6.287   0.459   9.349 -0.2260 -0.5887  0.7076
   17CHL1  H24A 1247   6.351   0.542   9.313  0.8351 -0.5827  2.4939
   17CHL1  H24B 1248   6.337   0.410   9.435  0.0544  0.1843  0.9930
   17CHL1   C25 1249   6.259   0.360   9.236 -0.3342  0.4251 -0.7922
   17CHL1   H25 1250   6.173   0.297   9.269  0.4046  0.2111  0.8269
   17CHL1   C26 1251   6.216   0.431   9.108 -0.2466  0.2139  0.1201
   17CHL1  H26A 1252   6.199   0.359   9.025 -2.0367  2.2952 -1.4400
   17CHL1  H26B 1253   6.117   0.480   9.114 -0.4682 -0.3907  1.9715
   17CHL1  H26C 1254   6.296   0.504   9.080  0.1335  0.1855  1.0891
   17CHL1   C27 1255   6.381   0.272   9.210 -0.5675  0.0005 -0.1327
   17CHL1  H27A 1256   6.362   0.199   9.129 -1.2401 -1.6043  1.3917
   17CHL1  H27B 1257   6.472   0.324   9.174  0.1166 -2.2775 -1.9797
   17CHL1  H27C 1258   6.402   0.221   9.307 -1.9042  1.0617  0.7583
   18CHL1    C3 1259   4.224   0.502  10.179  0.2863 -0.0127 -0.1483
   18CHL1    H3 1260   4.147   0.422  10.187  0.6622 -0.4896 -1.1140
   18CHL1    O3 1261   4.265   0.518  10.311 -0.0946 -0.0776  0.0823
   18CHL1   H3' 1262   4.250   0.612  10.324  0.9201  0.3639 -1.5448
   18CHL1    C4 1263   4.335   0.451  10.088 -1.1111 -0.1975 -0.2549
   18CHL1   H4A 1264   4.417   0.526  10.087 -0.7083 -0.5430 -3.5627
   18CHL1   H4B 1265   4.383   0.358  10.124  0.1870  0.9039  0.9937
   18CHL1    C5 1266   4.281   0.431   9.946 -0.5745  0.3036 -0.4038
   18CHL1    C6 1267   4.288   0.315   9.889 -0.2326  0.2861  0.1033
   18CHL1    H6 1268   4.347   0.236   9.938 -2.3680 -0.8113  1.0769
   18CHL1    C7 1269   4.241   0.293   9.749 -0.8000 -0.0898 -0.5596
   18CHL1   H7A 1270   4.309   0.218   9.704 -0.7490 -1.0856  1.0791
   18CHL1   H7B 1271   4.144   0.240   9.745 -0.5522 -0.5264 -0.8519
   18CHL1    C8 1272   4.257   0.417   9.661 -0.0365 -0.1973  0.2884
   18CHL1    H8 1273   4.363   0.448   9.652  0.7773 -3.0081 -0.8659
   18CHL1   C14 1274   4.198   0.396   9.519 -0.6072 -0.3885 -0.0529
   18CHL1   H14 1275   4.091   0.368   9.530 -0.3833 -0.8682  1.1132
   18CHL1   C15 1276   4.253   0.281   9.429 -0.2399 -0.0327  0.2250
   18CHL1  H15A 1277   4.364   0.279   9.440 -0.0129  1.9898 -1.1434
   18CHL1  H15B 1278   4.209   0.195   9.483 -2.4902  2.3900  2.5821
   18CHL1   C16 1279   4.205   0.313   9.293  0.2064 -0.0246  0.6430
   18CHL1  H16A 1280   4.277   0.308   9.209 -2.4097 -1.0119 -1.7272
   18CHL1  H16B 1281   4.132   0.236   9.258 -1.3834  1.2872  0.9294
   18CHL1   C17 1282   4.137   0.452   9.298 -0.3630 -0.3096  0.2875
   18CHL1   H17 1283   4.031   0.428   9.322 -0.0636 -2.4344 -0.3131
   18CHL1   C13 1284   4.190   0.519   9.426 -0.2050  0.3035  0.1390
   18CHL1   C18 1285   4.330   0.578   9.400 -0.5038  0.3808  0.2444
   18CHL1  H18A 1286   4.369   0.604   9.501 -1.9813  0.8985  0.6982
   18CHL1  H18B 1287   4.393   0.500   9.350 -1.0805  0.3896 -0.5162
   18CHL1  H18C 1288   4.324   0.661   9.327  0.7152  0.1488 -0.1373
   18CHL1   C12 1289   4.097   0.609   9.496  0.1756  0.7401 -0.3549
   18CHL1  H12A 1290   4.089   0.701   9.434  0.2723 -0.3214 -1.9980
   18CHL1  H12B 1291   3.993   0.573   9.512  0.3074  0.0624 -0.9865
   18CHL1   C11 1292   4.149   0.647   9.635 -0.8026  0.5797 -1.0522
   18CHL1  H11A 1293   4.241   0.708   9.622  0.3797 -0.8564  0.2591
   18CHL1  H11B 1294   4.074   0.717   9.679  0.6612  0.2079  2.3334
   18CHL1    C9 1295   4.170   0.521   9.736  0.5276  0.0803 -0.4619
   18CHL1    H9 1296   4.071   0.473   9.747 -0.0478  1.5260  1.1558
   18CHL1   C10 1297   4.225   0.555   9.879  0.3216  0.9400  0.1824
   18CHL1   C19 1298   4.333   0.655   9.858 -0.2227 -0.0007  0.4784
   18CHL1  H19A 1299   4.297   0.752   9.816  0.8525 -0.7294 -2.3291
   18CHL1  H19B 1300   4.382   0.682   9.954 -1.3371  0.4128  0.9471
   18CHL1  H19C 1301   4.412   0.625   9.786 -1.2163 -2.2484  0.2540
   18CHL1    C1 1302   4.126   0.614   9.971 -0.1665  0.1366  0.3898
   18CHL1   H1A 1303   4.082   0.706   9.927 -3.3132 -1.5056 -0.2357
   18CHL1   H1B 1304   4.043   0.541   9.983  0.7898 -1.0542 -0.0408
   18CHL1    C2 1305   4.163   0.634  10.121  0.4700 -0.1538 -0.0781
   18CHL1   H2A 1306   4.072   0.654  10.181  1.8186  1.0002  1.6552
   18CHL1   H2B 1307   4.235   0.718  10.128  0.3881 -0.1533  0.8113
   18CHL1   C20 1308   4.125   0.522   9.166  0.2773  0.7114  0.1532
   18CHL1   H20 1309   4.217   0.525   9.105 -0.4108 -0.3527 -0.9594
   18CHL1   C21 1310   4.045   0.654   9.184 -0.0194 -0.5553 -0.4495
   18CHL1  H21A 1311   4.019   0.709   9.091 -1.2785 -1.7508 -0.8334
   18CHL1  H21B 1312   4.116   0.722   9.237 -0.0386 -1.8509  1.3380
   18CHL1  H21C 1313   3.952   0.652   9.244 -0.5367  0.8559 -1.1411
   18CHL1   C22 1314   4.036   0.430   9.081 -0.0315  0.7832  0.0567
   18CHL1  H22A 1315   4.087   0.332   9.072  2.5399  1.5896  3.5344
   18CHL1  H22B 1316   3.945   0.414   9.142  2.4068  1.5587  4.3112
   18CHL1   C23 1317   4.010   0.471   8.938 -0.3481  0.1471  0.2514
   18CHL1  H23A 1318   3.951   0.565   8.941 -2.5658 -1.2128  1.7076
   18CHL1  H23B 1319   4.103   0.500   8.885  0.2104  0.5074  1.3835
   18CHL1   C24 1320   3.958   0.350   8.855  0.5761 -0.1193  1.5050
   18CHL1  H24A 1321   4.017   0.258   8.877  0.0067 -0.4678  1.5974
   18CHL1  H24B 1322   3.855   0.325   8.889  0.2006 -1.6979 -0.5645
   18CHL1   C25 1323   3.944   0.383   8.703 -0.0300 -0.1218 -0.2137
   18CHL1   H25 1324   4.039   0.409   8.651 -0.7117  0.0881 -1.3879
   18CHL1   C26 1325   3.895   0.260   8.626  0.3844 -0.3688 -0.0109
   18CHL1  H26A 1326   3.881   0.283   8.518  0.0942 -1.7877 -0.2882
   18CHL1  H26B 1327   3.963   0.173   8.626  0.8725 -0.0181  1.4612
   18CHL1  H26C 1328   3.798   0.226   8.669  0.9128 -1.5779  0.2577
   18CHL1   C27 1329   3.850   0.503   8.674 -0.2201 -0.5898  0.3522
   18CHL1  H27A 1330   3.889   0.599   8.713 -0.8434 -0.6538  1.1686
   18CHL1  H27B 1331   3.835   0.495   8.565  3.8601  0.4675 -0.4382
   18CHL1  H27C 1332   3.748   0.492   8.717 -1.1238  1.2259 -1.1812
   19CHL1    C3 1333   1.070   2.552  10.253 -0.0811 -0.0312 -0.0680
   19CHL1    H3 1334   1.010   2.637  10.215 -0.2857 -0.0611  0.1822
   19CHL1    O3 1335   1.099   2.573  10.390  0.4297  0.3832  0.4144
   19CHL1   H3' 1336   1.024   2.533  10.436 -0.0628  2.0347  1.1218
   19CHL1    C4 1337   1.001   2.421  10.229  0.0428 -0.0477 -0.1603
   19CHL1   H4A 1338   1.050   2.340  10.288 -0.1618  0.1178  0.2390
   19CHL1   H4B 1339   0.899   2.431  10.271  0.2865 -0.8389  0.6471
   19CHL1    C5 1340   0.987   2.378  10.083 -0.3604 -0.0882  0.0618
   19CHL1    C6 1341   0.869   2.345  10.020 -0.0152  0.7922  0.0532
   19CHL1    H6 1342   0.784   2.341  10.090  1.7882  0.1838  2.3371
   19CHL1    C7 1343   0.867   2.302   9.873  0.3157 -0.3270 -0.1710
   19CHL1   H7A 1344   0.827   2.199   9.874 -0.9390  0.1396 -0.3396
   19CHL1   H7B 1345   0.807   2.372   9.811 -0.2552  0.0395  0.7714
   19CHL1    C8 1346   1.012   2.289   9.809  0.3558 -0.5025  0.2448
   19CHL1    H8 1347   1.055   2.192   9.841  1.6111  0.0677  0.3554
   19CHL1   C14 1348   0.995   2.286   9.658 -0.1304  0.0556  0.2597
   19CHL1   H14 1349   0.952   2.383   9.625 -0.1190 -0.2285 -0.6217
   19CHL1   C15 1350   0.897   2.185   9.591 -0.4860  0.8304  0.1247
   19CHL1  H15A 1351   0.909   2.084   9.636  1.1383  1.1619  0.5110
   19CHL1  H15B 1352   0.794   2.226   9.590  1.2432  5.7902 -1.5470
   19CHL1   C16 1353   0.941   2.186   9.443 -0.6380 -0.9449 -0.0930
   19CHL1  H16A 1354   0.974   2.085   9.410  0.4553 -0.1341 -1.5787
   19CHL1  H16B 1355   0.856   2.199   9.373  1.4058 -1.4915 -2.8117
   19CHL1   C17 1356   1.058   2.291   9.435 -0.4892 -0.0588 -0.1982
   19CHL1   H17 1357   1.012   2.392   9.424  0.3339  0.2258 -1.2232
   19CHL1   C13 1358   1.123   2.279   9.574 -0.5790  0.6544  0.5064
   19CHL1   C18 1359   1.194   2.144   9.579 -0.7961 -0.0699 -0.2237
   19CHL1  H18A 1360   1.250   2.126   9.673 -1.0845 -2.0354 -0.3899
   19CHL1  H18B 1361   1.129   2.055   9.569 -0.0180 -0.5902 -0.7631
   19CHL1  H18C 1362   1.264   2.129   9.494 -2.0075 -1.0431 -1.0812
   19CHL1   C12 1363   1.210   2.399   9.617  0.6205 -0.4564  0.0790
   19CHL1  H12A 1364   1.308   2.409   9.564  0.0916 -1.2167 -1.0747
   19CHL1  H12B 1365   1.150   2.490   9.595  1.7354 -0.3802 -3.3461
   19CHL1   C11 1366   1.238   2.391   9.771  0.4386  0.4166 -0.1760
   19CHL1  H11A 1367   1.304   2.303   9.792 -1.5686 -1.1020  0.0921
   19CHL1  H11B 1368   1.297   2.481   9.800  0.7441  0.6011 -1.3315
   19CHL1    C9 1369   1.105   2.401   9.853 -0.0501  0.8976 -0.1236
   19CHL1    H9 1370   1.058   2.499   9.830  1.9147  1.5847 -1.5556
   19CHL1   C10 1371   1.123   2.395  10.006 -0.4554  0.1253  0.3065
   19CHL1   C19 1372   1.218   2.273  10.045  0.0249 -1.1500  0.5580
   19CHL1  H19A 1373   1.201   2.249  10.152 -0.8460 -3.4406 -0.0420
   19CHL1  H19B 1374   1.202   2.185   9.979  0.4210 -1.9452  1.4983
   19CHL1  H19C 1375   1.319   2.315  10.031 -1.1441  2.4343  1.8222
   19CHL1    C1 1376   1.192   2.532  10.040  0.2046 -0.7964 -0.2120
   19CHL1   H1A 1377   1.297   2.541  10.007  0.8841 -0.6919  1.8166
   19CHL1   H1B 1378   1.130   2.611   9.991 -0.0396 -0.8040  0.0781
   19CHL1    C2 1379   1.203   2.557  10.190  0.4994  0.1842  0.0306
   19CHL1   H2A 1380   1.248   2.658  10.202  1.3818  0.1127 -2.1579
   19CHL1   H2B 1381   1.273   2.488  10.242  0.9165  0.6204  0.0616
   19CHL1   C20 1382   1.145   2.261   9.309 -0.2931  0.3059  0.3007
   19CHL1   H20 1383   1.189   2.159   9.302 -0.0742  0.4737 -1.1685
   19CHL1   C21 1384   1.261   2.367   9.298  0.3296  0.2339  0.9093
   19CHL1  H21A 1385   1.234   2.474   9.312  1.6557  0.3887  2.6264
   19CHL1  H21B 1386   1.311   2.380   9.199 -0.3548 -1.0112  0.3790
   19CHL1  H21C 1387   1.341   2.338   9.369  0.6065  1.0566  0.9539
   19CHL1   C22 1388   1.059   2.258   9.178 -0.3890 -0.2813 -0.3704
   19CHL1  H22A 1389   0.974   2.188   9.191 -1.1713  0.8826  1.0110
   19CHL1  H22B 1390   1.018   2.361   9.170  2.1751  0.9473  1.0510
   19CHL1   C23 1391   1.142   2.209   9.059 -0.4229  0.1978 -0.3336
   19CHL1  H23A 1392   1.216   2.286   9.027  2.3983 -1.2593  2.2298
   19CHL1  H23B 1393   1.201   2.121   9.089  1.0617  0.5389 -2.0960
   19CHL1   C24 1394   1.057   2.167   8.938 -0.9255  0.6769  0.3498
   19CHL1  H24A 1395   1.000   2.080   8.976  0.8195 -1.0977 -0.9242
   19CHL1  H24B 1396   0.981   2.241   8.903  0.1474  0.5277 -2.5575
   19CHL1   C25 1397   1.134   2.137   8.814  0.3442 -0.4529  0.6951
   19CHL1   H25 1398   1.231   2.087   8.837  0.9679  0.7916  0.8228
   19CHL1   C26 1399   1.053   2.053   8.712 -0.5862 -0.1219 -0.2980
   19CHL1  H26A 1400   0.958   2.108   8.694 -0.5284 -0.1050 -0.5537
   19CHL1  H26B 1401   1.100   2.045   8.612  1.0601  0.1870  0.4220
   19CHL1  H26C 1402   1.032   1.946   8.735  1.5167 -0.2959  1.0319
   19CHL1   C27 1403   1.174   2.268   8.741 -0.0025 -0.4857 -0.3935
   19CHL1  H27A 1404   1.081   2.324   8.719  0.2208  1.1835  2.3282
   19CHL1  H27B 1405   1.240   2.336   8.800 -0.0867  1.0120 -1.9505
   19CHL1  H27C 1406   1.231   2.258   8.646  0.5392  0.2529 -0.1569
   20CHL1    C3 1407   4.698   3.777  10.509  0.8542 -0.5350  0.0508
   20CHL1    H3 1408   4.777   3.700  10.496 -1.0208 -2.3260 -1.3816
   20CHL1    O3 1409   4.685   3.801  10.645 -0.4279  0.2104  0.0413
   20CHL1   H3' 1410   4.772   3.799  10.687 -0.9867 -1.0625  1.2431
   20CHL1    C4 1411   4.744   3.909  10.444  0.0595  0.5787  0.6044
   20CHL1   H4A 1412   4.673   3.990  10.469  0.2691  0.6309  1.0537
   20CHL1   H4B 1413   4.842   3.936  10.490 -0.2406  2.1114  0.3855
   20CHL1    C5 1414   4.755   3.891  10.293  0.2484 -0.6865 -0.0451
   20CHL1    C6 1415   4.867   3.914  10.222  0.1227 -0.3923 -1.1198
   20CHL1    H6 1416   4.949   3.962  10.279 -0.7980 -1.2790  1.0769
   20CHL1    C7 1417   4.896   3.887  10.082  0.3321 -0.0631 -0.3051
   20CHL1   H7A 1418   4.940   3.986  10.057  0.8770 -0.3504 -0.4860
   20CHL1   H7B 1419   4.979   3.814  10.069  0.1996 -0.2567 -0.0849
   20CHL1    C8 1420   4.771   3.857   9.999  0.1246 -0.9584 -0.5634
   20CHL1    H8 1421   4.728   3.958   9.981  1.4989 -0.5030 -1.5423
   20CHL1   C14 1422   4.805   3.792   9.866 -0.0163 -0.5977 -0.1268
   20CHL1   H14 1423   4.838   3.689   9.888 -0.2576 -1.0730 -1.8048
   20CHL1   C15 1424   4.926   3.850   9.783  0.2695 -0.2338  0.9255
   20CHL1  H15A 1425   4.933   3.959   9.802 -0.5543  0.0033 -0.0521
   20CHL1  H15B 1426   5.026   3.809   9.807  0.5726 -0.0714 -0.0298
   20CHL1   C16 1427   4.889   3.812   9.637  0.0280 -0.2930  0.7138
   20CHL1  H16A 1428   4.868   3.904   9.578 -1.1543  0.2178  1.8606
   20CHL1  H16B 1429   4.956   3.745   9.581  1.4250  0.3523  1.5602
   20CHL1   C17 1430   4.751   3.738   9.639 -0.1704  0.3234 -0.3299
   20CHL1   H17 1431   4.788   3.634   9.638 -0.3603  0.2448 -2.1703
   20CHL1   C13 1432   4.682   3.778   9.780 -0.1927  0.5129 -0.1062
   20CHL1   C18 1433   4.621   3.917   9.751 -0.2589  0.3641 -0.2478
   20CHL1  H18A 1434   4.583   3.969   9.842 -1.1532 -2.3109  1.0012
   20CHL1  H18B 1435   4.686   3.987   9.693  0.9202 -0.2633  0.3013
   20CHL1  H18C 1436   4.529   3.889   9.695 -0.4428 -0.5390  0.4867
   20CHL1   C12 1437   4.598   3.670   9.860 -0.2386 -0.7518 -0.2540
   20CHL1  H12A 1438   4.503   3.646   9.808  0.0457 -1.5211 -0.4334
   20CHL1  H12B 1439   4.651   3.572   9.861  0.1199 -0.6231 -2.1375
   20CHL1   C11 1440   4.556   3.716  10.003  0.2073  0.7143 -0.1252
   20CHL1  H11A 1441   4.476   3.791   9.984 -1.4835 -0.9937 -0.0763
   20CHL1  H11B 1442   4.514   3.628  10.055  1.2899 -1.0293 -2.0454
   20CHL1    C9 1443   4.675   3.771  10.084  0.0199  0.4025  0.4254
   20CHL1    H9 1444   4.741   3.684  10.106  0.0306 -0.1850 -1.7596
   20CHL1   C10 1445   4.632   3.825  10.221  0.1021  0.4365 -0.0745
   20CHL1   C19 1446   4.524   3.932  10.200  0.3928  0.4655  0.1612
   20CHL1  H19A 1447   4.426   3.884  10.180  1.1612 -0.2366 -2.2778
   20CHL1  H19B 1448   4.502   3.998  10.287  2.9793  0.3683  0.9769
   20CHL1  H19C 1449   4.549   3.992  10.110 -0.2841 -1.7860 -1.6108
   20CHL1    C1 1450   4.576   3.704  10.294 -0.8550 -0.0844  0.5843
   20CHL1   H1A 1451   4.473   3.669  10.270 -1.4491 -1.0628  3.9776
   20CHL1   H1B 1452   4.640   3.615  10.276 -1.6725 -0.0870 -3.2101
   20CHL1    C2 1453   4.564   3.725  10.444  0.0319 -0.2552 -0.1953
   20CHL1   H2A 1454   4.543   3.627  10.491  0.4958  0.8739  2.5023
   20CHL1   H2B 1455   4.488   3.802  10.467  0.7927  0.8654 -1.2678
   20CHL1   C20 1456   4.657   3.736   9.517 -0.5543 -0.0229 -0.0266
   20CHL1   H20 1457   4.620   3.841   9.516 -0.3406  0.0644  0.7027
   20CHL1   C21 1458   4.529   3.642   9.539 -0.4026  0.3374 -0.0225
   20CHL1  H21A 1459   4.448   3.681   9.604  0.4474 -1.0222  1.9589
   20CHL1  H21B 1460   4.549   3.538   9.573 -0.6000  0.1363 -0.5096
   20CHL1  H21C 1461   4.487   3.635   9.436 -0.2871  2.9322 -0.3190
   20CHL1   C22 1462   4.735   3.700   9.391  0.2131 -0.0551 -0.1098
   20CHL1  H22A 1463   4.825   3.763   9.375  1.0571 -0.9927  0.8092
   20CHL1  H22B 1464   4.778   3.599   9.408 -2.7978 -1.2065  1.2472
   20CHL1   C23 1465   4.663   3.728   9.263 -0.4744  0.4091  0.2657
   20CHL1  H23A 1466   4.582   3.654   9.248 -1.2776  1.1756  0.7214
   20CHL1  H23B 1467   4.619   3.830   9.272 -1.3217  0.4110 -2.7542
   20CHL1   C24 1468   4.757   3.709   9.145  0.3586 -1.2662  0.6960
   20CHL1  H24A 1469   4.845   3.770   9.173 -0.5771 -0.4482  1.9889
   20CHL1  H24B 1470   4.791   3.604   9.142  0.1435 -1.3257  0.1249
   20CHL1   C25 1471   4.685   3.746   9.014  0.0771  1.1590  0.2978
   20CHL1   H25 1472   4.593   3.685   8.999  1.9181 -1.3871 -1.3979
   20CHL1   C26 1473   4.653   3.894   9.007 -0.4268 -0.3264 -0.7075
   20CHL1  H26A 1474   4.591   3.933   9.090  2.8607 -0.4066  2.0031
   20CHL1  H26B 1475   4.744   3.956   9.020 -0.7707  0.3849 -1.6032
   20CHL1  H26C 1476   4.622   3.919   8.903  2.6552  1.3319 -1.3708
   20CHL1   C27 1477   4.773   3.701   8.895 -0.9119 -0.4525 -0.1120
   20CHL1  H27A 1478   4.721   3.730   8.802  0.6669  0.9657 -0.6080
   20CHL1  H27B 1479   4.868   3.759   8.904 -0.5840 -0.5076 -2.5213
   20CHL1  H27C 1480   4.802   3.594   8.901 -0.0381 -0.1820  0.7641
   21CHL1    C3 1481   2.405   0.753  10.213  0.0062 -0.8127 -0.2238
   21CHL1    H3 1482   2.514   0.763  10.232 -0.1924  0.5082  0.3612
   21CHL1    O3 1483   2.348   0.729  10.338  0.2301 -0.1371  0.2097
   21CHL1   H3' 1484   2.348   0.817  10.378  0.0808 -0.4368  0.8823
   21CHL1    C4 1485   2.356   0.883  10.142  0.7155  0.0087  0.2247
   21CHL1   H4A 1486   2.245   0.876  10.138  0.7139 -0.3025  0.6510
   21CHL1   H4B 1487   2.368   0.961  10.221 -1.7411 -1.2542  1.9994
   21CHL1    C5 1488   2.427   0.904  10.007  0.4995  0.3258  0.8524
   21CHL1    C6 1489   2.507   1.007   9.981 -0.0035  0.0433 -0.3289
   21CHL1    H6 1490   2.540   1.083  10.054  0.6510  0.1449 -0.7233
   21CHL1    C7 1491   2.573   1.027   9.850 -0.2762  0.0348  0.7172
   21CHL1   H7A 1492   2.585   1.135   9.828 -0.0572 -0.4795 -2.0407
   21CHL1   H7B 1493   2.679   0.994   9.853 -0.3609 -0.4500 -0.6967
   21CHL1    C8 1494   2.510   0.944   9.737  1.1462 -0.1124  0.0732
   21CHL1    H8 1495   2.407   0.980   9.722  1.5716  0.4791 -1.6647
   21CHL1   C14 1496   2.583   0.955   9.604 -0.4669  0.2855  0.4586
   21CHL1   H14 1497   2.688   0.924   9.621 -0.5756 -0.6966 -0.5899
   21CHL1   C15 1498   2.595   1.099   9.554 -0.4337  0.2312  0.8742
   21CHL1  H15A 1499   2.499   1.154   9.549  0.9019  2.5787 -0.5082
   21CHL1  H15B 1500   2.665   1.158   9.616  0.6190  0.6226 -0.6515
   21CHL1   C16 1501   2.635   1.078   9.406  0.1126  0.2271 -0.5523
   21CHL1  H16A 1502   2.569   1.141   9.343 -1.6286  0.5875  1.5227
   21CHL1  H16B 1503   2.741   1.100   9.385  0.2678 -1.0538 -1.2346
   21CHL1   C17 1504   2.616   0.923   9.373  0.6304 -0.0305 -0.0425
   21CHL1   H17 1505   2.710   0.865   9.383  1.4652  1.0588 -1.3905
   21CHL1   C13 1506   2.532   0.867   9.489  1.1798 -0.4655  0.6039
   21CHL1   C18 1507   2.382   0.913   9.455 -0.3020  0.6956 -0.3097
   21CHL1  H18A 1508   2.381   1.019   9.421  0.3085  1.0089  0.6336
   21CHL1  H18B 1509   2.341   0.854   9.369 -0.9080 -0.4779  0.7524
   21CHL1  H18C 1510   2.312   0.901   9.540 -0.0022 -0.8415 -0.2530
   21CHL1   C12 1511   2.541   0.718   9.532  0.0803 -0.0018  0.9847
   21CHL1  H12A 1512   2.498   0.646   9.459 -1.3723  0.2550  1.5543
   21CHL1  H12B 1513   2.647   0.693   9.556  0.7229  1.6330 -0.0196
   21CHL1   C11 1514   2.464   0.694   9.662  0.2623 -0.4826  0.3290
   21CHL1  H11A 1515   2.357   0.709   9.635  0.0559  1.3080  1.8295
   21CHL1  H11B 1516   2.471   0.590   9.700  0.4672  0.4670  3.1636
   21CHL1    C9 1517   2.500   0.793   9.787 -0.1324 -0.4603  0.6554
   21CHL1    H9 1518   2.608   0.771   9.803 -0.3931 -0.7996  2.0398
   21CHL1   C10 1519   2.407   0.783   9.908  0.3105  0.4706 -0.3402
   21CHL1   C19 1520   2.261   0.781   9.864 -0.0532  0.6593 -0.0460
   21CHL1  H19A 1521   2.196   0.802   9.952  2.0323  2.0873  1.2509
   21CHL1  H19B 1522   2.240   0.863   9.791  1.9536  1.9195  0.6927
   21CHL1  H19C 1523   2.227   0.687   9.816 -0.8434  1.2582 -0.6805
   21CHL1    C1 1524   2.450   0.648   9.986  0.2763 -0.2284  0.0387
   21CHL1   H1A 1525   2.421   0.558   9.928  0.8117 -0.9273  0.8330
   21CHL1   H1B 1526   2.561   0.649   9.994  0.5646 -0.9803 -2.6403
   21CHL1    C2 1527   2.390   0.626  10.126  0.3041  0.5679 -0.8345
   21CHL1   H2A 1528   2.444   0.538  10.167  0.3247  1.8762  2.2047
   21CHL1   H2B 1529   2.280   0.611  10.125  0.0183  1.7178  2.0669
   21CHL1   C20 1530   2.574   0.897   9.232  0.0776  0.9181  0.0280
   21CHL1   H20 1531   2.478   0.948   9.213  0.0027  1.0454  0.7279
   21CHL1   C21 1532   2.536   0.747   9.206  0.0924  0.2501 -0.6372
   21CHL1  H21A 1533   2.448   0.717   9.267 -0.0413  0.8166 -0.5463
   21CHL1  H21B 1534   2.622   0.681   9.229 -0.9947 -0.5969  1.2605
   21CHL1  H21C 1535   2.504   0.727   9.102 -1.8656 -3.0298  0.4279
   21CHL1   C22 1536   2.676   0.964   9.134 -0.3532  0.6545  0.2503
   21CHL1  H22A 1537   2.695   1.073   9.146 -1.3598  1.0007 -1.0742
   21CHL1  H22B 1538   2.773   0.913   9.154 -1.5035 -0.9158  2.1363
   21CHL1   C23 1539   2.641   0.954   8.989 -0.2099  0.0902 -0.6635
   21CHL1  H23A 1540   2.723   1.000   8.930  0.3624  2.5830  1.8580
   21CHL1  H23B 1541   2.623   0.849   8.958  2.4101 -0.6964  0.2279
   21CHL1   C24 1542   2.516   1.045   8.951 -0.3661 -0.4281 -0.3413
   21CHL1  H24A 1543   2.432   0.997   9.006 -0.4335  1.0994  0.9398
   21CHL1  H24B 1544   2.535   1.143   8.999  1.0546 -0.1959 -1.3312
   21CHL1   C25 1545   2.500   1.071   8.798  0.0994  0.0824 -0.7269
   21CHL1   H25 1546   2.593   1.111   8.752 -1.2506  0.4257 -3.3462
   21CHL1   C26 1547   2.467   0.942   8.726 -1.1726 -0.6643  0.0159
   21CHL1  H26A 1548   2.383   0.895   8.782 -0.9593 -1.0026  0.0589
   21CHL1  H26B 1549   2.430   0.960   8.623  0.2692  1.2347 -0.2253
   21CHL1  H26C 1550   2.556   0.877   8.740 -0.9125 -0.3174 -0.0272
   21CHL1   C27 1551   2.401   1.185   8.771 -0.2811  0.3628  0.5987
   21CHL1  H27A 1552   2.459   1.269   8.813  0.4863 -0.1112  0.4997
   21CHL1  H27B 1553   2.370   1.207   8.666 -1.6284 -1.5131  0.5600
   21CHL1  H27C 1554   2.311   1.173   8.835  0.0788 -0.9393  0.8865
   22CHL1    C3 1555   4.886   1.871  10.146 -0.0414  0.7372 -0.8399
   22CHL1    H3 1556   4.858   1.764  10.155  1.3650  0.4590  0.9233
   22CHL1    O3 1557   4.924   1.897  10.279  0.3645 -0.2216 -0.0137
   22CHL1   H3' 1558   5.013   1.932  10.264  1.2358 -1.3682  2.0482
   22CHL1    C4 1559   4.999   1.885  10.046 -0.5141 -0.0790  0.6947
   22CHL1   H4A 1560   5.035   1.990  10.048  0.4329 -0.3114 -1.2830
   22CHL1   H4B 1561   5.086   1.822  10.078 -0.6516  0.1427  1.5140
   22CHL1    C5 1562   4.959   1.851   9.909  0.5653  0.7166  0.4914
   22CHL1    C6 1563   5.017   1.754   9.837  0.6108  0.3288  0.0747
   22CHL1    H6 1564   5.109   1.702   9.870 -0.0677 -2.7650 -2.4123
   22CHL1    C7 1565   4.985   1.725   9.690 -0.4111  0.1118  0.1968
   22CHL1   H7A 1566   5.076   1.699   9.631 -1.6596 -0.8904 -1.3806
   22CHL1   H7B 1567   4.924   1.632   9.696 -1.3900  0.8171  1.8043
   22CHL1    C8 1568   4.889   1.826   9.624 -0.3642  0.0846 -0.2391
   22CHL1    H8 1569   4.948   1.915   9.594 -1.1750  0.9253  0.5923
   22CHL1   C14 1570   4.824   1.772   9.493 -0.3600 -0.3946  0.8398
   22CHL1   H14 1571   4.760   1.687   9.523 -1.4181  0.8734  2.3195
   22CHL1   C15 1572   4.912   1.716   9.383 -1.1686  0.0699 -0.3055
   22CHL1  H15A 1573   4.991   1.786   9.348 -0.3039 -2.1471 -3.1329
   22CHL1  H15B 1574   4.960   1.619   9.406 -0.9764 -0.3299 -2.2661
   22CHL1   C16 1575   4.808   1.702   9.269 -0.2006 -0.0709 -0.4682
   22CHL1  H16A 1576   4.856   1.705   9.169  0.4219  1.7800 -0.1498
   22CHL1  H16B 1577   4.768   1.600   9.287 -1.7613  0.9307  2.5542
   22CHL1   C17 1578   4.695   1.789   9.298 -0.0725 -0.2790 -0.3312
   22CHL1   H17 1579   4.622   1.719   9.344  0.1278 -1.3184 -1.5491
   22CHL1   C13 1580   4.734   1.873   9.417 -0.1015  0.5916 -0.3745
   22CHL1   C18 1581   4.818   1.992   9.372  0.9907 -0.3799  0.2120
   22CHL1  H18A 1582   4.740   2.055   9.323 -0.2537 -2.9701 -1.3288
   22CHL1  H18B 1583   4.849   2.049   9.462 -0.6203 -0.6076  0.9430
   22CHL1  H18C 1584   4.902   1.959   9.307 -1.0090 -2.7522 -1.3713
   22CHL1   C12 1585   4.616   1.910   9.510 -0.7125  0.0226 -0.6517
   22CHL1  H12A 1586   4.545   1.986   9.469 -0.0711  1.0170  0.0200
   22CHL1  H12B 1587   4.550   1.822   9.526 -3.3535  2.2644  2.1839
   22CHL1   C11 1588   4.675   1.971   9.644  0.1131  0.1403 -0.2102
   22CHL1  H11A 1589   4.715   2.072   9.621 -0.8720  1.1457  2.1120
   22CHL1  H11B 1590   4.593   1.992   9.717 -0.1414  1.2563 -0.7924
   22CHL1    C9 1591   4.784   1.879   9.718  1.1796 -0.0978 -0.7019
   22CHL1    H9 1592   4.727   1.791   9.755  0.4023  1.8558  3.2819
   22CHL1   C10 1593   4.833   1.930   9.857 -0.7856 -0.3473  0.0604
   22CHL1   C19 1594   4.871   2.074   9.832  0.4540 -0.3938 -0.4981
   22CHL1  H19A 1595   4.907   2.082   9.727  0.1567  0.2985 -0.5497
   22CHL1  H19B 1596   4.778   2.134   9.843  0.5089 -0.4824  0.6590
   22CHL1  H19C 1597   4.954   2.117   9.892 -0.1858  0.1607 -0.0020
   22CHL1    C1 1598   4.722   1.913   9.959 -0.3737  0.4413 -0.1771
   22CHL1   H1A 1599   4.628   1.965   9.930  0.4058  0.3898 -3.0188
   22CHL1   H1B 1600   4.698   1.805   9.966  0.3312  0.3257  0.6770
   22CHL1    C2 1601   4.762   1.955  10.103  0.1603  0.7309  0.0648
   22CHL1   H2A 1602   4.673   1.939  10.168  0.0898  0.3952 -0.1086
   22CHL1   H2B 1603   4.788   2.062  10.090 -0.8378  1.0931  0.9557
   22CHL1   C20 1604   4.614   1.841   9.179  0.2714  0.1547  1.1383
   22CHL1   H20 1605   4.536   1.908   9.222  0.8407  0.9843  0.8883
   22CHL1   C21 1606   4.531   1.724   9.111 -0.1968  0.2692 -0.4717
   22CHL1  H21A 1607   4.596   1.652   9.057 -3.0360 -1.6353 -1.6188
   22CHL1  H21B 1608   4.463   1.778   9.042 -1.8180  2.2416  2.4280
   22CHL1  H21C 1609   4.472   1.677   9.193  0.5592 -0.2053 -0.1842
   22CHL1   C22 1610   4.695   1.932   9.079 -0.0737  0.1054  0.5399
   22CHL1  H22A 1611   4.769   2.001   9.125 -0.3143  1.0866 -0.4954
   22CHL1  H22B 1612   4.763   1.866   9.020 -0.0041  0.2592  0.4477
   22CHL1   C23 1613   4.607   2.011   8.985 -0.4644 -0.4382  0.0366
   22CHL1  H23A 1614   4.555   1.943   8.914  0.2092  1.1399 -2.0729
   22CHL1  H23B 1615   4.530   2.069   9.039 -0.2795 -0.3041  0.1589
   22CHL1   C24 1616   4.694   2.094   8.888 -0.5540  0.3285 -0.1988
   22CHL1  H24A 1617   4.756   2.154   8.960 -0.6019 -1.9969  1.9239
   22CHL1  H24B 1618   4.774   2.031   8.844  0.8978  0.5818  1.8826
   22CHL1   C25 1619   4.618   2.178   8.783 -0.7363  1.1223 -0.1566
   22CHL1   H25 1620   4.514   2.177   8.823  0.0759  1.5616  2.0554
   22CHL1   C26 1621   4.681   2.320   8.771 -0.3933  0.3895 -0.6538
   22CHL1  H26A 1622   4.769   2.319   8.703  0.7054 -2.3834  0.6456
   22CHL1  H26B 1623   4.605   2.390   8.732  1.7127  1.4128 -3.2492
   22CHL1  H26C 1624   4.713   2.372   8.863  0.8281 -1.8013  0.2522
   22CHL1   C27 1625   4.631   2.107   8.645  0.5858 -0.6856  0.3780
   22CHL1  H27A 1626   4.737   2.117   8.614  0.9816 -1.2037  1.5046
   22CHL1  H27B 1627   4.596   2.002   8.644 -1.2899 -0.1062  0.6469
   22CHL1  H27C 1628   4.554   2.152   8.578 -1.8319 -0.3581  3.1484
   23CHL1    C3 1629   0.610   2.691  10.105  0.2454  0.1985 -0.4525
   23CHL1    H3 1630   0.673   2.599  10.108 -1.9048 -1.3424  2.6096
   23CHL1    O3 1631   0.555   2.712  10.239  0.1182 -0.8193 -0.0550
   23CHL1   H3' 1632   0.601   2.785  10.280 -1.8301 -0.7525  2.2252
   23CHL1    C4 1633   0.690   2.812  10.048  0.2651 -0.5182  0.0072
   23CHL1   H4A 1634   0.634   2.908  10.046  2.6992  1.0214  0.7704
   23CHL1   H4B 1635   0.775   2.832  10.116  0.5514 -0.4617 -0.3625
   23CHL1    C5 1636   0.736   2.787   9.903  1.0918 -0.6867  0.3475
   23CHL1    C6 1637   0.870   2.795   9.860  0.8497 -0.8692  0.2047
   23CHL1    H6 1638   0.948   2.816   9.934  0.4729  0.7727  0.1675
   23CHL1    C7 1639   0.923   2.773   9.718  0.0032 -0.6322  0.0203
   23CHL1   H7A 1640   0.988   2.860   9.696  0.7613 -0.8310  1.3159
   23CHL1   H7B 1641   0.973   2.674   9.709  3.0373  0.8288 -0.7176
   23CHL1    C8 1642   0.809   2.771   9.618  0.5031 -0.1236 -0.2034
   23CHL1    H8 1643   0.788   2.877   9.590 -1.2392  0.3724  2.5978
   23CHL1   C14 1644   0.842   2.698   9.482  0.5079 -0.1978 -0.7357
   23CHL1   H14 1645   0.837   2.589   9.506  0.1855 -0.4098 -1.7168
   23CHL1   C15 1646   0.982   2.717   9.423  0.1974  1.1390  0.2534
   23CHL1  H15A 1647   1.007   2.826   9.420  1.4581  0.8616  0.3547
   23CHL1  H15B 1648   1.066   2.661   9.469 -0.1749 -0.0758 -0.4995
   23CHL1   C16 1649   0.965   2.676   9.275 -0.0921  0.3673 -0.2252
   23CHL1  H16A 1650   0.999   2.760   9.210 -0.3657  0.8300  0.2243
   23CHL1  H16B 1651   1.023   2.584   9.255 -0.0796  0.6303 -1.4958
   23CHL1   C17 1652   0.816   2.640   9.257 -0.6867 -0.0504  0.6853
   23CHL1   H17 1653   0.794   2.534   9.280 -2.2155 -0.0464 -0.6091
   23CHL1   C13 1654   0.739   2.711   9.370  0.6493 -0.0150  0.4152
   23CHL1   C18 1655   0.708   2.847   9.323 -0.1913 -0.1030  0.5081
   23CHL1  H18A 1656   0.668   2.903   9.410  1.4527  0.3536  0.9995
   23CHL1  H18B 1657   0.794   2.894   9.270 -1.4449 -1.1489 -2.6949
   23CHL1  H18C 1658   0.624   2.844   9.250 -0.5050  0.3103  0.8490
   23CHL1   C12 1659   0.610   2.650   9.420  0.5405 -0.3323  0.0048
   23CHL1  H12A 1660   0.528   2.684   9.353  0.2073  1.6854  1.3576
   23CHL1  H12B 1661   0.612   2.539   9.416 -1.3521 -0.3802 -1.1429
   23CHL1   C11 1662   0.575   2.703   9.560  0.2289  0.1935 -0.2826
   23CHL1  H11A 1663   0.536   2.805   9.540 -2.4944 -0.5419  0.8814
   23CHL1  H11B 1664   0.491   2.643   9.601  0.3361  0.5001  0.4142
   23CHL1    C9 1665   0.679   2.704   9.673  0.4190  0.1223 -0.2893
   23CHL1    H9 1666   0.702   2.596   9.688 -1.6773 -0.1006  1.9667
   23CHL1   C10 1667   0.621   2.755   9.810 -0.4804 -0.0417  1.0149
   23CHL1   C19 1668   0.529   2.882   9.784 -0.3707  0.3329  0.5244
   23CHL1  H19A 1669   0.584   2.960   9.726 -0.3958 -0.0583 -0.0320
   23CHL1  H19B 1670   0.437   2.859   9.726  0.4235 -0.7219 -0.3642
   23CHL1  H19C 1671   0.490   2.930   9.877 -1.6016  1.6231 -0.5996
   23CHL1    C1 1672   0.521   2.652   9.870 -0.0956 -0.5180  0.2164
   23CHL1   H1A 1673   0.430   2.653   9.806 -1.6757  1.9185  2.3359
   23CHL1   H1B 1674   0.570   2.553   9.860  0.9439 -0.0074  0.1592
   23CHL1    C2 1675   0.484   2.673  10.018  0.4337 -0.0188 -0.1941
   23CHL1   H2A 1676   0.425   2.583  10.044 -0.6422  1.1044  1.5072
   23CHL1   H2B 1677   0.414   2.757  10.037  2.2165  1.7524 -1.0067
   23CHL1   C20 1678   0.769   2.659   9.115 -0.8627 -0.4101  0.5123
   23CHL1   H20 1679   0.766   2.769   9.101 -2.5994 -0.3936  0.6858
   23CHL1   C21 1680   0.631   2.607   9.087 -0.1749 -0.5197  0.7396
   23CHL1  H21A 1681   0.639   2.501   9.058  0.8617 -0.9424  2.4266
   23CHL1  H21B 1682   0.609   2.662   8.993 -0.4165  0.0219  1.1038
   23CHL1  H21C 1683   0.550   2.629   9.161 -1.4764  0.5288 -0.9121
   23CHL1   C22 1684   0.870   2.604   9.011 -0.0787 -0.8228 -0.6337
   23CHL1  H22A 1685   0.972   2.622   9.052 -0.7936  0.3993  0.7000
   23CHL1  H22B 1686   0.855   2.495   9.001 -2.7639 -0.5283 -0.5081
   23CHL1   C23 1687   0.849   2.671   8.870 -0.1689  0.8320 -0.3710
   23CHL1  H23A 1688   0.744   2.651   8.839 -0.2456 -1.6953  1.2738
   23CHL1  H23B 1689   0.867   2.780   8.885 -1.4940  1.5987 -3.3995
   23CHL1   C24 1690   0.949   2.626   8.769 -0.4803  0.3318  0.5245
   23CHL1  H24A 1691   1.045   2.645   8.821 -0.4933 -2.3426  1.6930
   23CHL1  H24B 1692   0.937   2.516   8.759  0.6063  0.0311  2.1956
   23CHL1   C25 1693   0.944   2.703   8.636 -0.1192 -0.4336  0.4829
   23CHL1   H25 1694   1.023   2.668   8.567 -0.0285  1.5365 -0.4943
   23CHL1   C26 1695   0.808   2.679   8.564  0.8929  0.6218 -0.4579
   23CHL1  H26A 1696   0.814   2.732   8.467  0.0429  2.9591  0.7007
   23CHL1  H26B 1697   0.794   2.570   8.546 -2.4195  0.3277  2.6995
   23CHL1  H26C 1698   0.722   2.721   8.620 -1.1262 -2.6462 -0.8208
   23CHL1   C27 1699   0.970   2.850   8.657 -0.1393  0.1631 -0.0910
   23CHL1  H27A 1700   0.974   2.911   8.564 -2.6690  2.9830  1.4487
   23CHL1  H27B 1701   0.890   2.898   8.717 -2.2947 -2.4274 -0.6906
   23CHL1  H27C 1702   1.067   2.850   8.712 -0.1184 -1.9848 -0.0580
   24CHL1    C3 1703   0.165   3.093  10.202 -0.0812 -0.6807  0.0840
   24CHL1    H3 1704   0.268   3.052  10.195  0.4702  0.4447  1.2169
   24CHL1    O3 1705   0.125   3.099  10.338  0.0986 -0.3480  0.7364
   24CHL1   H3' 1706   0.047   3.043  10.344 -2.2174  2.3395 -1.2880
   24CHL1    C4 1707   0.150   3.227  10.137 -0.6646  0.1797 -0.1983
   24CHL1   H4A 1708   0.045   3.261  10.152 -1.4094 -2.0250 -0.0442
   24CHL1   H4B 1709   0.206   3.307  10.190  0.7642 -1.7159  1.3124
   24CHL1    C5 1710   0.184   3.222   9.992  0.7854  0.0832  0.4405
   24CHL1    C6 1711   0.287   3.292   9.939  0.8420 -0.3218 -0.8280
   24CHL1    H6 1712   0.343   3.362  10.004  1.4960 -1.7668  0.2275
   24CHL1    C7 1713   0.337   3.284   9.796 -0.0021  0.7972 -0.4524
   24CHL1   H7A 1714   0.359   3.390   9.770  2.3074  0.3595 -0.4666
   24CHL1   H7B 1715   0.432   3.226   9.795 -0.9003 -0.8505  1.7202
   24CHL1    C8 1716   0.232   3.216   9.710 -0.4370  0.2481 -0.4693
   24CHL1    H8 1717   0.149   3.289   9.695 -1.3569 -0.7602 -0.3821
   24CHL1   C14 1718   0.307   3.185   9.582  0.6326  0.0147 -0.4471
   24CHL1   H14 1719   0.379   3.104   9.606  0.7482  0.9945  2.9480
   24CHL1   C15 1720   0.388   3.300   9.518 -0.3633 -0.0177 -0.2231
   24CHL1  H15A 1721   0.340   3.400   9.514  0.2238  0.4628  2.6339
   24CHL1  H15B 1722   0.485   3.311   9.571 -0.9742 -2.3389  1.5760
   24CHL1   C16 1723   0.404   3.252   9.368 -0.2873  0.5195  0.1643
   24CHL1  H16A 1724   0.349   3.329   9.309 -0.9171  0.6656  0.9247
   24CHL1  H16B 1725   0.505   3.245   9.321  0.8734  0.2397  2.5802
   24CHL1   C17 1726   0.320   3.119   9.358 -0.1295 -0.3209  0.3256
   24CHL1   H17 1727   0.387   3.036   9.388  1.8794  0.7013 -1.1261
   24CHL1   C13 1728   0.216   3.136   9.468  0.1307  0.7911 -1.1498
   24CHL1   C18 1729   0.112   3.246   9.436  0.0988 -0.2780  0.2225
   24CHL1  H18A 1730   0.060   3.284   9.526 -0.5168  1.8901 -0.9773
   24CHL1  H18B 1731   0.158   3.336   9.390 -0.8308 -1.1944 -2.6858
   24CHL1  H18C 1732   0.042   3.198   9.364 -1.3412  1.9331  0.0501
   24CHL1   C12 1733   0.143   3.007   9.522 -0.8239 -0.4873  0.2538
   24CHL1  H12A 1734   0.072   2.959   9.451 -2.0418  0.3828  0.8508
   24CHL1  H12B 1735   0.223   2.931   9.535  2.0483  2.2914  0.0338
   24CHL1   C11 1736   0.068   3.034   9.651  0.6275  0.0748  0.1398
   24CHL1  H11A 1737  -0.017   3.103   9.634  0.9078  0.2480 -0.5888
   24CHL1  H11B 1738   0.014   2.942   9.683  0.7016  0.1092  0.3615
   24CHL1    C9 1739   0.164   3.088   9.762  0.2371 -0.5536  0.2632
   24CHL1    H9 1740   0.243   3.011   9.774  0.4994 -0.3059  0.1394
   24CHL1   C10 1741   0.111   3.118   9.901  0.4142  1.1615 -1.0539
   24CHL1   C19 1742  -0.042   3.160   9.887  0.0791  0.4205  0.8044
   24CHL1  H19A 1743  -0.110   3.080   9.851  0.2045  0.5808  0.1962
   24CHL1  H19B 1744  -0.083   3.188   9.987 -1.9362  0.2878  0.0363
   24CHL1  H19C 1745  -0.043   3.246   9.817  2.7573  0.4521  0.6782
   24CHL1    C1 1746   0.116   2.979   9.976 -0.2069  0.0128  0.3431
   24CHL1   H1A 1747   0.044   2.915   9.921  0.2801 -1.3966  1.3035
   24CHL1   H1B 1748   0.215   2.930   9.964 -0.1037  0.6478 -2.0007
   24CHL1    C2 1749   0.078   2.995  10.123  0.3406  0.0753 -0.1226
   24CHL1   H2A 1750   0.089   2.895  10.169  1.0540  0.5954  0.8773
   24CHL1   H2B 1751  -0.027   3.032  10.126 -0.1875 -1.4123  1.3859
   24CHL1   C20 1752   0.268   3.079   9.219  0.1688  0.5943 -0.1098
   24CHL1   H20 1753   0.187   3.003   9.227  3.1753 -3.2271 -2.3666
   24CHL1   C21 1754   0.378   2.989   9.158  0.0023  0.1434  0.8402
   24CHL1  H21A 1755   0.476   3.043   9.159  0.6659 -0.9189 -1.1148
   24CHL1  H21B 1756   0.352   2.961   9.054 -1.7942  0.9810  1.0308
   24CHL1  H21C 1757   0.387   2.892   9.210 -1.4372 -0.9839 -0.9036
   24CHL1   C22 1758   0.226   3.191   9.123 -0.1157  0.2020  0.3692
   24CHL1  H22A 1759   0.167   3.261   9.187 -0.2755 -2.4347  3.3560
   24CHL1  H22B 1760   0.322   3.231   9.085 -0.0812  0.3316  0.5904
   24CHL1   C23 1761   0.138   3.148   9.009  0.6733 -0.3707  0.2203
   24CHL1  H23A 1762   0.166   3.047   8.972 -1.4640 -0.8521 -0.2555
   24CHL1  H23B 1763   0.038   3.135   9.055  0.7519 -2.2127 -0.0485
   24CHL1   C24 1764   0.141   3.248   8.899 -0.0970 -0.3145 -0.2975
   24CHL1  H24A 1765   0.107   3.349   8.930  2.1045  0.2842  0.3182
   24CHL1  H24B 1766   0.245   3.258   8.862  0.6070  0.1285  1.7246
   24CHL1   C25 1767   0.046   3.226   8.776 -0.3022  0.1554 -0.2318
   24CHL1   H25 1768  -0.059   3.215   8.809  0.1507 -0.8325  0.9668
   24CHL1   C26 1769   0.050   3.344   8.687 -0.5621 -0.1833 -0.4703
   24CHL1  H26A 1770   0.048   3.442   8.739  0.3582 -1.8956  3.1155
   24CHL1  H26B 1771   0.151   3.346   8.641 -0.3049  4.0528 -0.0867
   24CHL1  H26C 1772  -0.027   3.332   8.608 -1.4981 -0.5941  0.4850
   24CHL1   C27 1773   0.075   3.097   8.697  0.3467 -0.7050  0.4020
   24CHL1  H27A 1774   0.060   3.009   8.762 -4.4423  0.8773  1.8753
   24CHL1  H27B 1775   0.010   3.099   8.607  1.4479  1.9221 -0.4652
   24CHL1  H27C 1776   0.183   3.107   8.669  0.4677 -1.1365  0.7202
   25CHL1    C3 1777   1.929   4.658  10.301  0.4597  0.0411  0.1930
   25CHL1    H3 1778   1.908   4.559  10.254 -3.0938  1.0331 -0.6256
   25CHL1    O3 1779   1.957   4.652  10.441  0.1231 -0.0057  0.0266
   25CHL1   H3' 1780   1.889   4.592  10.472 -0.1166 -0.0804 -0.6226
   25CHL1    C4 1781   2.050   4.728  10.233  0.1040  0.4385 -0.4242
   25CHL1   H4A 1782   2.075   4.824  10.285  3.2807  0.6633 -2.1177
   25CHL1   H4B 1783   2.143   4.673  10.257 -0.4602  0.1883  1.3850
   25CHL1    C5 1784   2.023   4.746  10.087 -0.2677  0.0030  0.5356
   25CHL1    C6 1785   2.106   4.717   9.986  0.3324  0.3928 -0.5558
   25CHL1    H6 1786   2.210   4.686  10.004  1.0614  2.2420 -1.3304
   25CHL1    C7 1787   2.084   4.739   9.838  0.3916 -0.6058  0.1816
   25CHL1   H7A 1788   2.171   4.798   9.801 -1.3100  2.8767  1.2438
   25CHL1   H7B 1789   2.072   4.651   9.772 -1.2708  0.4224 -0.9486
   25CHL1    C8 1790   1.970   4.838   9.803  0.0289  0.1697  0.2109
   25CHL1    H8 1791   1.999   4.943   9.823  1.0377  0.1467 -0.9881
   25CHL1   C14 1792   1.924   4.819   9.660 -0.5185  0.0246  0.2827
   25CHL1   H14 1793   1.889   4.715   9.644 -2.5304  0.8762 -1.1494
   25CHL1   C15 1794   2.031   4.838   9.561  0.0343  0.5698 -0.0867
   25CHL1  H15A 1795   2.086   4.929   9.593 -1.5189  1.0684  1.3152
   25CHL1  H15B 1796   2.099   4.750   9.568 -2.5669 -1.4703  1.3689
   25CHL1   C16 1797   1.962   4.846   9.428  0.3879  0.1188 -0.3775
   25CHL1  H16A 1798   2.013   4.928   9.372  4.1009 -0.1040  2.3220
   25CHL1  H16B 1799   1.986   4.754   9.371 -2.9908 -0.2968 -1.3172
   25CHL1   C17 1800   1.809   4.868   9.459  0.0244  0.0500 -0.0524
   25CHL1   H17 1801   1.754   4.772   9.456  2.1882 -1.3571  1.8579
   25CHL1   C13 1802   1.806   4.904   9.608  0.1818 -0.1075 -0.6447
   25CHL1   C18 1803   1.833   5.051   9.621  0.0717  0.1492 -0.0447
   25CHL1  H18A 1804   1.875   5.080   9.719 -2.5082 -0.0194  1.1757
   25CHL1  H18B 1805   1.903   5.099   9.549  1.2545  1.8774  2.1338
   25CHL1  H18C 1806   1.733   5.098   9.627 -1.1296 -2.4507  2.7002
   25CHL1   C12 1807   1.685   4.855   9.699  0.4695  0.0492 -0.0593
   25CHL1  H12A 1808   1.595   4.918   9.681  2.0537  2.6945  0.7797
   25CHL1  H12B 1809   1.657   4.751   9.671  2.1527 -0.3817 -0.2470
   25CHL1   C11 1810   1.715   4.872   9.848 -0.3463 -0.4496 -0.5262
   25CHL1  H11A 1811   1.723   4.981   9.870 -1.3389  0.0209 -2.2574
   25CHL1  H11B 1812   1.623   4.846   9.904  0.9121 -0.3323  1.6957
   25CHL1    C9 1813   1.852   4.808   9.899 -0.7282  0.1369  1.1874
   25CHL1    H9 1814   1.831   4.699   9.892  0.6235 -0.0749  0.0002
   25CHL1   C10 1815   1.899   4.826  10.049  0.6117  0.2147  0.2151
   25CHL1   C19 1816   1.913   4.979  10.079  0.9906  0.4150  0.1643
   25CHL1  H19A 1817   1.816   5.025  10.052 -0.0001 -0.9577  1.1806
   25CHL1  H19B 1818   1.935   4.990  10.188  1.5572 -2.1719  0.3726
   25CHL1  H19C 1819   1.996   5.018  10.017  1.4817 -0.9747 -0.0880
   25CHL1    C1 1820   1.786   4.764  10.138 -0.3842 -0.4270  0.1976
   25CHL1   H1A 1821   1.698   4.832  10.132 -1.1671 -1.2687  1.7264
   25CHL1   H1B 1822   1.770   4.664  10.093  0.7479  0.0205 -1.2955
   25CHL1    C2 1823   1.810   4.738  10.286 -0.4731 -0.9369 -0.1865
   25CHL1   H2A 1824   1.729   4.695  10.350 -0.4928  0.8773  1.0899
   25CHL1   H2B 1825   1.829   4.840  10.325  1.1487 -1.0600 -0.5907
   25CHL1   C20 1826   1.737   4.954   9.358  0.3724  0.1375 -0.7108
   25CHL1   H20 1827   1.779   5.056   9.369  1.5589 -0.4503  0.4832
   25CHL1   C21 1828   1.584   4.976   9.404  0.0198 -0.4642  0.5635
   25CHL1  H21A 1829   1.525   4.882   9.413  0.5844 -0.7779  1.0828
   25CHL1  H21B 1830   1.534   5.047   9.336  1.7063  0.0543 -0.2008
   25CHL1  H21C 1831   1.589   5.024   9.504  3.2456 -0.4166  0.5134
   25CHL1   C22 1832   1.736   4.891   9.218 -0.7287  0.0779  0.5202
   25CHL1  H22A 1833   1.840   4.852   9.208 -0.2085  1.3728  0.6356
   25CHL1  H22B 1834   1.684   4.793   9.214  0.2296 -0.4175 -0.3034
   25CHL1   C23 1835   1.716   4.989   9.106  0.4792  0.2805 -0.1438
   25CHL1  H23A 1836   1.607   5.007   9.093  0.6055  2.1670  1.0691
   25CHL1  H23B 1837   1.758   5.090   9.127 -0.3943  0.8199 -0.9253
   25CHL1   C24 1838   1.799   4.946   8.980 -0.2759  0.1897  0.4855
   25CHL1  H24A 1839   1.905   4.935   9.011  0.0036  0.9053 -0.1756
   25CHL1  H24B 1840   1.765   4.845   8.948 -0.2851  0.8404 -1.7303
   25CHL1   C25 1841   1.802   5.055   8.870  0.6763 -0.3202 -0.1209
   25CHL1   H25 1842   1.830   5.150   8.919  0.8470  0.1388 -1.0742
   25CHL1   C26 1843   1.907   5.030   8.760 -0.6909  0.0434 -0.0085
   25CHL1  H26A 1844   1.876   4.948   8.692  0.3345 -0.5214  0.1744
   25CHL1  H26B 1845   1.929   5.123   8.702  1.0830 -0.5134 -0.2895
   25CHL1  H26C 1846   2.005   5.000   8.802  1.8994  3.0146 -3.2541
   25CHL1   C27 1847   1.667   5.087   8.800  0.1461 -0.1219  0.2921
   25CHL1  H27A 1848   1.631   4.989   8.762  1.1139 -0.5362  0.4219
   25CHL1  H27B 1849   1.594   5.134   8.870  0.5254  2.0055 -0.6597
   25CHL1  H27C 1850   1.679   5.168   8.725 -0.0587 -0.6153 -0.2790
   26CHL1    C3 1851   3.355   1.218  10.246  0.5138 -0.4388 -0.0639
   26CHL1    H3 1852   3.282   1.143  10.208  0.7654  0.2521 -2.0488
   26CHL1    O3 1853   3.372   1.193  10.380 -0.1482 -0.0847 -0.0243
   26CHL1   H3' 1854   3.387   1.098  10.382 -0.6609 -0.1998 -1.2170
   26CHL1    C4 1855   3.486   1.191  10.173  0.0330  0.0026 -0.3574
   26CHL1   H4A 1856   3.556   1.266  10.217  1.8464 -0.9487 -1.4876
   26CHL1   H4B 1857   3.519   1.088  10.198  0.7480  0.0770 -0.9723
   26CHL1    C5 1858   3.473   1.214  10.025 -0.1193 -1.1734  0.3450
   26CHL1    C6 1859   3.508   1.125   9.937  1.0753 -0.0747  0.1042
   26CHL1    H6 1860   3.545   1.028   9.973 -1.3405 -1.7073 -1.5243
   26CHL1    C7 1861   3.509   1.142   9.781 -0.0401 -0.5713  0.1302
   26CHL1   H7A 1862   3.608   1.112   9.741  0.8234 -0.5915  2.1358
   26CHL1   H7B 1863   3.447   1.068   9.726  2.2229 -3.1205  0.8079
   26CHL1    C8 1864   3.479   1.294   9.739 -0.0646 -0.0965  0.6674
   26CHL1    H8 1865   3.579   1.340   9.737 -0.3527  0.5168 -0.3623
   26CHL1   C14 1866   3.429   1.296   9.591 -0.2033 -0.7501  0.1291
   26CHL1   H14 1867   3.329   1.249   9.598 -1.1887  1.3060  0.6753
   26CHL1   C15 1868   3.514   1.226   9.483 -0.8586  0.0160 -0.3172
   26CHL1  H15A 1869   3.619   1.246   9.513 -2.0230  1.6594  3.2928
   26CHL1  H15B 1870   3.500   1.116   9.490 -0.8134  0.0822  1.1243
   26CHL1   C16 1871   3.462   1.290   9.349 -0.2836  0.1067 -0.4789
   26CHL1  H16A 1872   3.551   1.335   9.300  0.4118  0.3898  0.9703
   26CHL1  H16B 1873   3.425   1.207   9.285 -0.7289  1.9275 -2.7063
   26CHL1   C17 1874   3.352   1.389   9.386  0.3685 -0.8518 -0.1635
   26CHL1   H17 1875   3.255   1.337   9.400 -0.1040 -0.7433 -2.5746
   26CHL1   C13 1876   3.399   1.433   9.532 -0.1826 -0.1106  0.1827
   26CHL1   C18 1877   3.529   1.517   9.531  1.0912 -0.0828  0.2973
   26CHL1  H18A 1878   3.540   1.557   9.634 -2.8128 -1.0301  1.2484
   26CHL1  H18B 1879   3.619   1.461   9.497 -0.4221 -2.8972  0.6217
   26CHL1  H18C 1880   3.509   1.604   9.466 -3.8476 -0.1965  1.2676
   26CHL1   C12 1881   3.297   1.504   9.616 -0.5111  0.3303 -0.6487
   26CHL1  H12A 1882   3.298   1.613   9.593  0.4942  0.1829 -1.3699
   26CHL1  H12B 1883   3.199   1.454   9.607 -0.2428  0.0188 -2.1007
   26CHL1   C11 1884   3.332   1.493   9.771  0.8179  0.1207  0.9278
   26CHL1  H11A 1885   3.412   1.570   9.781 -0.6036  1.4906  2.3917
   26CHL1  H11B 1886   3.242   1.522   9.829 -0.2980 -2.0109  0.3415
   26CHL1    C9 1887   3.374   1.353   9.830 -0.0626 -0.3195  0.0547
   26CHL1    H9 1888   3.283   1.292   9.814 -0.2007 -0.4506  1.2420
   26CHL1   C10 1889   3.413   1.352   9.983  0.3790 -0.3657  0.1338
   26CHL1   C19 1890   3.518   1.464  10.012  0.1642  0.3191 -0.3140
   26CHL1  H19A 1891   3.466   1.561   9.998 -2.2131 -0.5464  1.6086
   26CHL1  H19B 1892   3.538   1.459  10.122 -1.5024  2.0012  0.1295
   26CHL1  H19C 1893   3.603   1.450   9.943  0.7810 -1.0560  0.6810
   26CHL1    C1 1894   3.287   1.379  10.063 -0.1671  0.3392 -0.2869
   26CHL1   H1A 1895   3.258   1.485  10.052  1.6488  1.1450  1.9482
   26CHL1   H1B 1896   3.207   1.309  10.031  1.8674 -1.3157 -2.1408
   26CHL1    C2 1897   3.307   1.359  10.215  0.2588 -0.6519 -0.6202
   26CHL1   H2A 1898   3.212   1.374  10.271  2.0217  1.3923  2.0862
   26CHL1   H2B 1899   3.382   1.423  10.267  1.6696 -2.0565 -0.8338
   26CHL1   C20 1900   3.344   1.500   9.277  0.1595 -0.1879  0.1427
   26CHL1   H20 1901   3.445   1.542   9.255  0.0960 -0.9519 -1.7829
   26CHL1   C21 1902   3.231   1.603   9.316  0.2675  0.5701 -0.5168
   26CHL1  H21A 1903   3.133   1.554   9.334  0.3216  1.1557  1.5310
   26CHL1  H21B 1904   3.218   1.673   9.230  2.2746  2.1130  0.3388
   26CHL1  H21C 1905   3.264   1.658   9.406 -0.2404 -0.1070  0.0883
   26CHL1   C22 1906   3.305   1.441   9.139  0.2416  0.2611 -0.5490
   26CHL1  H22A 1907   3.385   1.367   9.115 -0.7992 -1.9171  2.1858
   26CHL1  H22B 1908   3.209   1.386   9.147  2.5547 -4.2411 -0.0519
   26CHL1   C23 1909   3.297   1.537   9.020 -0.8328 -0.0598  0.1457
   26CHL1  H23A 1910   3.214   1.611   9.018 -1.6874 -0.9867  0.2584
   26CHL1  H23B 1911   3.393   1.588   9.000 -0.9890  0.5287  0.8312
   26CHL1   C24 1912   3.263   1.456   8.895  0.1099  0.7911 -0.4209
   26CHL1  H24A 1913   3.334   1.371   8.888 -1.2328 -0.3596 -0.5547
   26CHL1  H24B 1914   3.163   1.409   8.909  1.7724 -2.3284  2.7668
   26CHL1   C25 1915   3.268   1.535   8.761 -0.3022 -0.1504  0.9929
   26CHL1   H25 1916   3.370   1.579   8.758 -0.7230  0.7914 -0.1735
   26CHL1   C26 1917   3.256   1.434   8.635 -0.1156 -0.1994 -1.3218
   26CHL1  H26A 1918   3.149   1.409   8.621 -1.0329  2.4369  0.2970
   26CHL1  H26B 1919   3.287   1.492   8.545  0.8290  1.8217  0.2203
   26CHL1  H26C 1920   3.320   1.347   8.661  1.3202  0.9304 -0.9100
   26CHL1   C27 1921   3.170   1.657   8.752 -0.5647  0.0477 -0.1606
   26CHL1  H27A 1922   3.205   1.735   8.823 -0.5277  0.1972 -0.3426
   26CHL1  H27B 1923   3.175   1.690   8.646  0.1561  2.9332  0.6835
   26CHL1  H27C 1924   3.074   1.615   8.787 -0.6291  0.0226 -0.3673
   27CHL1    C3 1925   2.469   4.776  10.282 -0.2424 -0.2796 -0.5165
   27CHL1    H3 1926   2.391   4.703  10.252 -3.3989  3.0207 -0.9874
   27CHL1    O3 1927   2.507   4.742  10.415 -0.2528 -0.0433  0.6275
   27CHL1   H3' 1928   2.434   4.761  10.474 -0.2922  0.8581  0.3043
   27CHL1    C4 1929   2.597   4.754  10.194  0.0756  0.4478  0.4137
   27CHL1   H4A 1930   2.683   4.816  10.227  0.4502  0.3483 -0.3486
   27CHL1   H4B 1931   2.643   4.653  10.205 -2.9745 -1.2057 -0.8521
   27CHL1    C5 1932   2.568   4.780  10.042  0.4818 -0.1057  0.0121
   27CHL1    C6 1933   2.588   4.681   9.950  0.7177 -0.0060 -0.4535
   27CHL1    H6 1934   2.635   4.585   9.975 -0.2063 -0.5468 -0.7602
   27CHL1    C7 1935   2.560   4.703   9.807 -0.2850  0.3373  0.1297
   27CHL1   H7A 1936   2.637   4.657   9.743 -2.2652 -1.0872 -1.3439
   27CHL1   H7B 1937   2.471   4.651   9.766 -1.0866  0.0652  2.0838
   27CHL1    C8 1938   2.541   4.857   9.765  0.2492  0.0700  0.1446
   27CHL1    H8 1939   2.645   4.896   9.773  0.7871 -1.3834  0.3963
   27CHL1   C14 1940   2.486   4.865   9.629  0.0946 -0.2626  0.3219
   27CHL1   H14 1941   2.380   4.833   9.641 -0.3717  0.6619 -1.0573
   27CHL1   C15 1942   2.544   4.779   9.513  0.1002 -0.1372 -0.2301
   27CHL1  H15A 1943   2.654   4.765   9.525  0.2872 -0.6343 -2.1228
   27CHL1  H15B 1944   2.504   4.676   9.501 -1.0732  0.0604  1.5587
   27CHL1   C16 1945   2.496   4.855   9.383 -0.4589  0.1948  0.1722
   27CHL1  H16A 1946   2.581   4.884   9.317 -0.4818 -1.3367 -0.5754
   27CHL1  H16B 1947   2.430   4.784   9.329 -3.4005  1.1732  2.2535
   27CHL1   C17 1948   2.413   4.975   9.433 -0.7736  0.4109 -0.5835
   27CHL1   H17 1949   2.306   4.948   9.447 -0.6417  0.6075  0.8907
   27CHL1   C13 1950   2.468   5.005   9.571 -0.0570  0.1169  0.0276
   27CHL1   C18 1951   2.604   5.070   9.556  0.1753 -0.3532  0.8433
   27CHL1  H18A 1952   2.663   5.077   9.649  0.9047  1.0135  0.3117
   27CHL1  H18B 1953   2.657   5.042   9.462 -4.3309 -1.1935 -1.7613
   27CHL1  H18C 1954   2.585   5.177   9.534  1.3238 -1.0625 -5.4327
   27CHL1   C12 1955   2.380   5.087   9.668  0.0504 -0.6107 -0.1295
   27CHL1  H12A 1956   2.376   5.196   9.650 -0.1424 -0.4880  0.6258
   27CHL1  H12B 1957   2.275   5.049   9.670  0.0530 -0.8470 -2.0672
   27CHL1   C11 1958   2.431   5.075   9.809 -0.4571  0.6014 -0.1411
   27CHL1  H11A 1959   2.526   5.131   9.817  0.0966 -0.2608 -0.5408
   27CHL1  H11B 1960   2.358   5.131   9.872 -1.7401  0.4270 -1.3963
   27CHL1    C9 1961   2.456   4.932   9.870 -0.1429  0.1772  0.7196
   27CHL1    H9 1962   2.356   4.886   9.858 -0.6484  1.5961 -1.0802
   27CHL1   C10 1963   2.502   4.919  10.014  0.2414  0.1892 -0.9930
   27CHL1   C19 1964   2.615   5.018  10.036 -0.1867 -0.7045  0.1868
   27CHL1  H19A 1965   2.690   5.017   9.954 -0.8728  1.6098 -0.5481
   27CHL1  H19B 1966   2.579   5.123  10.048  0.3699 -0.5302  0.3285
   27CHL1  H19C 1967   2.662   5.001  10.135 -3.6936  0.2289  2.1770
   27CHL1    C1 1968   2.383   4.941  10.113 -0.4481  0.6546  0.2525
   27CHL1   H1A 1969   2.344   5.043  10.092  0.8216  1.0628 -0.2042
   27CHL1   H1B 1970   2.303   4.871  10.083  0.7245 -0.9168  0.6591
   27CHL1    C2 1971   2.413   4.919  10.262 -0.0603 -0.1107  0.5088
   27CHL1   H2A 1972   2.315   4.933  10.313  1.0452  4.5639  1.9031
   27CHL1   H2B 1973   2.476   4.997  10.312 -0.7414 -0.1547  1.4678
   27CHL1   C20 1974   2.423   5.085   9.328 -0.0573  0.1356 -0.1460
   27CHL1   H20 1975   2.527   5.120   9.316  0.3235 -0.0483  2.1323
   27CHL1   C21 1976   2.338   5.203   9.375 -0.4229 -0.1533 -0.6931
   27CHL1  H21A 1977   2.250   5.167   9.432 -0.6643 -1.5172 -1.8850
   27CHL1  H21B 1978   2.302   5.263   9.288  1.3481  1.9512 -0.0788
   27CHL1  H21C 1979   2.405   5.271   9.432 -0.8326 -0.7998  0.5781
   27CHL1   C22 1980   2.378   5.029   9.192  0.1800 -0.6182 -0.3922
   27CHL1  H22A 1981   2.430   4.933   9.170  1.6859 -0.0394  0.4527
   27CHL1  H22B 1982   2.269   5.013   9.205  0.2717 -0.2277  1.0586
   27CHL1   C23 1983   2.402   5.128   9.081  0.0070 -0.0458 -0.4671
   27CHL1  H23A 1984   2.343   5.222   9.077  1.0027  0.6895  0.9449
   27CHL1  H23B 1985   2.504   5.171   9.093 -0.7038  1.4725  0.5910
   27CHL1   C24 1986   2.394   5.064   8.939  0.3633 -0.0859  0.3826
   27CHL1  H24A 1987   2.480   4.995   8.937  0.5372  0.1238  0.5238
   27CHL1  H24B 1988   2.302   5.001   8.941  1.8292 -2.3232  1.0535
   27CHL1   C25 1989   2.391   5.166   8.824  0.3539 -0.5271 -0.0314
   27CHL1   H25 1990   2.322   5.247   8.856  1.1195  0.9188 -1.8391
   27CHL1   C26 1991   2.528   5.232   8.791  0.5112  0.0702 -0.0601
   27CHL1  H26A 1992   2.591   5.155   8.744  0.5433  0.5433 -0.8095
   27CHL1  H26B 1993   2.513   5.325   8.731 -1.9092 -0.7386 -0.8508
   27CHL1  H26C 1994   2.577   5.266   8.885 -0.0919  1.0826 -0.0903
   27CHL1   C27 1995   2.316   5.110   8.707 -0.0081 -0.0475  0.8222
   27CHL1  H27A 1996   2.262   5.186   8.646 -1.2155 -1.1534  0.4566
   27CHL1  H27B 1997   2.384   5.048   8.644 -0.3065 -0.5688  1.0110
   27CHL1  H27C 1998   2.241   5.039   8.748  1.7169 -3.1136 -0.9317
   28CHL1    C3 1999   1.686   1.892  10.089  0.0181 -0.1933  0.0296
   28CHL1    H3 2000   1.788   1.911  10.051 -0.5878  0.7419 -1.2077
   28CHL1    O3 2001   1.676   1.915  10.224  0.5767  0.8544 -0.2986
   28CHL1   H3' 2002   1.737   1.850  10.259 -1.2175  0.1467  1.7409
   28CHL1    C4 2003   1.595   2.001  10.016 -0.1808  0.6491  0.2265
   28CHL1   H4A 2004   1.494   2.007  10.061 -0.1071  0.6933  0.3894
   28CHL1   H4B 2005   1.649   2.095  10.042  1.3983  0.0761 -0.8086
   28CHL1    C5 2006   1.589   1.971   9.868 -0.0709 -0.5242  0.7217
   28CHL1    C6 2007   1.625   2.066   9.780 -0.0940  0.4273 -0.1310
   28CHL1    H6 2008   1.676   2.156   9.817  1.6031 -0.5119 -0.0854
   28CHL1    C7 2009   1.618   2.045   9.627  0.6345  0.7541  0.0656
   28CHL1   H7A 2010   1.583   2.137   9.575 -0.1688 -1.2535 -3.2488
   28CHL1   H7B 2011   1.712   2.014   9.577 -0.8911 -3.8925 -0.3873
   28CHL1    C8 2012   1.514   1.937   9.587 -0.2121 -0.4499  0.7436
   28CHL1    H8 2013   1.409   1.970   9.600  0.0346 -0.1602  2.1664
   28CHL1   C14 2014   1.528   1.906   9.433 -0.0010  0.1633  0.5154
   28CHL1   H14 2015   1.633   1.872   9.415  0.7239  0.9540  2.9009
   28CHL1   C15 2016   1.507   2.018   9.324  0.1676  0.4487 -0.3497
   28CHL1  H15A 2017   1.419   2.078   9.355  0.8520 -0.1815  3.3773
   28CHL1  H15B 2018   1.591   2.090   9.317 -0.2068  0.8302 -0.9527
   28CHL1   C16 2019   1.483   1.940   9.197  0.2301  0.3759  0.4577
   28CHL1  H16A 2020   1.384   1.985   9.173  0.4908  0.7015 -0.0180
   28CHL1  H16B 2021   1.548   1.968   9.112 -2.5472 -1.3703 -2.4826
   28CHL1   C17 2022   1.483   1.786   9.233  0.1763 -0.4671  0.0305
   28CHL1   H17 2023   1.584   1.741   9.223  0.1155 -0.8571  1.0328
   28CHL1   C13 2024   1.447   1.785   9.389 -0.7353 -1.1479  0.0962
   28CHL1   C18 2025   1.294   1.821   9.410 -0.1013 -0.1001 -0.0111
   28CHL1  H18A 2026   1.236   1.738   9.363  0.8358  0.4488 -2.2812
   28CHL1  H18B 2027   1.267   1.837   9.516  0.3147  2.3852 -0.2188
   28CHL1  H18C 2028   1.266   1.917   9.361  0.5191  0.4252  0.6403
   28CHL1   C12 2029   1.484   1.666   9.470 -0.1026 -0.1199 -0.2604
   28CHL1  H12A 2030   1.432   1.573   9.440 -0.9123  0.1431  0.2913
   28CHL1  H12B 2031   1.591   1.640   9.456 -0.5611 -2.0451 -0.4350
   28CHL1   C11 2032   1.471   1.688   9.624 -0.2527  0.2534  0.9435
   28CHL1  H11A 2033   1.363   1.678   9.647 -0.7363  0.6391 -0.9908
   28CHL1  H11B 2034   1.533   1.601   9.654  0.4363 -0.2811 -1.7979
   28CHL1    C9 2035   1.539   1.813   9.673 -0.4341  1.0330 -0.9437
   28CHL1    H9 2036   1.646   1.786   9.656 -0.5951 -0.0874 -0.3308
   28CHL1   C10 2037   1.529   1.836   9.828 -0.0436 -0.2529 -0.4085
   28CHL1   C19 2038   1.377   1.835   9.854 -0.6501  0.1593 -0.1057
   28CHL1  H19A 2039   1.334   1.734   9.840 -0.5182  0.1072 -0.1352
   28CHL1  H19B 2040   1.358   1.861   9.961 -2.1407 -0.0450 -0.3002
   28CHL1  H19C 2041   1.311   1.901   9.794  2.3865  2.2777 -1.3322
   28CHL1    C1 2042   1.598   1.729   9.910  0.2645  0.2606 -0.0955
   28CHL1   H1A 2043   1.529   1.642   9.904  0.1151  0.4303 -1.0272
   28CHL1   H1B 2044   1.688   1.693   9.857  0.8606  1.4311  0.1004
   28CHL1    C2 2045   1.626   1.754  10.060  0.0763 -0.3895 -0.1839
   28CHL1   H2A 2046   1.681   1.674  10.114 -0.5496 -1.4628 -1.0879
   28CHL1   H2B 2047   1.525   1.750  10.105 -0.3447 -1.2101 -1.1493
   28CHL1   C20 2048   1.391   1.711   9.137 -0.1331  0.5422  0.6687
   28CHL1   H20 2049   1.284   1.729   9.161 -0.7786 -0.8266 -1.0064
   28CHL1   C21 2050   1.414   1.561   9.142 -0.2132 -0.5739  0.0732
   28CHL1  H21A 2051   1.333   1.506   9.090  1.1562  0.6608 -3.7183
   28CHL1  H21B 2052   1.392   1.525   9.245  0.4482 -0.9647  0.0806
   28CHL1  H21C 2053   1.513   1.533   9.102 -0.0498  0.3638 -0.2008
   28CHL1   C22 2054   1.422   1.754   8.991  0.0593  0.4991 -0.1727
   28CHL1  H22A 2055   1.411   1.863   8.971 -2.1947  0.3617  0.0552
   28CHL1  H22B 2056   1.528   1.733   8.966  0.4620  0.7156  1.3022
   28CHL1   C23 2057   1.331   1.683   8.886  0.3416  0.6487  0.4206
   28CHL1  H23A 2058   1.349   1.573   8.891 -0.6445  0.5016  1.2180
   28CHL1  H23B 2059   1.223   1.701   8.906 -0.8465 -2.5055 -2.2870
   28CHL1   C24 2060   1.361   1.712   8.740  0.0119  0.2759 -0.7712
   28CHL1  H24A 2061   1.323   1.814   8.720 -1.8143 -0.2030  0.0623
   28CHL1  H24B 2062   1.472   1.721   8.735  0.0992 -0.1448  0.0801
   28CHL1   C25 2063   1.311   1.612   8.637  0.0463 -0.0155  0.0271
   28CHL1   H25 2064   1.362   1.513   8.642 -0.7609 -0.4607 -0.3638
   28CHL1   C26 2065   1.162   1.584   8.648 -0.3335  0.2000 -0.1360
   28CHL1  H26A 2066   1.107   1.677   8.621  0.1999  1.1312  1.8120
   28CHL1  H26B 2067   1.130   1.505   8.578  0.0883 -1.0702  1.0628
   28CHL1  H26C 2068   1.122   1.557   8.748 -1.3293  1.0102 -0.2993
   28CHL1   C27 2069   1.344   1.672   8.498 -0.6500  0.1042  0.0114
   28CHL1  H27A 2070   1.289   1.613   8.422  1.8066 -2.5924  0.1745
   28CHL1  H27B 2071   1.325   1.782   8.495  0.4792  0.3640  1.3346
   28CHL1  H27C 2072   1.448   1.660   8.461 -0.4347  0.0298  0.6323
   29CHL1    C3 2073   3.004   1.400   6.732 -0.7857  0.8726 -0.2702
   29CHL1    H3 2074   3.042   1.299   6.704 -0.6885  0.9912 -0.5671
   29CHL1    O3 2075   2.930   1.448   6.615  0.5316 -0.2289  0.0603
   29CHL1   H3' 2076   2.892   1.533   6.635  1.6603  0.5526 -1.0094
   29CHL1    C4 2077   2.905   1.397   6.843  0.6636 -0.1210  0.0042
   29CHL1   H4A 2078   2.853   1.495   6.848  0.8197  0.1349 -2.1133
   29CHL1   H4B 2079   2.819   1.332   6.819  1.3965 -0.8104 -0.8392
   29CHL1    C5 2080   2.967   1.370   6.975  0.1237  1.0050  0.2817
   29CHL1    C6 2081   2.929   1.279   7.060 -0.0377 -0.5063  0.4357
   29CHL1    H6 2082   2.840   1.225   7.024 -0.8761  0.6601  0.7105
   29CHL1    C7 2083   2.982   1.255   7.198 -0.3882  0.3208  0.1702
   29CHL1   H7A 2084   2.891   1.269   7.260 -0.0712  3.1845  0.1025
   29CHL1   H7B 2085   3.018   1.151   7.214  0.4882  0.6893  0.6067
   29CHL1    C8 2086   3.074   1.379   7.239  0.4994 -0.1398  0.2255
   29CHL1    H8 2087   3.013   1.466   7.271 -0.7716 -1.1465  0.5876
   29CHL1   C14 2088   3.156   1.329   7.362  0.1987 -0.3220  0.6160
   29CHL1   H14 2089   3.223   1.253   7.317 -0.5071  1.5348 -4.2014
   29CHL1   C15 2090   3.083   1.265   7.479  0.0012  0.2428 -0.4316
   29CHL1  H15A 2091   2.989   1.324   7.494 -0.6310 -1.1330  1.2702
   29CHL1  H15B 2092   3.050   1.160   7.468  0.3721 -0.2109  2.1774
   29CHL1   C16 2093   3.182   1.284   7.599  0.1723  0.0230  0.0199
   29CHL1  H16A 2094   3.126   1.317   7.689 -1.3941 -0.6346 -0.6694
   29CHL1  H16B 2095   3.208   1.179   7.623  2.1376  0.2091 -1.0940
   29CHL1   C17 2096   3.301   1.365   7.548 -0.2717  0.9304  0.8168
   29CHL1   H17 2097   3.361   1.282   7.505 -1.9553  1.2812 -2.5682
   29CHL1   C13 2098   3.245   1.438   7.423 -0.4365 -0.8522 -0.6126
   29CHL1   C18 2099   3.166   1.557   7.468 -0.1141  0.2313 -0.5369
   29CHL1  H18A 2100   3.088   1.540   7.545  0.6589 -2.1226 -0.1732
   29CHL1  H18B 2101   3.219   1.652   7.489  0.3160 -0.1843  0.3028
   29CHL1  H18C 2102   3.112   1.591   7.378  0.0208 -0.1998 -0.7864
   29CHL1   C12 2103   3.347   1.482   7.316  0.5744 -0.6116 -0.0971
   29CHL1  H12A 2104   3.399   1.570   7.359 -0.2872  1.3706 -2.8467
   29CHL1  H12B 2105   3.416   1.398   7.294  1.2393  0.2161 -1.2847
   29CHL1   C11 2106   3.275   1.522   7.185  0.1495  0.0962  0.1119
   29CHL1  H11A 2107   3.231   1.623   7.198  0.0185  0.1222 -0.5226
   29CHL1  H11B 2108   3.352   1.523   7.105 -1.4038  1.2382 -1.4432
   29CHL1    C9 2109   3.164   1.422   7.129 -0.8108 -0.2112 -0.6906
   29CHL1    H9 2110   3.218   1.328   7.103  0.6779 -0.1144  1.7493
   29CHL1   C10 2111   3.089   1.466   7.003  0.4011  0.4045 -0.2796
   29CHL1   C19 2112   3.035   1.605   7.023 -0.1136 -0.5444 -0.0094
   29CHL1  H19A 2113   2.949   1.608   7.093  0.1716 -1.3863  0.3975
   29CHL1  H19B 2114   3.104   1.688   7.050  0.1558  0.6940 -3.9692
   29CHL1  H19C 2115   3.005   1.657   6.930  1.9549  0.2610 -0.2851
   29CHL1    C1 2116   3.197   1.468   6.893  0.9825  0.7397 -0.4548
   29CHL1   H1A 2117   3.262   1.556   6.912  1.9394 -0.4548  2.2509
   29CHL1   H1B 2118   3.269   1.383   6.894  0.2314  0.0921  0.7577
   29CHL1    C2 2119   3.135   1.488   6.751  0.0239 -0.8281 -0.0659
   29CHL1   H2A 2120   3.208   1.469   6.670  3.6097 -0.9833  2.9196
   29CHL1   H2B 2121   3.104   1.594   6.740  2.1961 -0.2118 -0.6120
   29CHL1   C20 2122   3.389   1.453   7.636  0.2547 -0.0994 -0.2577
   29CHL1   H20 2123   3.405   1.549   7.582  1.1434 -0.7154 -1.1178
   29CHL1   C21 2124   3.527   1.396   7.634  0.2926 -0.5540 -0.4103
   29CHL1  H21A 2125   3.606   1.454   7.687  0.4441  0.2583 -1.5070
   29CHL1  H21B 2126   3.563   1.387   7.530  0.2388  2.1143 -0.7096
   29CHL1  H21C 2127   3.528   1.295   7.681 -0.2256 -0.2262  0.3396
   29CHL1   C22 2128   3.320   1.498   7.782 -0.3654  0.1346  0.2693
   29CHL1  H22A 2129   3.236   1.564   7.753 -1.2909 -1.2345 -0.2799
   29CHL1  H22B 2130   3.268   1.413   7.833 -0.7070  0.1949  0.0234
   29CHL1   C23 2131   3.414   1.564   7.890  0.3843  0.2866 -0.3760
   29CHL1  H23A 2132   3.502   1.501   7.915  1.4709  1.9800  0.2005
   29CHL1  H23B 2133   3.455   1.656   7.844 -0.0058 -0.0228 -1.3630
   29CHL1   C24 2134   3.348   1.596   8.026  0.2587  0.3136 -0.5556
   29CHL1  H24A 2135   3.250   1.646   8.015  1.2129  2.4235  0.0869
   29CHL1  H24B 2136   3.318   1.498   8.069  0.2315 -0.2292 -1.7465
   29CHL1   C25 2137   3.438   1.679   8.117 -0.4757  0.2458  0.0286
   29CHL1   H25 2138   3.540   1.645   8.089 -0.6764  0.6056 -1.1953
   29CHL1   C26 2139   3.427   1.829   8.097  0.1018 -0.4042  0.3841
   29CHL1  H26A 2140   3.323   1.865   8.112  0.3085  0.3749 -0.0172
   29CHL1  H26B 2141   3.501   1.886   8.157  0.0398  1.3397 -1.1151
   29CHL1  H26C 2142   3.461   1.857   7.995 -0.8778  0.0088  0.1620
   29CHL1   C27 2143   3.414   1.652   8.269  0.3531 -0.4382  0.5203
   29CHL1  H27A 2144   3.487   1.707   8.333  0.5239 -0.2495  0.1692
   29CHL1  H27B 2145   3.311   1.687   8.292  0.4484 -0.8708  1.6510
   29CHL1  H27C 2146   3.418   1.544   8.295 -2.3002 -0.0139  3.1658
   30CHL1    C3 2147   0.210   5.848   7.176 -0.7338  0.3652  0.7589
   30CHL1    H3 2148   0.224   5.749   7.224 -0.6670 -0.0323 -0.0584
   30CHL1    O3 2149   0.154   5.828   7.049  0.5987  0.0108 -0.0791
   30CHL1   H3' 2150   0.123   5.916   7.025 -0.1252 -0.3726 -0.5559
   30CHL1    C4 2151   0.133   5.950   7.255 -0.2735 -0.6070  0.4077
   30CHL1   H4A 2152   0.115   6.045   7.200  0.1683  0.3617  1.8596
   30CHL1   H4B 2153   0.036   5.900   7.274 -1.9753  2.7368  1.3359
   30CHL1    C5 2154   0.188   5.983   7.388 -0.6443 -0.1067  0.2991
   30CHL1    C6 2155   0.125   5.968   7.503  0.0693  0.1349 -0.1136
   30CHL1    H6 2156   0.022   5.930   7.494  0.1467  0.1361 -1.1805
   30CHL1    C7 2157   0.171   6.000   7.637 -0.0720  0.1547 -0.3145
   30CHL1   H7A 2158   0.094   6.051   7.700 -2.2334 -0.7978 -2.0373
   30CHL1   H7B 2159   0.190   5.901   7.685 -0.2228  0.6809  0.8593
   30CHL1    C8 2160   0.298   6.082   7.634  0.2222 -0.2327  0.1699
   30CHL1    H8 2161   0.280   6.192   7.628  1.5203  0.1442  2.1978
   30CHL1   C14 2162   0.366   6.072   7.765 -0.2206  0.8561  0.1554
   30CHL1   H14 2163   0.394   5.967   7.786 -4.8471 -0.8964 -1.2475
   30CHL1   C15 2164   0.289   6.125   7.884  0.0579  0.0372  0.6441
   30CHL1  H15A 2165   0.227   6.216   7.872  2.0915  1.9209  3.1983
   30CHL1  H15B 2166   0.230   6.039   7.922 -2.3888  1.6946  0.7923
   30CHL1   C16 2167   0.396   6.166   7.989  0.2914  0.6688  0.7354
   30CHL1  H16A 2168   0.384   6.270   8.024 -1.7376  1.2137 -1.3201
   30CHL1  H16B 2169   0.403   6.099   8.078  0.9586  0.2855  0.4055
   30CHL1   C17 2170   0.536   6.144   7.927  0.1372  0.3929 -0.7436
   30CHL1   H17 2171   0.569   6.040   7.947 -0.8485  0.1594 -0.2582
   30CHL1   C13 2172   0.500   6.149   7.778 -0.1503  0.3508  0.5909
   30CHL1   C18 2173   0.494   6.294   7.733  0.4866  0.0189 -0.1862
   30CHL1  H18A 2174   0.456   6.311   7.629 -0.8509  2.1827  0.5729
   30CHL1  H18B 2175   0.438   6.352   7.810  0.3024 -1.5599  0.8990
   30CHL1  H18C 2176   0.590   6.349   7.733  0.5257 -0.0443  0.4169
   30CHL1   C12 2177   0.605   6.084   7.674  1.1364  1.1033  0.3007
   30CHL1  H12A 2178   0.704   6.134   7.687  1.2088  1.1747 -0.4559
   30CHL1  H12B 2179   0.623   5.977   7.696  0.0345  0.8298 -0.0620
   30CHL1   C11 2180   0.548   6.092   7.530 -0.1288 -0.4539 -0.4322
   30CHL1  H11A 2181   0.562   6.196   7.493 -2.1795  0.1283  0.2880
   30CHL1  H11B 2182   0.603   6.020   7.466  1.2346 -1.7924  2.0430
   30CHL1    C9 2183   0.400   6.032   7.526 -0.1435 -0.5995  0.2129
   30CHL1    H9 2184   0.423   5.926   7.549  1.7103 -0.0997  0.9035
   30CHL1   C10 2185   0.333   6.032   7.382  0.1206  0.2046 -0.0014
   30CHL1   C19 2186   0.329   6.172   7.323  0.5031  0.3166  0.2060
   30CHL1  H19A 2187   0.267   6.241   7.385  2.0863  1.8052  0.1927
   30CHL1  H19B 2188   0.432   6.212   7.316  0.4269  0.5626  0.4494
   30CHL1  H19C 2189   0.288   6.173   7.220 -2.4593  0.4690  1.2740
   30CHL1    C1 2190   0.422   5.941   7.285 -0.3145 -0.1122 -0.3634
   30CHL1   H1A 2191   0.522   5.986   7.265 -0.3634  0.4740  0.6516
   30CHL1   H1B 2192   0.443   5.846   7.337 -1.3887  0.0101  0.3225
   30CHL1    C2 2193   0.350   5.904   7.155 -0.4825  0.4615 -0.3742
   30CHL1   H2A 2194   0.411   5.826   7.105 -3.5006 -2.0335 -0.4884
   30CHL1   H2B 2195   0.344   6.001   7.100  1.1269  0.6778 -0.2066
   30CHL1   C20 2196   0.657   6.233   7.974  0.1259 -0.3800 -0.1074
   30CHL1   H20 2197   0.677   6.321   7.909 -0.4818  1.3326  1.8947
   30CHL1   C21 2198   0.776   6.139   7.987  0.2946 -0.6082 -0.4028
   30CHL1  H21A 2199   0.752   6.061   8.062 -3.2240  1.0903  0.4057
   30CHL1  H21B 2200   0.867   6.202   8.004 -0.5147  0.3949  0.3142
   30CHL1  H21C 2201   0.792   6.090   7.888  2.0692  2.5395 -1.8312
   30CHL1   C22 2202   0.628   6.295   8.110 -0.0876  0.1524 -0.7840
   30CHL1  H22A 2203   0.553   6.377   8.103 -0.5987  0.1845  3.1089
   30CHL1  H22B 2204   0.593   6.216   8.179  2.1326  0.9169  1.3688
   30CHL1   C23 2205   0.748   6.361   8.177  0.7362 -0.2804  0.4493
   30CHL1  H23A 2206   0.825   6.283   8.193  0.1604 -0.9452  0.0210
   30CHL1  H23B 2207   0.787   6.428   8.098 -0.5964  0.2456  0.2161
   30CHL1   C24 2208   0.717   6.452   8.297 -0.5158  0.1802 -0.3540
   30CHL1  H24A 2209   0.638   6.525   8.270 -0.6597  1.5808  3.3008
   30CHL1  H24B 2210   0.678   6.389   8.380  1.1213 -1.4810 -0.7684
   30CHL1   C25 2211   0.841   6.531   8.355  0.4564 -0.2883 -0.4377
   30CHL1   H25 2212   0.896   6.581   8.273 -0.2228  1.0980 -0.0688
   30CHL1   C26 2213   0.787   6.648   8.446 -0.7546 -0.1875 -0.3960
   30CHL1  H26A 2214   0.697   6.687   8.395  0.5431 -0.5159 -3.0970
   30CHL1  H26B 2215   0.765   6.604   8.546 -3.3005 -1.0375 -1.2430
   30CHL1  H26C 2216   0.850   6.739   8.450 -0.1124 -0.4984 -2.3586
   30CHL1   C27 2217   0.936   6.445   8.431 -0.4245 -0.5880  0.1630
   30CHL1  H27A 2218   0.883   6.402   8.518  0.7051  0.7928  1.5958
   30CHL1  H27B 2219   0.997   6.371   8.375  2.6377  2.4040 -0.7567
   30CHL1  H27C 2220   1.006   6.515   8.481  1.5949 -2.0624 -0.4843
   31CHL1    C3 2221   1.449   2.092   6.709 -0.5507 -0.4202  0.5191
   31CHL1    H3 2222   1.506   1.997   6.715 -0.7278 -0.4674  1.7490
   31CHL1    O3 2223   1.478   2.144   6.578 -0.0261  0.3079 -0.4065
   31CHL1   H3' 2224   1.538   2.217   6.597 -0.0206  0.8005 -2.1712
   31CHL1    C4 2225   1.303   2.059   6.723 -0.1811  0.3022  0.5251
   31CHL1   H4A 2226   1.237   2.148   6.710 -0.8633 -0.0144  1.6327
   31CHL1   H4B 2227   1.268   1.981   6.653 -2.1340  0.3361  1.3915
   31CHL1    C5 2228   1.279   2.000   6.860 -0.4718  0.3875 -0.5088
   31CHL1    C6 2229   1.246   1.867   6.878 -0.4949  0.5383 -0.4433
   31CHL1    H6 2230   1.228   1.810   6.785 -0.2378 -0.1490 -0.0766
   31CHL1    C7 2231   1.225   1.804   7.014  0.3457 -1.0272 -0.6351
   31CHL1   H7A 2232   1.138   1.737   7.024 -0.5148 -0.2464 -2.4582
   31CHL1   H7B 2233   1.315   1.746   7.046 -0.5177 -1.6282  0.8315
   31CHL1    C8 2234   1.200   1.911   7.120  0.0145  0.3608 -0.3154
   31CHL1    H8 2235   1.099   1.954   7.105 -0.4844 -1.0525 -1.1994
   31CHL1   C14 2236   1.201   1.833   7.258 -0.1847 -0.4430 -0.6264
   31CHL1   H14 2237   1.305   1.797   7.272  1.0823  3.2959  0.7685
   31CHL1   C15 2238   1.112   1.709   7.293  0.5873  0.3872  0.6219
   31CHL1  H15A 2239   1.013   1.741   7.251  1.7810  1.0008 -1.9253
   31CHL1  H15B 2240   1.151   1.619   7.241  1.9812  1.4319 -0.2190
   31CHL1   C16 2241   1.116   1.696   7.443 -0.2426  0.3449  0.3121
   31CHL1  H16A 2242   1.015   1.693   7.488 -0.2947  0.5719  0.2057
   31CHL1  H16B 2243   1.176   1.607   7.474  1.7651  0.1031 -3.5866
   31CHL1   C17 2244   1.194   1.822   7.494  0.2056 -0.0331  0.0713
   31CHL1   H17 2245   1.298   1.787   7.507  0.2437 -0.4816 -1.2812
   31CHL1   C13 2246   1.194   1.923   7.384  0.6541 -0.0357  0.0613
   31CHL1   C18 2247   1.053   1.990   7.383 -0.3791 -0.0927 -0.2712
   31CHL1  H18A 2248   1.033   2.036   7.284 -1.5794  1.5544  0.6851
   31CHL1  H18B 2249   0.967   1.926   7.411 -1.2762  0.8703 -0.7879
   31CHL1  H18C 2250   1.055   2.080   7.448  0.1270 -0.1177 -0.2453
   31CHL1   C12 2251   1.307   2.030   7.372 -0.6724  0.4910 -0.1530
   31CHL1  H12A 2252   1.293   2.105   7.453 -1.3097  0.2685 -0.0492
   31CHL1  H12B 2253   1.409   1.987   7.385 -1.7130 -1.7578  1.2008
   31CHL1   C11 2254   1.313   2.111   7.237 -0.3431 -0.3821 -0.0136
   31CHL1  H11A 2255   1.230   2.184   7.239 -0.8521 -0.9294 -0.7699
   31CHL1  H11B 2256   1.414   2.157   7.243  0.9689 -2.6863 -2.3881
   31CHL1    C9 2257   1.306   2.026   7.107  0.3757  0.5958 -0.5247
   31CHL1    H9 2258   1.397   1.964   7.107 -0.1632 -0.2078 -0.5928
   31CHL1   C10 2259   1.308   2.097   6.974 -0.6482 -0.4965  0.9527
   31CHL1   C19 2260   1.206   2.209   6.979 -0.1311 -0.1703 -0.4374
   31CHL1  H19A 2261   1.181   2.257   6.882  0.6365 -1.6393 -1.3997
   31CHL1  H19B 2262   1.112   2.165   7.019 -1.2847  2.0171 -0.5661
   31CHL1  H19C 2263   1.244   2.276   7.059 -0.6167  0.2042 -0.5105
   31CHL1    C1 2264   1.452   2.158   6.953 -0.1865  0.2214  0.3932
   31CHL1   H1A 2265   1.458   2.250   7.015  1.3895 -0.1853  0.8744
   31CHL1   H1B 2266   1.534   2.090   6.982  1.4186  1.9071 -0.0090
   31CHL1    C2 2267   1.482   2.204   6.808  0.1765 -0.2235  0.0162
   31CHL1   H2A 2268   1.589   2.232   6.809  0.5395 -1.4311  2.2355
   31CHL1   H2B 2269   1.427   2.297   6.783 -0.4598 -0.6398 -0.1588
   31CHL1   C20 2270   1.159   1.874   7.637 -0.4300  0.3756  0.5642
   31CHL1   H20 2271   1.056   1.915   7.645 -0.9757 -0.9099  0.3754
   31CHL1   C21 2272   1.265   1.978   7.696  0.2883  0.0053 -0.1334
   31CHL1  H21A 2273   1.368   1.948   7.668  1.4642  2.0838  1.6462
   31CHL1  H21B 2274   1.256   1.978   7.807 -0.7987  1.0903 -0.2037
   31CHL1  H21C 2275   1.252   2.079   7.653  0.6489 -0.1286 -0.5641
   31CHL1   C22 2276   1.154   1.754   7.736  0.2986 -0.0911 -0.0380
   31CHL1  H22A 2277   1.109   1.795   7.829 -1.1334 -0.0361 -0.7167
   31CHL1  H22B 2278   1.081   1.681   7.696 -0.6535  1.4195 -1.2074
   31CHL1   C23 2279   1.290   1.693   7.781  0.2632 -0.1612  1.2596
   31CHL1  H23A 2280   1.354   1.684   7.691  0.2135  2.8594  0.8275
   31CHL1  H23B 2281   1.331   1.769   7.850 -1.3054  0.6541  1.3473
   31CHL1   C24 2282   1.266   1.565   7.875 -0.1006 -0.2150  0.3452
   31CHL1  H24A 2283   1.213   1.482   7.824  1.2386 -1.0719  0.2767
   31CHL1  H24B 2284   1.363   1.518   7.900 -0.5574 -1.6027 -0.3819
   31CHL1   C25 2285   1.190   1.588   8.013 -0.9685  0.2014 -0.0188
   31CHL1   H25 2286   1.091   1.627   7.983 -0.6990  0.5505 -0.4638
   31CHL1   C26 2287   1.185   1.457   8.090  0.3517 -0.6992 -0.2208
   31CHL1  H26A 2288   1.157   1.371   8.027 -0.2684  0.2919 -1.3254
   31CHL1  H26B 2289   1.288   1.438   8.129  1.4231 -1.6471 -3.2598
   31CHL1  H26C 2290   1.128   1.455   8.186  0.8818 -0.7690  0.0996
   31CHL1   C27 2291   1.254   1.693   8.111  0.1043 -0.4884  0.0559
   31CHL1  H27A 2292   1.235   1.798   8.078  0.5827 -0.2160  0.6291
   31CHL1  H27B 2293   1.364   1.684   8.121  0.2906  1.5188  0.2645
   31CHL1  H27C 2294   1.213   1.688   8.214  1.3797  0.1725  0.6245
   32CHL1    C3 2295   2.474   5.655   7.026  0.4587 -0.1583 -0.3897
   32CHL1    H3 2296   2.538   5.744   7.045 -0.0564  0.3244 -0.8742
   32CHL1    O3 2297   2.435   5.638   6.893  0.1053  0.1884 -0.3600
   32CHL1   H3' 2298   2.347   5.601   6.903  0.1989 -0.3864 -1.5206
   32CHL1    C4 2299   2.563   5.539   7.058 -0.0828 -0.2581 -0.3214
   32CHL1   H4A 2300   2.519   5.440   7.032 -0.8621 -0.2882  1.0152
   32CHL1   H4B 2301   2.650   5.544   6.990 -2.3439 -1.1071 -3.5318
   32CHL1    C5 2302   2.608   5.535   7.206  0.3004  0.1042  0.5779
   32CHL1    C6 2303   2.738   5.514   7.245 -0.1546  0.1052  0.0228
   32CHL1    H6 2304   2.815   5.487   7.171  0.9671 -0.1040  1.2091
   32CHL1    C7 2305   2.788   5.528   7.386  0.0863  0.5549 -0.5020
   32CHL1   H7A 2306   2.858   5.442   7.391 -1.9674 -1.2089 -0.3724
   32CHL1   H7B 2307   2.856   5.616   7.380 -2.0164  2.1804 -2.7142
   32CHL1    C8 2308   2.682   5.514   7.493  0.9077 -0.6140  0.1777
   32CHL1    H8 2309   2.648   5.408   7.493 -1.4618  0.0743 -0.9353
   32CHL1   C14 2310   2.733   5.574   7.628  0.3955  0.3190  0.0976
   32CHL1   H14 2311   2.749   5.682   7.608  1.3245  0.4790  1.4937
   32CHL1   C15 2312   2.856   5.513   7.684 -0.6243 -0.7723 -0.2365
   32CHL1  H15A 2313   2.867   5.405   7.664  1.4670 -0.9881  1.7182
   32CHL1  H15B 2314   2.943   5.554   7.628 -1.2000  0.7938 -0.0528
   32CHL1   C16 2315   2.856   5.555   7.833  0.0558 -0.7238 -0.3539
   32CHL1  H16A 2316   2.869   5.466   7.897 -1.5688 -0.8754 -0.1986
   32CHL1  H16B 2317   2.934   5.632   7.853  0.0237 -0.9372  0.6535
   32CHL1   C17 2318   2.713   5.621   7.861 -0.9782  0.0836 -0.7068
   32CHL1   H17 2319   2.718   5.731   7.847 -2.0068  1.0576  4.4546
   32CHL1   C13 2320   2.626   5.567   7.743  0.0269  0.4905 -0.2453
   32CHL1   C18 2321   2.588   5.417   7.781 -1.0756 -0.4270 -0.4699
   32CHL1  H18A 2322   2.512   5.406   7.861 -0.8162 -1.3950 -0.3343
   32CHL1  H18B 2323   2.552   5.364   7.689 -0.6874 -0.2756 -0.7135
   32CHL1  H18C 2324   2.671   5.357   7.825 -0.8051  0.5158  0.3433
   32CHL1   C12 2325   2.513   5.647   7.702  0.2757 -0.3946  0.1371
   32CHL1  H12A 2326   2.437   5.649   7.783 -0.0980  1.6159 -0.1930
   32CHL1  H12B 2327   2.542   5.754   7.689 -0.1760 -0.2733  0.0874
   32CHL1   C11 2328   2.453   5.599   7.573  0.8145  0.3206  0.4489
   32CHL1  H11A 2329   2.412   5.497   7.590  0.3503  0.3669 -0.3219
   32CHL1  H11B 2330   2.369   5.667   7.546  0.7749 -0.4817 -1.6328
   32CHL1    C9 2331   2.552   5.591   7.455  0.0229  0.4393  0.4080
   32CHL1    H9 2332   2.594   5.691   7.431 -0.8769  0.5069 -1.0032
   32CHL1   C10 2333   2.501   5.559   7.311  0.0474  0.7115  0.3438
   32CHL1   C19 2334   2.420   5.421   7.319 -0.4330 -0.6441 -0.2128
   32CHL1  H19A 2335   2.479   5.329   7.336 -2.1128 -1.5377  1.0465
   32CHL1  H19B 2336   2.347   5.420   7.402  0.3604 -2.2780  0.5087
   32CHL1  H19C 2337   2.366   5.393   7.226  2.0483 -1.5451 -1.4749
   32CHL1    C1 2338   2.398   5.669   7.270 -0.1524  0.7091  0.2556
   32CHL1   H1A 2339   2.317   5.677   7.345  0.5730  0.0884  1.1246
   32CHL1   H1B 2340   2.448   5.769   7.271 -1.6658  1.5095 -0.8010
   32CHL1    C2 2341   2.354   5.665   7.122 -0.2561 -0.1264  0.3415
   32CHL1   H2A 2342   2.304   5.761   7.095 -0.6130 -0.9693 -2.2867
   32CHL1   H2B 2343   2.283   5.581   7.103  0.6305 -0.4067 -2.1202
   32CHL1   C20 2344   2.662   5.585   8.010  0.0489 -0.0707  0.3034
   32CHL1   H20 2345   2.638   5.476   8.019 -0.6267  0.2114  3.1515
   32CHL1   C21 2346   2.529   5.664   8.035 -0.8194  0.2529  0.3479
   32CHL1  H21A 2347   2.443   5.607   7.994  1.3776 -3.2286  0.2283
   32CHL1  H21B 2348   2.539   5.773   8.012 -0.2412  0.3498  1.0373
   32CHL1  H21C 2349   2.509   5.664   8.144 -0.6263  0.0409  0.3841
   32CHL1   C22 2350   2.769   5.630   8.117  0.1237  0.3783 -0.4388
   32CHL1  H22A 2351   2.865   5.578   8.100  0.5791  0.5160  1.4829
   32CHL1  H22B 2352   2.789   5.739   8.105 -0.6244  0.7214  1.1570
   32CHL1   C23 2353   2.722   5.602   8.259 -0.4174 -0.1049  0.0991
   32CHL1  H23A 2354   2.636   5.671   8.277  0.5703  1.1372  0.2016
   32CHL1  H23B 2355   2.693   5.497   8.281 -0.9405 -0.2025 -0.9862
   32CHL1   C24 2356   2.832   5.636   8.361  0.1081  0.1177 -0.2747
   32CHL1  H24A 2357   2.904   5.552   8.356 -1.7116 -1.4554 -1.5732
   32CHL1  H24B 2358   2.890   5.726   8.332  3.8798 -2.4919 -1.5919
   32CHL1   C25 2359   2.773   5.651   8.501  0.2111 -0.2145  0.0789
   32CHL1   H25 2360   2.713   5.744   8.499 -0.7997 -0.8264 -2.9524
   32CHL1   C26 2361   2.671   5.544   8.546  0.1391  0.2129 -0.0855
   32CHL1  H26A 2362   2.600   5.533   8.462  0.8687 -0.9346 -0.5773
   32CHL1  H26B 2363   2.713   5.443   8.566 -1.0606 -0.7400 -2.1100
   32CHL1  H26C 2364   2.621   5.589   8.634  0.8008  0.5475  0.1263
   32CHL1   C27 2365   2.872   5.669   8.608 -0.4535 -0.4266  0.3077
   32CHL1  H27A 2366   2.830   5.696   8.708  2.0434 -0.1886  1.3728
   32CHL1  H27B 2367   2.929   5.575   8.621  1.9727  0.8364 -0.6832
   32CHL1  H27C 2368   2.945   5.745   8.574  0.1790 -1.5978 -1.0056
   33CHL1    C3 2369   2.940   0.751   6.747 -0.1684  0.3071 -0.4523
   33CHL1    H3 2370   3.049   0.768   6.756 -0.2849  0.9468 -0.1647
   33CHL1    O3 2371   2.923   0.700   6.608  0.0576  0.5473 -0.2741
   33CHL1   H3' 2372   2.833   0.666   6.608  0.4383 -0.4826 -0.7498
   33CHL1    C4 2373   2.895   0.643   6.847 -0.6851 -0.6059  0.5493
   33CHL1   H4A 2374   2.797   0.595   6.826 -0.7455 -0.4677  0.5187
   33CHL1   H4B 2375   2.960   0.555   6.822 -2.1812 -1.3346 -1.0016
   33CHL1    C5 2376   2.914   0.684   6.991  0.1149  0.3944 -0.3638
   33CHL1    C6 2377   2.997   0.615   7.077 -0.0934 -0.6620  0.1928
   33CHL1    H6 2378   3.066   0.537   7.040  1.5028  1.6174 -2.0474
   33CHL1    C7 2379   2.998   0.642   7.226 -0.1005  0.2860 -0.1806
   33CHL1   H7A 2380   2.985   0.552   7.289 -1.8717  1.0139  0.5842
   33CHL1   H7B 2381   3.096   0.685   7.256 -0.8890  1.3588  0.9854
   33CHL1    C8 2382   2.889   0.741   7.274 -0.0485  0.5630  0.0407
   33CHL1    H8 2383   2.795   0.682   7.278 -0.3969  1.1378  0.7434
   33CHL1   C14 2384   2.915   0.783   7.418 -0.2401  0.1426 -0.0676
   33CHL1   H14 2385   3.009   0.839   7.399 -0.3091 -0.5677 -3.0340
   33CHL1   C15 2386   2.949   0.684   7.527  0.0079  0.4249 -0.2437
   33CHL1  H15A 2387   2.864   0.613   7.529 -1.7294  2.2721 -2.2165
   33CHL1  H15B 2388   3.043   0.632   7.498 -0.1835  0.5470 -1.1232
   33CHL1   C16 2389   2.954   0.763   7.653  0.6383 -0.7687  0.0490
   33CHL1  H16A 2390   2.896   0.710   7.732 -1.3922  0.4514 -0.5450
   33CHL1  H16B 2391   3.057   0.784   7.689  0.2104  2.6230 -0.3446
   33CHL1   C17 2392   2.885   0.904   7.618  0.2064  0.1061 -0.3372
   33CHL1   H17 2393   2.965   0.977   7.590 -0.0208  1.6946  2.7964
   33CHL1   C13 2394   2.815   0.878   7.478  0.5036 -0.5289  0.6414
   33CHL1   C18 2395   2.673   0.817   7.503 -1.3323  0.5832 -0.2987
   33CHL1  H18A 2396   2.594   0.886   7.540 -2.0810 -0.2179 -0.3637
   33CHL1  H18B 2397   2.631   0.770   7.412 -1.4415  1.3347 -0.6481
   33CHL1  H18C 2398   2.677   0.740   7.583 -0.3549  0.7618 -0.1609
   33CHL1   C12 2399   2.797   0.999   7.378 -0.2341  0.1598  0.3905
   33CHL1  H12A 2400   2.721   1.071   7.416  0.2508  1.0447 -0.2700
   33CHL1  H12B 2401   2.898   1.042   7.361 -0.1231 -0.1797  0.2051
   33CHL1   C11 2402   2.762   0.955   7.236  0.4598  0.0647 -0.3327
   33CHL1  H11A 2403   2.667   0.899   7.245  1.4614 -1.4205  1.9810
   33CHL1  H11B 2404   2.754   1.037   7.162  0.9411 -0.3694 -0.8778
   33CHL1    C9 2405   2.863   0.852   7.177 -0.0967 -0.0853 -0.1057
   33CHL1    H9 2406   2.961   0.899   7.156 -0.2863 -0.1853 -1.3427
   33CHL1   C10 2407   2.827   0.795   7.036  0.1446 -0.2818  0.5482
   33CHL1   C19 2408   2.686   0.742   7.025  0.5870 -0.0803 -0.5997
   33CHL1  H19A 2409   2.614   0.816   7.065  1.1039  1.5612 -2.5471
   33CHL1  H19B 2410   2.660   0.719   6.920  2.7388  1.2666 -1.4876
   33CHL1  H19C 2411   2.679   0.662   7.103  1.1866  0.0304 -0.4215
   33CHL1    C1 2412   2.846   0.909   6.934 -0.6175 -0.2454  0.3833
   33CHL1   H1A 2413   2.755   0.973   6.939  0.2144  0.9160  1.2982
   33CHL1   H1B 2414   2.938   0.968   6.952 -2.4444  2.5942  1.0798
   33CHL1    C2 2415   2.854   0.876   6.784 -0.3221 -0.2653  0.0968
   33CHL1   H2A 2416   2.893   0.967   6.734  0.7419 -0.6040  0.2976
   33CHL1   H2B 2417   2.749   0.852   6.755 -0.3147  0.5457 -0.6373
   33CHL1   C20 2418   2.804   0.967   7.741  0.2437 -1.2954  0.3089
   33CHL1   H20 2419   2.713   0.909   7.767  0.7162 -1.2807  2.1272
   33CHL1   C21 2420   2.765   1.107   7.696  0.5311  0.2079  0.4524
   33CHL1  H21A 2421   2.706   1.106   7.602  1.5072  0.6161 -0.1799
   33CHL1  H21B 2422   2.847   1.180   7.680  0.0236  0.6721 -0.0789
   33CHL1  H21C 2423   2.690   1.140   7.771 -0.0182  0.0274 -0.0054
   33CHL1   C22 2424   2.901   0.971   7.860  0.4663  0.3158  0.0239
   33CHL1  H22A 2425   2.934   0.869   7.889  0.6595  0.7113  1.2777
   33CHL1  H22B 2426   2.991   1.032   7.838  2.7911 -2.1372  2.0686
   33CHL1   C23 2427   2.855   1.044   7.984  0.3304  0.2613  0.0991
   33CHL1  H23A 2428   2.842   1.152   7.962  1.9842  0.5437  0.3854
   33CHL1  H23B 2429   2.763   0.993   8.022 -0.3759  1.5170  0.1234
   33CHL1   C24 2430   2.951   1.044   8.099 -1.0914 -0.0431 -0.5469
   33CHL1  H24A 2431   2.973   0.937   8.123  0.8691  0.5281  0.3924
   33CHL1  H24B 2432   3.049   1.089   8.073 -0.2521 -0.0229  2.2887
   33CHL1   C25 2433   2.907   1.115   8.224  0.0882  0.8912  0.0687
   33CHL1   H25 2434   2.811   1.074   8.264  0.6545  1.3724  2.0309
   33CHL1   C26 2435   3.004   1.098   8.345 -0.0250 -1.0482 -0.4147
   33CHL1  H26A 2436   2.975   1.166   8.428  1.2834 -0.5678 -0.3214
   33CHL1  H26B 2437   3.014   0.995   8.386  1.7265  0.0939  2.3297
   33CHL1  H26C 2438   3.108   1.131   8.322  0.0204 -0.5657  0.4347
   33CHL1   C27 2439   2.872   1.267   8.207 -0.3045  0.7515 -0.2752
   33CHL1  H27A 2440   2.953   1.330   8.164  0.9928 -0.4568  0.3517
   33CHL1  H27B 2441   2.784   1.271   8.139 -0.8933  0.1776  0.4352
   33CHL1  H27C 2442   2.845   1.322   8.300  1.6583  1.8846 -0.3141
   34CHL1    C3 2443   3.533   5.728   7.062 -0.6598  0.6113  0.5468
   34CHL1    H3 2444   3.501   5.835   7.068 -0.4823  0.6456  0.9124
   34CHL1    O3 2445   3.525   5.665   6.933  0.6542 -0.3438  0.0266
   34CHL1   H3' 2446   3.587   5.701   6.868 -0.3144 -0.2636 -0.8851
   34CHL1    C4 2447   3.680   5.724   7.104  1.1206 -0.4311  0.4782
   34CHL1   H4A 2448   3.718   5.620   7.095 -1.2859 -1.4112  1.0080
   34CHL1   H4B 2449   3.737   5.790   7.034  0.1091 -0.9516 -0.8796
   34CHL1    C5 2450   3.694   5.767   7.250 -0.6263 -0.4302  1.1467
   34CHL1    C6 2451   3.779   5.862   7.283 -0.0444  0.1625 -0.4951
   34CHL1    H6 2452   3.847   5.901   7.205 -0.2979 -0.0662 -0.8294
   34CHL1    C7 2453   3.796   5.920   7.423  0.2869 -0.1645  0.2057
   34CHL1   H7A 2454   3.905   5.927   7.441  0.4369 -2.3255  0.4004
   34CHL1   H7B 2455   3.767   6.027   7.421  2.4939  0.5231  1.6336
   34CHL1    C8 2456   3.730   5.847   7.535 -0.0704 -0.3975  0.5032
   34CHL1    H8 2457   3.785   5.753   7.557  2.2916  0.0152 -2.8965
   34CHL1   C14 2458   3.723   5.935   7.661  0.3383  0.1559  0.9308
   34CHL1   H14 2459   3.666   6.024   7.627  1.7828  1.0801  0.8568
   34CHL1   C15 2460   3.863   5.983   7.712  0.1276 -0.3357 -0.5407
   34CHL1  H15A 2461   3.936   5.900   7.705  3.0505  1.5533  3.9372
   34CHL1  H15B 2462   3.901   6.067   7.650  0.1691 -1.0229 -1.4749
   34CHL1   C16 2463   3.838   6.018   7.860 -0.6681 -0.5230 -0.2523
   34CHL1  H16A 2464   3.904   5.964   7.931  1.6547  2.6546  0.2349
   34CHL1  H16B 2465   3.841   6.127   7.882 -0.2850 -0.5564 -0.1259
   34CHL1   C17 2466   3.686   5.973   7.883 -0.2950 -0.0499  0.1894
   34CHL1   H17 2467   3.623   6.061   7.859 -1.7487 -1.0800  0.1054
   34CHL1   C13 2468   3.650   5.864   7.776 -1.0211  0.1595  0.2409
   34CHL1   C18 2469   3.732   5.744   7.823 -0.5954  0.2706  0.1861
   34CHL1  H18A 2470   3.835   5.767   7.857  0.1234 -0.0752 -1.6409
   34CHL1  H18B 2471   3.688   5.692   7.911  1.4480 -0.5533  0.7722
   34CHL1  H18C 2472   3.730   5.678   7.734  2.2404  0.6386 -0.2232
   34CHL1   C12 2473   3.512   5.833   7.731  0.5538 -0.2267  0.4215
   34CHL1  H12A 2474   3.458   5.770   7.806  0.1508 -0.2000  0.1543
   34CHL1  H12B 2475   3.447   5.922   7.715 -1.0314 -1.8564 -3.4993
   34CHL1   C11 2476   3.504   5.745   7.602  0.2824 -0.4678 -0.1346
   34CHL1  H11A 2477   3.524   5.638   7.622 -0.7785 -0.6223  0.1680
   34CHL1  H11B 2478   3.396   5.753   7.579  0.2615  2.4655  0.5344
   34CHL1    C9 2479   3.590   5.807   7.484 -0.5178 -0.2543 -0.7158
   34CHL1    H9 2480   3.548   5.907   7.460  2.3886  1.4013  0.5905
   34CHL1   C10 2481   3.589   5.716   7.357 -1.0657  0.5958 -0.4030
   34CHL1   C19 2482   3.627   5.570   7.403  0.2156 -0.3490  0.0487
   34CHL1  H19A 2483   3.538   5.510   7.432 -0.2546 -0.1716 -0.9739
   34CHL1  H19B 2484   3.678   5.510   7.325 -0.3737  0.1168 -0.7125
   34CHL1  H19C 2485   3.699   5.574   7.487  2.1202 -0.2574 -1.5015
   34CHL1    C1 2486   3.448   5.710   7.295 -0.1220  0.5312  0.8355
   34CHL1   H1A 2487   3.393   5.647   7.369 -1.0596 -2.0908 -1.8761
   34CHL1   H1B 2488   3.398   5.807   7.274 -0.6013 -0.6056 -4.7957
   34CHL1    C2 2489   3.451   5.642   7.157  0.2602 -0.4895 -0.2040
   34CHL1   H2A 2490   3.347   5.629   7.119 -0.6828  3.4523  0.5786
   34CHL1   H2B 2491   3.499   5.542   7.166  2.0384  0.2088 -1.4268
   34CHL1   C20 2492   3.657   5.956   8.033  0.2203  0.3324  1.0194
   34CHL1   H20 2493   3.740   5.887   8.061  1.9475  2.5506  1.6675
   34CHL1   C21 2494   3.520   5.884   8.058  0.3484 -0.8302 -0.3068
   34CHL1  H21A 2495   3.440   5.955   8.027  0.8629  0.5932  1.4803
   34CHL1  H21B 2496   3.498   5.852   8.162  1.0093 -1.5258 -0.3710
   34CHL1  H21C 2497   3.512   5.786   8.007 -0.8852 -2.1368  2.2291
   34CHL1   C22 2498   3.660   6.085   8.119 -0.1797 -0.0521 -0.2010
   34CHL1  H22A 2499   3.699   6.172   8.062 -0.1942 -0.3164 -0.6166
   34CHL1  H22B 2500   3.554   6.112   8.143  0.7090  1.4725  2.4321
   34CHL1   C23 2501   3.731   6.074   8.252 -0.2009  0.5361 -0.0739
   34CHL1  H23A 2502   3.697   5.985   8.310  0.3065  2.8037  4.1416
   34CHL1  H23B 2503   3.837   6.049   8.230 -0.6968 -0.7478 -1.1680
   34CHL1   C24 2504   3.722   6.197   8.337  0.7495 -0.0301  1.0621
   34CHL1  H24A 2505   3.727   6.289   8.276 -1.5135  1.1596  2.5310
   34CHL1  H24B 2506   3.618   6.194   8.376  0.9302 -1.3923  1.4954
   34CHL1   C25 2507   3.805   6.197   8.463  0.6564  0.2232  0.4890
   34CHL1   H25 2508   3.906   6.168   8.426  0.5310 -0.7530  0.8665
   34CHL1   C26 2509   3.825   6.342   8.515  0.5688  0.3575  0.6795
   34CHL1  H26A 2510   3.748   6.373   8.589 -1.1289 -2.8897  0.4471
   34CHL1  H26B 2511   3.919   6.351   8.574  1.0902  2.2240 -0.3490
   34CHL1  H26C 2512   3.841   6.414   8.432  0.2152  0.8263  1.0101
   34CHL1   C27 2513   3.783   6.086   8.571  0.0256 -0.0132  0.2571
   34CHL1  H27A 2514   3.867   6.081   8.643 -1.0765  1.3227  1.7090
   34CHL1  H27B 2515   3.687   6.105   8.623 -1.6264 -2.5502 -1.6022
   34CHL1  H27C 2516   3.776   5.989   8.519 -0.2821 -0.0142  0.3001
   35CHL1    C3 2517   0.692   5.522   7.252  0.0710  0.0717  0.2073
   35CHL1    H3 2518   0.705   5.632   7.251 -1.6123  0.3114  0.9569
   35CHL1    O3 2519   0.731   5.471   7.120  0.1706 -0.3787 -0.2678
   35CHL1   H3' 2520   0.679   5.529   7.064 -1.5696  0.4431  2.0759
   35CHL1    C4 2521   0.788   5.464   7.361  0.3328 -0.4619 -0.0302
   35CHL1   H4A 2522   0.793   5.354   7.369  0.0321 -0.3566  2.5536
   35CHL1   H4B 2523   0.893   5.493   7.340  0.8213 -1.1076  1.3840
   35CHL1    C5 2524   0.757   5.524   7.497  0.2239 -0.6188  0.3541
   35CHL1    C6 2525   0.854   5.587   7.572 -0.5250  0.1794 -0.6679
   35CHL1    H6 2526   0.957   5.589   7.534 -0.7474  1.0234 -1.2517
   35CHL1    C7 2527   0.830   5.637   7.714 -0.9927  0.6808  0.5770
   35CHL1   H7A 2528   0.911   5.598   7.778 -0.3444 -0.2348 -0.7520
   35CHL1   H7B 2529   0.832   5.748   7.716 -0.6816  0.7095 -0.5221
   35CHL1    C8 2530   0.691   5.585   7.769  0.3118 -0.2567 -0.1989
   35CHL1    H8 2531   0.708   5.479   7.798 -0.5565 -0.5102 -0.5595
   35CHL1   C14 2532   0.650   5.664   7.891  0.1214 -0.1922 -0.0831
   35CHL1   H14 2533   0.622   5.767   7.860 -1.7403 -0.5074  0.4764
   35CHL1   C15 2534   0.764   5.679   7.997  0.6514  0.0189 -0.0281
   35CHL1  H15A 2535   0.821   5.587   8.022  0.1280 -0.0958  0.7680
   35CHL1  H15B 2536   0.829   5.763   7.963 -1.0516  2.0443  1.5128
   35CHL1   C16 2537   0.694   5.717   8.130  0.0053 -0.6401 -0.0676
   35CHL1  H16A 2538   0.707   5.637   8.206  0.6717 -1.6685 -1.2324
   35CHL1  H16B 2539   0.721   5.818   8.166  1.3081 -0.6012 -1.0976
   35CHL1   C17 2540   0.534   5.720   8.090 -0.1169 -0.0468 -0.3194
   35CHL1   H17 2541   0.530   5.821   8.043  0.3925 -0.7672 -2.0113
   35CHL1   C13 2542   0.522   5.622   7.967  0.2282 -0.6216  0.0438
   35CHL1   C18 2543   0.546   5.478   8.021  0.1099  0.6146  0.5794
   35CHL1  H18A 2544   0.621   5.470   8.102 -0.7664 -1.8358  1.2491
   35CHL1  H18B 2545   0.454   5.443   8.074 -0.2894 -0.9172 -1.0078
   35CHL1  H18C 2546   0.566   5.396   7.949 -0.0166 -1.5884  2.9188
   35CHL1   C12 2547   0.398   5.626   7.869 -0.1564  0.0555 -0.0313
   35CHL1  H12A 2548   0.307   5.586   7.918 -1.5914  0.5597 -2.1595
   35CHL1  H12B 2549   0.383   5.733   7.843 -2.1025 -0.0434  0.5736
   35CHL1   C11 2550   0.441   5.551   7.739  0.9718 -0.2715 -0.2426
   35CHL1  H11A 2551   0.449   5.446   7.776  1.3432  0.6841  2.6809
   35CHL1  H11B 2552   0.363   5.561   7.661  3.3892 -0.7568 -2.8750
   35CHL1    C9 2553   0.573   5.589   7.667  0.0450 -0.3983  0.4538
   35CHL1    H9 2554   0.568   5.695   7.632 -0.7849 -1.0030 -1.3916
   35CHL1   C10 2555   0.610   5.505   7.539 -0.8833 -0.2976  0.2862
   35CHL1   C19 2556   0.593   5.357   7.576  0.3106  0.8047  0.3260
   35CHL1  H19A 2557   0.662   5.327   7.658  1.0608 -0.1033 -0.6094
   35CHL1  H19B 2558   0.484   5.336   7.584 -0.2295  2.5016 -1.6907
   35CHL1  H19C 2559   0.626   5.291   7.493  1.5586  1.5391  0.2044
   35CHL1    C1 2560   0.513   5.546   7.424 -0.7677  0.4279  0.2501
   35CHL1   H1A 2561   0.406   5.519   7.430 -0.6160 -1.0318 -2.0107
   35CHL1   H1B 2562   0.512   5.657   7.421  2.8828  0.5603 -0.7385
   35CHL1    C2 2563   0.541   5.499   7.285 -0.4820 -1.0059 -0.3707
   35CHL1   H2A 2564   0.468   5.551   7.219 -0.0233  0.8380  0.5199
   35CHL1   H2B 2565   0.526   5.390   7.274 -0.6095 -0.8346 -2.2361
   35CHL1   C20 2566   0.440   5.700   8.207  0.2253 -0.0277 -0.3194
   35CHL1   H20 2567   0.427   5.593   8.233 -0.0259 -0.5149 -2.2713
   35CHL1   C21 2568   0.298   5.758   8.169 -0.6015  0.0424 -0.1020
   35CHL1  H21A 2569   0.305   5.859   8.123 -1.6506  0.1262 -0.1045
   35CHL1  H21B 2570   0.247   5.772   8.267 -1.3612 -0.1147 -0.4652
   35CHL1  H21C 2571   0.235   5.693   8.105 -1.9425  0.4765  0.7180
   35CHL1   C22 2572   0.496   5.758   8.345 -0.4032  0.0269 -0.6897
   35CHL1  H22A 2573   0.424   5.730   8.425 -1.9722  1.2895 -1.6134
   35CHL1  H22B 2574   0.590   5.710   8.381 -2.2513 -1.4484  2.6497
   35CHL1   C23 2575   0.499   5.918   8.349  0.6685 -0.2323  0.0993
   35CHL1  H23A 2576   0.563   5.946   8.263 -0.1615  3.0744  0.4280
   35CHL1  H23B 2577   0.395   5.956   8.332 -0.1178 -1.2314  2.2845
   35CHL1   C24 2578   0.564   5.986   8.476 -0.1078 -0.1012  0.7480
   35CHL1  H24A 2579   0.493   5.976   8.560 -2.0994  0.2697 -0.8252
   35CHL1  H24B 2580   0.663   5.941   8.500 -0.4873 -2.6678 -1.9211
   35CHL1   C25 2581   0.585   6.139   8.458  0.7221 -0.2736 -0.2429
   35CHL1   H25 2582   0.668   6.172   8.392  2.0715  0.9713  1.9563
   35CHL1   C26 2583   0.456   6.206   8.410 -0.0888  0.3135 -0.0025
   35CHL1  H26A 2584   0.365   6.175   8.467  0.6906 -0.2560  0.9656
   35CHL1  H26B 2585   0.468   6.316   8.418 -0.3899  0.2224  3.4995
   35CHL1  H26C 2586   0.437   6.193   8.301 -1.7101  2.3957 -0.0395
   35CHL1   C27 2587   0.627   6.193   8.594 -0.3334  0.2206 -0.1367
   35CHL1  H27A 2588   0.622   6.304   8.602  1.2714  0.2832  0.2891
   35CHL1  H27B 2589   0.725   6.155   8.629  0.6768  0.0304 -2.9101
   35CHL1  H27C 2590   0.554   6.163   8.672  0.9668 -0.4096  0.8632
   36CHL1    C3 2591   6.441   6.379   7.244 -0.5555  0.7273 -0.3684
   36CHL1    H3 2592   6.511   6.461   7.267  2.3547 -2.0622  1.6533
   36CHL1    O3 2593   6.440   6.372   7.103  0.3856 -0.0935  0.6435
   36CHL1   H3' 2594   6.384   6.299   7.075 -0.9443  1.6771 -1.7109
   36CHL1    C4 2595   6.516   6.253   7.299 -0.1615 -0.1652  0.1129
   36CHL1   H4A 2596   6.463   6.162   7.265 -2.8295  0.9623  1.0066
   36CHL1   H4B 2597   6.619   6.263   7.258  0.9251  1.1842  2.8747
   36CHL1    C5 2598   6.524   6.269   7.451  0.0675 -0.1834  0.3475
   36CHL1    C6 2599   6.649   6.272   7.514 -0.8220 -0.7403 -0.9334
   36CHL1    H6 2600   6.738   6.254   7.452 -0.1853 -0.4450 -0.1127
   36CHL1    C7 2601   6.664   6.286   7.662 -0.2930 -0.1809  0.4472
   36CHL1   H7A 2602   6.729   6.207   7.706 -0.7017 -0.8677 -0.1480
   36CHL1   H7B 2603   6.700   6.390   7.676 -0.4777  0.0544 -0.7278
   36CHL1    C8 2604   6.532   6.264   7.735  0.0166  0.6206 -0.1245
   36CHL1    H8 2605   6.510   6.156   7.721  0.1718  0.4809  0.6557
   36CHL1   C14 2606   6.545   6.293   7.879  0.1944  0.9678 -0.1738
   36CHL1   H14 2607   6.554   6.404   7.884  1.6543  0.8861 -0.3538
   36CHL1   C15 2608   6.664   6.232   7.966  0.4793  0.4139  0.4815
   36CHL1  H15A 2609   6.667   6.129   7.923 -1.6464  0.1296  0.9091
   36CHL1  H15B 2610   6.757   6.287   7.940  1.3319 -1.6764 -1.2864
   36CHL1   C16 2611   6.617   6.242   8.109 -0.3115  0.9371  0.1296
   36CHL1  H16A 2612   6.652   6.149   8.159  1.8061  1.0784 -0.9955
   36CHL1  H16B 2613   6.671   6.318   8.169 -0.5071  1.0282  0.1932
   36CHL1   C17 2614   6.466   6.286   8.105  0.2257  0.0687 -0.1866
   36CHL1   H17 2615   6.443   6.395   8.115  0.1334  0.1746 -1.4233
   36CHL1   C13 2616   6.416   6.254   7.960 -0.5408 -0.6143 -0.1763
   36CHL1   C18 2617   6.388   6.097   7.958 -0.1596 -0.0829  0.1099
   36CHL1  H18A 2618   6.386   6.057   7.855 -2.3432 -1.1084  0.4962
   36CHL1  H18B 2619   6.479   6.045   7.996 -0.1439 -0.2835 -0.2013
   36CHL1  H18C 2620   6.294   6.077   8.015  0.8071 -2.4100  1.0167
   36CHL1   C12 2621   6.304   6.341   7.909 -0.2738  0.0525 -0.0038
   36CHL1  H12A 2622   6.203   6.322   7.950 -0.5827  1.8732  0.1677
   36CHL1  H12B 2623   6.320   6.450   7.923 -0.2607  0.2239 -1.2527
   36CHL1   C11 2624   6.280   6.323   7.758  0.3953  0.1583 -0.4042
   36CHL1  H11A 2625   6.233   6.224   7.738 -2.0513  1.2022 -0.2277
   36CHL1  H11B 2626   6.196   6.391   7.730 -1.1031 -1.5340 -0.2008
   36CHL1    C9 2627   6.411   6.334   7.677  0.0035 -0.7744  0.1347
   36CHL1    H9 2628   6.431   6.443   7.683 -0.2929 -0.7825  3.1010
   36CHL1   C10 2629   6.388   6.297   7.528 -0.6159  0.2560 -0.4563
   36CHL1   C19 2630   6.306   6.166   7.518 -0.3468 -0.1853  0.3471
   36CHL1  H19A 2631   6.197   6.173   7.538 -0.8850 -0.8850 -1.9939
   36CHL1  H19B 2632   6.315   6.128   7.414 -2.2527  1.8309 -0.6229
   36CHL1  H19C 2633   6.352   6.099   7.594 -0.9958  0.5413  1.4062
   36CHL1    C1 2634   6.305   6.404   7.454  0.2550 -0.8653 -0.5290
   36CHL1   H1A 2635   6.203   6.418   7.495  1.0428  1.3281  0.8594
   36CHL1   H1B 2636   6.358   6.500   7.471 -0.7473  0.2078 -2.9626
   36CHL1    C2 2637   6.302   6.401   7.300 -0.8343 -0.0703  0.3154
   36CHL1   H2A 2638   6.263   6.498   7.263  0.5714  0.3083 -0.2579
   36CHL1   H2B 2639   6.235   6.319   7.267  0.6094 -0.8004 -0.8978
   36CHL1   C20 2640   6.398   6.229   8.231  0.3973 -0.2080 -0.7552
   36CHL1   H20 2641   6.397   6.118   8.227 -0.0197 -0.1893 -1.4072
   36CHL1   C21 2642   6.245   6.271   8.236  0.0610 -0.3183 -0.1206
   36CHL1  H21A 2643   6.188   6.232   8.323 -0.7794  0.4328 -0.3249
   36CHL1  H21B 2644   6.191   6.223   8.153 -0.3119 -1.3501  0.6993
   36CHL1  H21C 2645   6.232   6.381   8.241  0.8447 -0.1878 -0.6555
   36CHL1   C22 2646   6.470   6.269   8.364 -0.1039  0.1402 -0.0232
   36CHL1  H22A 2647   6.573   6.228   8.375 -0.2169 -0.3678 -0.7554
   36CHL1  H22B 2648   6.483   6.379   8.359 -2.0499  0.4505  0.6511
   36CHL1   C23 2649   6.388   6.239   8.496  0.7057 -0.0555 -0.0061
   36CHL1  H23A 2650   6.307   6.315   8.485  1.2112  0.4025 -0.6451
   36CHL1  H23B 2651   6.341   6.140   8.482  1.5725 -0.7453  1.7158
   36CHL1   C24 2652   6.454   6.247   8.638  0.7770  0.2202 -0.2553
   36CHL1  H24A 2653   6.555   6.202   8.639  0.3647 -0.7057  0.7115
   36CHL1  H24B 2654   6.473   6.355   8.660  0.9543 -0.1262  1.3846
   36CHL1   C25 2655   6.362   6.180   8.732 -0.3910  0.7532 -0.2272
   36CHL1   H25 2656   6.335   6.091   8.671  2.1437  0.9029 -1.7531
   36CHL1   C26 2657   6.440   6.137   8.862 -0.2474 -1.0364  0.1818
   36CHL1  H26A 2658   6.460   6.232   8.917 -0.3133 -0.3517 -0.9374
   36CHL1  H26B 2659   6.382   6.066   8.925 -0.6498 -0.2697  0.6974
   36CHL1  H26C 2660   6.527   6.079   8.825  0.3347 -1.3718  1.9681
   36CHL1   C27 2661   6.235   6.257   8.779 -0.5760  0.3862 -0.1382
   36CHL1  H27A 2662   6.168   6.201   8.848 -0.8898 -1.2612 -1.7036
   36CHL1  H27B 2663   6.252   6.356   8.826  1.4350 -0.0220  0.0582
   36CHL1  H27C 2664   6.176   6.285   8.689 -0.6499  1.7899  0.3285
   37CHL1    C3 2665   4.208   1.747   6.751 -0.1352  0.5256 -0.4673
   37CHL1    H3 2666   4.303   1.691   6.759  0.6972  2.1510  1.9063
   37CHL1    O3 2667   4.163   1.715   6.617 -0.3802  0.1305  0.6962
   37CHL1   H3' 2668   4.207   1.783   6.567 -2.0073  1.2005  0.6364
   37CHL1    C4 2669   4.110   1.680   6.856 -0.1282  0.5242  0.7344
   37CHL1   H4A 2670   4.014   1.726   6.826  1.1512  1.7109 -1.9595
   37CHL1   H4B 2671   4.104   1.572   6.832  1.9599  0.4450  0.3174
   37CHL1    C5 2672   4.153   1.704   7.000  0.1367  0.1312  0.4463
   37CHL1    C6 2673   4.171   1.605   7.093  0.0292  0.0474  0.2110
   37CHL1    H6 2674   4.149   1.499   7.074 -2.4059  0.5650 -0.2019
   37CHL1    C7 2675   4.216   1.632   7.228 -0.0537  0.5736 -0.0787
   37CHL1   H7A 2676   4.145   1.580   7.296 -0.1201  0.3965 -0.2810
   37CHL1   H7B 2677   4.322   1.603   7.241  0.5910  0.6707 -4.0518
   37CHL1    C8 2678   4.209   1.778   7.270 -0.3304 -0.0958 -0.1874
   37CHL1    H8 2679   4.102   1.801   7.287 -0.5072  0.4202 -1.8117
   37CHL1   C14 2680   4.305   1.803   7.392 -0.4399 -0.5451  0.9502
   37CHL1   H14 2681   4.408   1.789   7.352  1.0630  0.5777  4.0960
   37CHL1   C15 2682   4.288   1.702   7.500  0.3277  0.6703 -0.0505
   37CHL1  H15A 2683   4.178   1.695   7.511  0.5311 -0.4065  1.6605
   37CHL1  H15B 2684   4.323   1.597   7.488 -3.9716 -0.8080 -1.6163
   37CHL1   C16 2685   4.354   1.769   7.619  0.2486  0.1576 -0.9481
   37CHL1  H16A 2686   4.297   1.750   7.712  1.4429 -2.4552 -0.6624
   37CHL1  H16B 2687   4.447   1.710   7.632  0.6530  0.9754  0.0222
   37CHL1   C17 2688   4.383   1.922   7.579  0.4420  0.3697 -0.2166
   37CHL1   H17 2689   4.490   1.913   7.552  0.3545 -1.2760 -0.1515
   37CHL1   C13 2690   4.296   1.945   7.451 -0.1812  0.2443 -0.0243
   37CHL1   C18 2691   4.151   1.967   7.508  0.6065  0.8862  0.1538
   37CHL1  H18A 2692   4.147   2.064   7.562 -0.2624 -0.0072  1.7755
   37CHL1  H18B 2693   4.077   1.975   7.426 -1.2277 -0.5417  1.5935
   37CHL1  H18C 2694   4.112   1.893   7.581  1.4426  1.1069  0.8405
   37CHL1   C12 2695   4.345   2.045   7.350  0.4584 -0.6879 -0.0609
   37CHL1  H12A 2696   4.327   2.149   7.383  2.7747 -0.4555  0.6651
   37CHL1  H12B 2697   4.454   2.028   7.335  0.6075 -1.8129  1.9926
   37CHL1   C11 2698   4.259   2.019   7.221 -0.4779 -0.4878  0.4150
   37CHL1  H11A 2699   4.158   2.058   7.247  0.1931  1.5697  0.0835
   37CHL1  H11B 2700   4.291   2.089   7.141  2.1242 -0.1935  1.6227
   37CHL1    C9 2701   4.254   1.879   7.166  0.0351 -0.1692 -0.2838
   37CHL1    H9 2702   4.358   1.846   7.145 -0.4783 -0.7352 -2.1366
   37CHL1   C10 2703   4.184   1.854   7.031 -0.0250 -0.6172 -0.3424
   37CHL1   C19 2704   4.055   1.931   7.040 -0.0570  0.1982  0.0870
   37CHL1  H19A 2705   4.077   2.035   7.006 -1.3923  0.0313 -1.4069
   37CHL1  H19B 2706   3.978   1.909   6.963  0.1112  0.9542 -0.3101
   37CHL1  H19C 2707   4.004   1.927   7.138  1.1818  2.1743  0.8702
   37CHL1    C1 2708   4.277   1.914   6.920 -0.0921 -0.4583  0.0000
   37CHL1   H1A 2709   4.302   2.022   6.925 -0.2007 -0.4586  0.5807
   37CHL1   H1B 2710   4.373   1.858   6.925 -0.3715 -0.8229  1.9150
   37CHL1    C2 2711   4.221   1.896   6.779  0.0340  0.3974 -0.0915
   37CHL1   H2A 2712   4.285   1.937   6.699  0.0614 -1.1259 -0.8826
   37CHL1   H2B 2713   4.120   1.942   6.778 -0.1128  0.1019  0.4948
   37CHL1   C20 2714   4.379   2.023   7.695 -0.1116 -0.2856 -0.2056
   37CHL1   H20 2715   4.279   2.044   7.739  0.2991 -0.8056  1.0415
   37CHL1   C21 2716   4.432   2.152   7.643  0.1789  0.3992  0.1183
   37CHL1  H21A 2717   4.345   2.188   7.584 -2.7525 -1.9883  2.6017
   37CHL1  H21B 2718   4.519   2.144   7.575  0.3934 -0.6540  0.4871
   37CHL1  H21C 2719   4.451   2.235   7.714 -0.7239 -0.1153  0.9957
   37CHL1   C22 2720   4.467   1.979   7.818 -0.2330  0.7613 -0.2122
   37CHL1  H22A 2721   4.449   1.872   7.844 -0.8226  0.2751 -2.4028
   37CHL1  H22B 2722   4.571   1.993   7.781 -0.0668 -0.9293 -0.4906
   37CHL1   C23 2723   4.446   2.055   7.950  0.3025  0.1830 -0.4707
   37CHL1  H23A 2724   4.516   2.015   8.027 -1.1876  0.9036  1.3271
   37CHL1  H23B 2725   4.472   2.162   7.939  1.0874  0.1264  0.6644
   37CHL1   C24 2726   4.312   2.025   8.028  0.7116 -0.2189 -0.5984
   37CHL1  H24A 2727   4.234   2.070   7.962  0.0130  0.0166  0.3574
   37CHL1  H24B 2728   4.303   1.915   8.015  0.2454 -0.4855  1.6041
   37CHL1   C25 2729   4.310   2.061   8.177  0.4979  0.0646  0.0112
   37CHL1   H25 2730   4.404   2.023   8.222  2.5141  1.4277 -2.7386
   37CHL1   C26 2731   4.315   2.214   8.183  0.5376 -0.9259  0.4806
   37CHL1  H26A 2732   4.409   2.252   8.138  0.8844 -1.7494  0.4866
   37CHL1  H26B 2733   4.232   2.257   8.124  1.4815  0.8004  0.3563
   37CHL1  H26C 2734   4.307   2.250   8.288 -1.5093 -0.0769  0.0822
   37CHL1   C27 2735   4.191   2.012   8.250  0.8652  0.6278 -0.1751
   37CHL1  H27A 2736   4.196   2.028   8.360 -0.8072 -1.6130  0.3049
   37CHL1  H27B 2737   4.099   2.069   8.223 -1.1769 -0.1338  4.2275
   37CHL1  H27C 2738   4.182   1.905   8.222  0.5857  1.3141 -2.9304
   38CHL1    C3 2739   0.658   2.960   6.746 -0.1677  1.0175  0.5763
   38CHL1    H3 2740   0.635   3.066   6.767 -1.6117  0.8633 -0.0920
   38CHL1    O3 2741   0.678   2.935   6.605 -0.4387 -0.0459 -0.0896
   38CHL1   H3' 2742   0.668   2.840   6.592 -2.6666  0.2013 -0.6932
   38CHL1    C4 2743   0.782   2.903   6.813 -0.1050 -0.2209 -0.3996
   38CHL1   H4A 2744   0.797   2.796   6.785  0.5709 -0.2620  0.0912
   38CHL1   H4B 2745   0.865   2.961   6.767  1.2159 -0.9365  0.9940
   38CHL1    C5 2746   0.775   2.916   6.962 -0.2586  0.1256  0.0846
   38CHL1    C6 2747   0.864   2.988   7.031 -0.4072  0.3845  0.1562
   38CHL1    H6 2748   0.945   3.042   6.978  0.7673 -2.7418 -1.4722
   38CHL1    C7 2749   0.859   3.005   7.182  0.2227 -0.6457  0.2723
   38CHL1   H7A 2750   0.957   3.015   7.233 -1.2156  1.4722  2.8617
   38CHL1   H7B 2751   0.810   3.103   7.201 -0.3605 -0.5280 -1.5983
   38CHL1    C8 2752   0.762   2.904   7.255 -0.4685  0.4503  0.2197
   38CHL1    H8 2753   0.810   2.804   7.262 -2.2269 -0.3859  0.8894
   38CHL1   C14 2754   0.734   2.943   7.397  0.4636 -0.9112 -0.4266
   38CHL1   H14 2755   0.674   3.036   7.393  1.3829 -0.3004 -0.4727
   38CHL1   C15 2756   0.863   2.985   7.485 -0.1891 -0.1714  0.2924
   38CHL1  H15A 2757   0.941   2.911   7.460 -0.9440 -1.0294  0.3988
   38CHL1  H15B 2758   0.900   3.086   7.457 -4.2966  1.6305  0.5593
   38CHL1   C16 2759   0.807   2.965   7.628 -0.3811 -0.2707  0.3268
   38CHL1  H16A 2760   0.878   2.894   7.676  1.2322 -0.1220 -1.6893
   38CHL1  H16B 2761   0.822   3.056   7.690 -0.8953  2.2869 -3.0299
   38CHL1   C17 2762   0.662   2.924   7.612 -0.4753  0.5297 -0.3757
   38CHL1   H17 2763   0.601   3.016   7.603 -1.5273 -0.1468 -0.3999
   38CHL1   C13 2764   0.650   2.852   7.477 -0.2177 -0.5417 -0.2290
   38CHL1   C18 2765   0.710   2.709   7.498 -0.2296 -0.0840 -0.1499
   38CHL1  H18A 2766   0.645   2.659   7.573 -0.1289  0.9281  0.6429
   38CHL1  H18B 2767   0.709   2.644   7.408 -2.8256  0.4378 -0.5766
   38CHL1  H18C 2768   0.813   2.712   7.541  0.1642 -0.3736 -1.0487
   38CHL1   C12 2769   0.514   2.838   7.404  0.1193 -0.1833 -0.0273
   38CHL1  H12A 2770   0.458   2.762   7.462  3.2457  0.1847  3.8485
   38CHL1  H12B 2771   0.452   2.930   7.409 -0.8958 -0.8386 -0.3099
   38CHL1   C11 2772   0.534   2.791   7.259  0.5385  0.5932 -0.9711
   38CHL1  H11A 2773   0.567   2.686   7.252 -2.1550 -0.3805 -0.2332
   38CHL1  H11B 2774   0.436   2.799   7.207  1.1302  0.0663 -2.2059
   38CHL1    C9 2775   0.627   2.884   7.175 -0.0078 -0.0071  0.3414
   38CHL1    H9 2776   0.583   2.986   7.169 -0.7879 -0.4069 -1.4275
   38CHL1   C10 2777   0.651   2.845   7.023 -0.0097 -0.4724 -0.6830
   38CHL1   C19 2778   0.686   2.700   7.016 -0.3306  0.5838  0.1590
   38CHL1  H19A 2779   0.775   2.682   7.080 -1.0188 -3.4275  0.2112
   38CHL1  H19B 2780   0.610   2.629   7.054  0.2394 -0.4376 -0.5577
   38CHL1  H19C 2781   0.700   2.669   6.910  1.0039  0.6083  0.3081
   38CHL1    C1 2782   0.519   2.877   6.942  0.2164 -0.1049  0.0877
   38CHL1   H1A 2783   0.439   2.808   6.976  0.5318 -0.6104 -0.1898
   38CHL1   H1B 2784   0.492   2.980   6.972  0.3364  0.1030 -0.4994
   38CHL1    C2 2785   0.533   2.876   6.787 -0.0073 -0.4249  0.7344
   38CHL1   H2A 2786   0.440   2.917   6.742 -0.7091  1.6934  3.8069
   38CHL1   H2B 2787   0.546   2.771   6.751 -3.5290 -1.3791  1.8225
   38CHL1   C20 2788   0.599   2.860   7.737 -0.1921 -0.2646 -0.5973
   38CHL1   H20 2789   0.635   2.758   7.764 -2.2513 -1.7153 -2.8736
   38CHL1   C21 2790   0.446   2.859   7.714 -0.3507 -0.0025  0.0363
   38CHL1  H21A 2791   0.402   2.782   7.647 -1.4939  2.1225 -1.7938
   38CHL1  H21B 2792   0.412   2.962   7.689  1.6010  0.8657  0.7950
   38CHL1  H21C 2793   0.394   2.847   7.812 -2.8896  0.6220 -1.1597
   38CHL1   C22 2794   0.638   2.932   7.865  0.3277 -0.4717 -1.1632
   38CHL1  H22A 2795   0.747   2.941   7.879  0.2879 -1.6204  0.0257
   38CHL1  H22B 2796   0.597   3.035   7.858  0.8962 -0.0781  0.9074
   38CHL1   C23 2797   0.587   2.868   7.999  0.3596  0.4368 -0.6326
   38CHL1  H23A 2798   0.478   2.847   8.002  0.8160 -2.2812  2.1313
   38CHL1  H23B 2799   0.643   2.772   8.003 -1.8435 -0.8569  1.6425
   38CHL1   C24 2800   0.619   2.939   8.136 -0.6202 -0.3647  0.5601
   38CHL1  H24A 2801   0.574   3.041   8.133 -1.3550 -0.7072 -0.8937
   38CHL1  H24B 2802   0.571   2.892   8.225 -0.8613  1.1689  1.2841
   38CHL1   C25 2803   0.774   2.970   8.155  0.0182 -0.6410  0.2607
   38CHL1   H25 2804   0.798   3.036   8.069  2.4672  1.7282  2.5740
   38CHL1   C26 2805   0.788   3.056   8.280 -0.3383 -0.0650  0.2916
   38CHL1  H26A 2806   0.715   3.140   8.278  0.9175  1.0256 -1.0544
   38CHL1  H26B 2807   0.769   2.995   8.372 -1.8083  0.7091  0.5423
   38CHL1  H26C 2808   0.893   3.091   8.274 -0.8865  1.3824 -1.6901
   38CHL1   C27 2809   0.859   2.845   8.158 -0.2995  0.6635 -0.6599
   38CHL1  H27A 2810   0.954   2.856   8.215  0.2315 -0.4393 -1.2962
   38CHL1  H27B 2811   0.793   2.763   8.194  0.3311 -0.4487 -1.9241
   38CHL1  H27C 2812   0.887   2.822   8.053  0.6806 -0.2806 -0.2115
   39CHL1    C3 2813   6.482   2.135   6.868  0.3822 -0.3951  0.4362
   39CHL1    H3 2814   6.397   2.063   6.866 -0.4629  0.5790 -1.0445
   39CHL1    O3 2815   6.504   2.178   6.734 -0.0995 -0.3114 -0.4974
   39CHL1   H3' 2816   6.568   2.249   6.740  0.0752 -0.3706 -1.4868
   39CHL1    C4 2817   6.428   2.253   6.945  0.1380  0.2999  0.9027
   39CHL1   H4A 2818   6.503   2.332   6.925  0.8361 -0.5691 -0.0380
   39CHL1   H4B 2819   6.334   2.296   6.905  0.7623  0.9754  0.1162
   39CHL1    C5 2820   6.418   2.235   7.092  0.1418  0.4119 -0.8738
   39CHL1    C6 2821   6.297   2.245   7.158  0.5245 -0.3729  0.2632
   39CHL1    H6 2822   6.206   2.273   7.103  0.2588 -0.7569  0.5043
   39CHL1    C7 2823   6.286   2.238   7.310 -0.0308  0.2513 -0.5387
   39CHL1   H7A 2824   6.235   2.322   7.361  0.4648 -0.6867  1.6239
   39CHL1   H7B 2825   6.243   2.138   7.335  1.1628 -0.5801 -1.6547
   39CHL1    C8 2826   6.428   2.236   7.379  0.8106 -0.7371  0.2533
   39CHL1    H8 2827   6.465   2.340   7.381 -0.3320 -0.3212  1.5398
   39CHL1   C14 2828   6.413   2.185   7.522  0.2460  0.2026  0.2418
   39CHL1   H14 2829   6.369   2.083   7.522  1.5773 -0.4249 -1.3558
   39CHL1   C15 2830   6.327   2.268   7.618 -0.1496 -0.3433 -0.6871
   39CHL1  H15A 2831   6.360   2.374   7.613 -2.3899  0.5006  0.6951
   39CHL1  H15B 2832   6.222   2.280   7.584 -0.1309  0.5781 -0.4375
   39CHL1   C16 2833   6.350   2.196   7.757 -1.0435  0.0237 -0.1612
   39CHL1  H16A 2834   6.345   2.282   7.827 -2.2747  1.1417 -1.5689
   39CHL1  H16B 2835   6.269   2.125   7.784 -1.7304  0.9041  0.1462
   39CHL1   C17 2836   6.488   2.123   7.751  0.3600  0.5543 -0.0094
   39CHL1   H17 2837   6.465   2.015   7.754  4.2240 -0.4023  0.3033
   39CHL1   C13 2838   6.538   2.162   7.607  0.0366 -0.7553 -0.6283
   39CHL1   C18 2839   6.612   2.302   7.631  0.1337  0.1953  0.0170
   39CHL1  H18A 2840   6.703   2.281   7.692  0.9761  1.5663 -0.7229
   39CHL1  H18B 2841   6.641   2.344   7.532  0.0237 -2.5162 -1.2503
   39CHL1  H18C 2842   6.550   2.375   7.688  0.1206  0.0691  0.1662
   39CHL1   C12 2843   6.628   2.058   7.531  0.4453  0.2281 -1.0429
   39CHL1  H12A 2844   6.719   2.030   7.588 -0.9498 -0.5264  0.9671
   39CHL1  H12B 2845   6.582   1.957   7.517  2.3767 -0.6707 -1.2743
   39CHL1   C11 2846   6.653   2.115   7.389  0.9245  0.4068  0.0586
   39CHL1  H11A 2847   6.722   2.202   7.399 -0.1762  1.6091 -2.1049
   39CHL1  H11B 2848   6.710   2.041   7.329 -2.8203 -1.3822 -1.6311
   39CHL1    C9 2849   6.521   2.150   7.311  0.5421  0.3094 -0.4050
   39CHL1    H9 2850   6.463   2.055   7.313  0.0935  0.5598  1.6975
   39CHL1   C10 2851   6.545   2.188   7.155 -0.2715  0.5301 -0.7420
   39CHL1   C19 2852   6.643   2.303   7.156 -0.0972  0.0929  0.4238
   39CHL1  H19A 2853   6.741   2.281   7.204  0.2992  0.8604 -0.0077
   39CHL1  H19B 2854   6.668   2.335   7.053  2.0319 -1.0070  0.5368
   39CHL1  H19C 2855   6.600   2.391   7.209  1.3441  1.0848  0.0066
   39CHL1    C1 2856   6.606   2.065   7.079  0.9535  0.1811 -0.3200
   39CHL1   H1A 2857   6.709   2.045   7.115  1.2220 -1.0337 -1.6461
   39CHL1   H1B 2858   6.541   1.977   7.096  1.3574 -1.0842 -4.2936
   39CHL1    C2 2859   6.615   2.087   6.923 -0.5644  0.1668 -0.6547
   39CHL1   H2A 2860   6.643   1.989   6.878  1.3926  0.1982  0.3720
   39CHL1   H2B 2861   6.690   2.169   6.922  1.0439 -1.2192  0.6840
   39CHL1   C20 2862   6.575   2.134   7.879  0.1991 -0.2952  0.7841
   39CHL1   H20 2863   6.604   2.241   7.886  0.9932 -0.4038 -0.5018
   39CHL1   C21 2864   6.693   2.040   7.864  0.8787 -0.0559  0.0203
   39CHL1  H21A 2865   6.663   1.936   7.840  0.7931 -0.2216  0.8033
   39CHL1  H21B 2866   6.749   2.030   7.959  1.5216  1.6651 -0.1345
   39CHL1  H21C 2867   6.762   2.073   7.783  0.4960 -0.2166 -0.3723
   39CHL1   C22 2868   6.500   2.084   8.007  0.0081  0.4307 -0.0807
   39CHL1  H22A 2869   6.399   2.130   8.016  0.5387  1.2279  2.2625
   39CHL1  H22B 2870   6.483   1.975   7.993 -3.0727  0.5658  1.6213
   39CHL1   C23 2871   6.570   2.099   8.145 -0.4047  0.1312  0.6991
   39CHL1  H23A 2872   6.669   2.049   8.140  0.1159  1.2361 -0.6381
   39CHL1  H23B 2873   6.573   2.210   8.148 -1.8868  0.2916 -1.3508
   39CHL1   C24 2874   6.492   2.039   8.259 -0.6309 -0.0159  0.0628
   39CHL1  H24A 2875   6.389   2.080   8.258 -2.0516 -3.2889 -0.4082
   39CHL1  H24B 2876   6.475   1.930   8.245  0.7521 -0.3231  0.5498
   39CHL1   C25 2877   6.558   2.058   8.399 -0.3272 -0.6284  0.1577
   39CHL1   H25 2878   6.574   2.166   8.421  0.5413 -1.1832  2.6063
   39CHL1   C26 2879   6.447   2.028   8.499  0.2987  0.6086  0.1390
   39CHL1  H26A 2880   6.483   2.031   8.604 -2.8658 -1.1518  1.4029
   39CHL1  H26B 2881   6.368   2.106   8.489 -0.1903  0.0604 -0.3492
   39CHL1  H26C 2882   6.397   1.930   8.484 -0.0688  0.5499  1.6274
   39CHL1   C27 2883   6.693   1.988   8.427 -0.0812  0.3521  0.3966
   39CHL1  H27A 2884   6.730   2.022   8.527 -1.7965  0.4152  1.0407
   39CHL1  H27B 2885   6.692   1.877   8.429 -2.7017  0.3134  1.8507
   39CHL1  H27C 2886   6.768   2.012   8.349 -2.4172  1.4442 -1.6195
   40CHL1    C3 2887   1.334   0.398   6.895  0.6077 -0.3514 -0.3291
   40CHL1    H3 2888   1.406   0.408   6.811  2.2180 -0.8147  0.9349
   40CHL1    O3 2889   1.202   0.428   6.856  0.2003  0.1050  0.0696
   40CHL1   H3' 2890   1.203   0.522   6.835  0.8482  0.4807  1.5771
   40CHL1    C4 2891   1.338   0.254   6.950 -0.5740 -0.7846  0.5797
   40CHL1   H4A 2892   1.266   0.253   7.035  0.9124  4.0810  2.2174
   40CHL1   H4B 2893   1.307   0.191   6.864  3.5548 -1.6954 -0.4575
   40CHL1    C5 2894   1.477   0.210   7.001  0.0493  0.5748 -0.2391
   40CHL1    C6 2895   1.536   0.094   6.958  0.0123  0.5504  0.2842
   40CHL1    H6 2896   1.480   0.029   6.889 -1.0898  0.7647  0.9570
   40CHL1    C7 2897   1.681   0.053   6.999  0.3700 -0.8959 -0.0052
   40CHL1   H7A 2898   1.682  -0.057   7.012 -0.1217 -1.0591 -1.2640
   40CHL1   H7B 2899   1.765   0.079   6.931  2.3458 -0.1870  2.5128
   40CHL1    C8 2900   1.730   0.128   7.131 -0.0370 -0.7939  0.4769
   40CHL1    H8 2901   1.681   0.076   7.217  1.5552 -1.1344  1.2235
   40CHL1   C14 2902   1.876   0.094   7.168  0.1686  0.2850 -0.0457
   40CHL1   H14 2903   1.943   0.133   7.089 -0.5667 -1.3945 -1.5567
   40CHL1   C15 2904   1.921  -0.050   7.190 -0.4368  0.5106 -0.0810
   40CHL1  H15A 2905   1.846  -0.106   7.251  1.1926 -0.5828  0.9899
   40CHL1  H15B 2906   1.951  -0.103   7.097 -2.4677  1.4503 -1.3484
   40CHL1   C16 2907   2.037  -0.044   7.297  0.4531  0.1359  0.2781
   40CHL1  H16A 2908   2.001  -0.091   7.391 -0.0453 -0.8084 -0.3647
   40CHL1  H16B 2909   2.128  -0.097   7.262 -0.4336  0.5219 -2.9418
   40CHL1   C17 2910   2.055   0.110   7.318 -0.1013  0.6757 -0.6642
   40CHL1   H17 2911   2.114   0.145   7.231  0.9629 -0.1076 -0.2827
   40CHL1   C13 2912   1.916   0.169   7.298 -0.0647  0.3591  0.0112
   40CHL1   C18 2913   1.827   0.117   7.414 -0.0010  0.0210 -0.2102
   40CHL1  H18A 2914   1.717   0.132   7.402 -0.4058 -1.7308  0.8612
   40CHL1  H18B 2915   1.839   0.008   7.431  0.3375  0.0712 -0.1291
   40CHL1  H18C 2916   1.872   0.173   7.499  0.4659  1.6652 -1.4796
   40CHL1   C12 2917   1.908   0.322   7.268 -0.3997  0.5167  0.1757
   40CHL1  H12A 2918   1.948   0.363   7.364  0.0609  0.7587 -0.1141
   40CHL1  H12B 2919   1.977   0.338   7.183 -0.8538  3.9600  0.3342
   40CHL1   C11 2920   1.762   0.357   7.239  0.1268  0.6161  0.1635
   40CHL1  H11A 2921   1.706   0.338   7.333 -1.5479  1.8082 -0.5462
   40CHL1  H11B 2922   1.760   0.465   7.212  0.7853  0.6965  0.4120
   40CHL1    C9 2923   1.703   0.279   7.124  0.4506  0.3641 -0.8645
   40CHL1    H9 2924   1.751   0.319   7.032  0.5500  1.4708 -0.3436
   40CHL1   C10 2925   1.546   0.305   7.104 -0.2743 -0.6927  0.5720
   40CHL1   C19 2926   1.471   0.292   7.237 -0.2153  0.1639 -0.2297
   40CHL1  H19A 2927   1.500   0.365   7.315 -0.5414 -0.0644  0.1105
   40CHL1  H19B 2928   1.360   0.298   7.230 -0.2348  0.1409  0.0401
   40CHL1  H19C 2929   1.493   0.187   7.267 -2.0091 -1.0590 -2.7580
   40CHL1    C1 2930   1.535   0.449   7.051 -0.2496 -0.5082  0.4994
   40CHL1   H1A 2931   1.541   0.508   7.145  0.1837 -1.5315  1.1349
   40CHL1   H1B 2932   1.611   0.474   6.973  0.0631  0.4161  1.0764
   40CHL1    C2 2933   1.393   0.489   6.995 -0.1503  1.0483 -0.1100
   40CHL1   H2A 2934   1.397   0.588   6.944 -0.5605  0.4612 -1.3409
   40CHL1   H2B 2935   1.324   0.504   7.080 -1.1727  1.5684 -0.9961
   40CHL1   C20 2936   2.133   0.140   7.449  0.3623 -0.8520  0.4646
   40CHL1   H20 2937   2.103   0.244   7.473 -0.2712  0.1142 -3.6535
   40CHL1   C21 2938   2.281   0.132   7.409  0.1468 -0.2382 -0.2947
   40CHL1  H21A 2939   2.318   0.032   7.379 -2.3149 -0.8540 -1.5463
   40CHL1  H21B 2940   2.358   0.167   7.481  1.1344 -0.5588 -1.1741
   40CHL1  H21C 2941   2.286   0.208   7.327  1.7511  0.6328  0.5554
   40CHL1   C22 2942   2.113   0.054   7.573 -0.6089  0.2809 -0.6844
   40CHL1  H22A 2943   2.007   0.033   7.598 -0.9796  0.7276 -1.8241
   40CHL1  H22B 2944   2.161  -0.046   7.561 -0.3573  0.4869 -1.4720
   40CHL1   C23 2945   2.181   0.098   7.702  0.1041 -0.6234 -0.6433
   40CHL1  H23A 2946   2.157   0.025   7.783  1.9114  1.2284  1.7271
   40CHL1  H23B 2947   2.291   0.110   7.691  0.1434  1.6043  1.2840
   40CHL1   C24 2948   2.123   0.238   7.755 -0.0493 -0.0506  0.2610
   40CHL1  H24A 2949   2.162   0.322   7.692  1.1763  0.2487  1.3833
   40CHL1  H24B 2950   2.016   0.223   7.729 -0.3820 -1.3491  2.2320
   40CHL1   C25 2951   2.120   0.259   7.906 -0.1447  0.6898 -0.2031
   40CHL1   H25 2952   2.083   0.362   7.929  1.2689  1.1337  0.2067
   40CHL1   C26 2953   2.028   0.156   7.976  0.0553 -0.1347  0.2928
   40CHL1  H26A 2954   2.067   0.052   7.973  0.0003 -0.2143  1.5776
   40CHL1  H26B 2955   2.023   0.184   8.083 -1.7189 -0.1573  0.2375
   40CHL1  H26C 2956   1.925   0.169   7.936  0.5949 -1.1333 -1.5560
   40CHL1   C27 2957   2.263   0.258   7.957  0.1446  0.6103  0.6851
   40CHL1  H27A 2958   2.278   0.295   8.061  0.2974 -0.2598  0.9788
   40CHL1  H27B 2959   2.311   0.158   7.961  0.6647  0.8733  1.0749
   40CHL1  H27C 2960   2.320   0.331   7.897 -1.4940  1.9118  0.6226
   41CHL1    C3 2961   3.765   1.211   7.048 -0.8651 -0.9140  0.6626
   41CHL1    H3 2962   3.688   1.263   7.109 -1.3879 -0.5858 -0.2627
   41CHL1    O3 2963   3.749   1.221   6.906  0.4451 -0.1764  0.2099
   41CHL1   H3' 2964   3.799   1.154   6.860  2.3165  2.0369 -1.2311
   41CHL1    C4 2965   3.907   1.263   7.084  0.4570 -0.2992 -0.1962
   41CHL1   H4A 2966   3.984   1.209   7.026 -0.3178 -0.5193 -1.0353
   41CHL1   H4B 2967   3.919   1.368   7.048 -1.0692 -0.2499 -0.6428
   41CHL1    C5 2968   3.933   1.256   7.234 -0.3756  0.4619 -0.8114
   41CHL1    C6 2969   3.941   1.371   7.314 -0.2830  0.8182  0.7144
   41CHL1    H6 2970   3.933   1.473   7.274 -0.3443  0.7165  0.4653
   41CHL1    C7 2971   3.940   1.360   7.462 -0.1426 -0.4348 -1.2343
   41CHL1   H7A 2972   4.006   1.435   7.510  0.4572 -0.7822 -1.5002
   41CHL1   H7B 2973   3.842   1.392   7.503  1.1136 -0.1505  1.8748
   41CHL1    C8 2974   3.973   1.220   7.522  0.1013 -0.2553 -0.2257
   41CHL1    H8 2975   4.080   1.197   7.506 -0.1161 -2.7217  1.4301
   41CHL1   C14 2976   3.935   1.218   7.674  0.4305 -0.2381  0.4023
   41CHL1   H14 2977   3.828   1.248   7.680  0.5626  0.2383  0.4322
   41CHL1   C15 2978   4.009   1.316   7.772 -0.4607  0.4490  0.4558
   41CHL1  H15A 2979   4.117   1.325   7.747 -0.7832  0.8981 -0.8474
   41CHL1  H15B 2980   3.973   1.420   7.759 -0.9124 -0.0011 -2.6739
   41CHL1   C16 2981   3.970   1.253   7.904  0.6860 -0.2538 -0.2713
   41CHL1  H16A 2982   4.040   1.273   7.989  0.7871  0.2712 -0.4689
   41CHL1  H16B 2983   3.875   1.308   7.921  0.5037 -1.4892  3.7671
   41CHL1   C17 2984   3.926   1.107   7.885  0.7831  0.7315  0.4351
   41CHL1   H17 2985   3.816   1.095   7.898  1.0036 -0.1292  1.7258
   41CHL1   C13 2986   3.955   1.081   7.735  0.3243  0.1858  0.4029
   41CHL1   C18 2987   4.102   1.037   7.724  0.3001  0.0245  0.4676
   41CHL1  H18A 2988   4.134   1.017   7.620 -0.9433 -1.5349  0.3515
   41CHL1  H18B 2989   4.171   1.113   7.768 -1.2268  1.5134  0.4026
   41CHL1  H18C 2990   4.118   0.941   7.778  0.0483 -0.6065 -0.5494
   41CHL1   C12 2991   3.851   0.990   7.667  0.6545 -0.2826  0.2480
   41CHL1  H12A 2992   3.852   0.886   7.706 -0.5665 -0.9266 -1.3183
   41CHL1  H12B 2993   3.748   1.025   7.686 -0.0478 -2.4981  0.8103
   41CHL1   C11 2994   3.879   0.978   7.524  0.5687  0.2806 -0.0538
   41CHL1  H11A 2995   3.973   0.923   7.501  0.4945  0.3144 -0.4551
   41CHL1  H11B 2996   3.794   0.928   7.473  0.1633  1.3421 -0.4547
   41CHL1    C9 2997   3.884   1.120   7.451  0.2255  0.0444  0.7788
   41CHL1    H9 2998   3.784   1.168   7.453 -0.0639 -0.1978 -2.4943
   41CHL1   C10 2999   3.902   1.115   7.297 -0.3817 -0.5196 -0.0873
   41CHL1   C19 3000   4.027   1.026   7.268  0.5755 -0.0718 -0.4279
   41CHL1  H19A 3001   4.001   0.918   7.278 -1.5951  0.3772 -0.7644
   41CHL1  H19B 3002   4.055   1.038   7.161  2.0257 -2.6748 -0.4170
   41CHL1  H19C 3003   4.108   1.057   7.337  0.3558  0.6890 -0.5053
   41CHL1    C1 3004   3.775   1.055   7.232  0.0253  0.8026 -0.7064
   41CHL1   H1A 3005   3.767   0.946   7.248 -0.4313  0.6645 -1.7964
   41CHL1   H1B 3006   3.688   1.093   7.289  0.9945 -0.6306  1.9377
   41CHL1    C2 3007   3.764   1.064   7.085  0.2865 -0.3238  0.2558
   41CHL1   H2A 3008   3.670   1.016   7.049 -1.7224  2.4619  1.3958
   41CHL1   H2B 3009   3.853   1.016   7.039  0.1676  2.2241 -3.0666
   41CHL1   C20 3010   3.984   1.016   7.991 -0.1237  0.0420 -0.5624
   41CHL1   H20 3011   4.095   1.020   7.984  0.0356  0.7820  1.6714
   41CHL1   C21 3012   3.948   0.867   7.972  0.4533  0.2585  0.5858
   41CHL1  H21A 3013   3.959   0.828   7.869 -3.7326  1.6706 -0.5884
   41CHL1  H21B 3014   3.846   0.853   8.013  0.5939 -1.1625  0.5203
   41CHL1  H21C 3015   4.016   0.814   8.042  2.1474  1.0070 -0.4334
   41CHL1   C22 3016   3.940   1.063   8.131 -0.1299 -0.2894 -0.2256
   41CHL1  H22A 3017   3.992   1.157   8.158  0.3455 -1.0114  1.5145
   41CHL1  H22B 3018   3.830   1.073   8.137 -0.0920  1.9297 -2.0726
   41CHL1   C23 3019   3.972   0.961   8.247 -0.2617 -0.5179  1.0405
   41CHL1  H23A 3020   3.934   0.858   8.229  2.3663 -1.9176  2.7604
   41CHL1  H23B 3021   4.081   0.939   8.250  0.7084  3.3753 -0.2028
   41CHL1   C24 3022   3.920   1.004   8.387  0.9402  0.1164  0.2890
   41CHL1  H24A 3023   3.949   1.109   8.407 -2.6673  0.9402  1.8993
   41CHL1  H24B 3024   3.810   0.996   8.379  0.7871  2.7142 -1.6470
   41CHL1   C25 3025   3.957   0.913   8.502 -0.4562 -0.1392  0.2376
   41CHL1   H25 3026   3.966   0.811   8.460 -2.2449  0.0268 -0.6582
   41CHL1   C26 3027   4.102   0.958   8.547 -0.6660  0.1460  0.4788
   41CHL1  H26A 3028   4.144   0.887   8.621  0.6133 -0.7491 -1.0238
   41CHL1  H26B 3029   4.173   0.962   8.461  0.5630 -1.9003  1.3198
   41CHL1  H26C 3030   4.084   1.057   8.594 -0.4237 -0.3883  1.7217
   41CHL1   C27 3031   3.857   0.908   8.620  0.3993  0.1258  0.2015
   41CHL1  H27A 3032   3.756   0.869   8.595  0.4108 -0.7210  1.3957
   41CHL1  H27B 3033   3.894   0.843   8.702 -1.3344 -0.1260  0.8247
   41CHL1  H27C 3034   3.845   1.011   8.659  0.7919  0.4542 -0.5202
   42CHL1    C3 3035   3.117   3.700   6.980  0.1209  0.2294 -0.2835
   42CHL1    H3 3036   3.036   3.777   6.977 -0.2594 -0.1656 -0.1980
   42CHL1    O3 3037   3.167   3.682   6.848 -1.1918 -0.7457  0.9247
   42CHL1   H3' 3038   3.252   3.638   6.848 -1.3760 -1.1030  0.7642
   42CHL1    C4 3039   3.230   3.730   7.074  0.4708  0.3965  0.0606
   42CHL1   H4A 3040   3.288   3.635   7.071 -2.6263 -1.6508  0.1022
   42CHL1   H4B 3041   3.296   3.812   7.036  1.3469 -0.7132 -0.8998
   42CHL1    C5 3042   3.173   3.741   7.214  0.5812  0.0279  0.7970
   42CHL1    C6 3043   3.186   3.855   7.283  0.1044 -0.5532 -0.5128
   42CHL1    H6 3044   3.252   3.928   7.235  2.0145 -1.8080  0.1021
   42CHL1    C7 3045   3.137   3.875   7.426 -0.1675  0.7831 -0.2399
   42CHL1   H7A 3046   3.205   3.945   7.480  0.6638 -0.7511  0.7666
   42CHL1   H7B 3047   3.039   3.927   7.437  0.3932  1.2941  4.1775
   42CHL1    C8 3048   3.115   3.741   7.500  0.6637  0.1433  0.2893
   42CHL1    H8 3049   3.209   3.683   7.517 -0.5838 -1.9468  0.4021
   42CHL1   C14 3050   3.048   3.762   7.634 -0.6814 -0.7113  0.0713
   42CHL1   H14 3051   2.950   3.812   7.621  0.8663  2.8188  0.7868
   42CHL1   C15 3052   3.124   3.850   7.736 -0.4096  0.3800  1.2534
   42CHL1  H15A 3053   3.231   3.822   7.733 -0.4112  0.4338  0.6913
   42CHL1  H15B 3054   3.107   3.959   7.726  1.5102  0.5421 -1.2543
   42CHL1   C16 3055   3.044   3.815   7.866  0.3392 -0.8231  0.3677
   42CHL1  H16A 3056   3.121   3.780   7.938  0.8332  0.5290  0.5267
   42CHL1  H16B 3057   3.000   3.910   7.904  2.7995  0.5226  0.0968
   42CHL1   C17 3058   2.953   3.698   7.837 -0.1527 -0.7202 -0.8355
   42CHL1   H17 3059   2.849   3.729   7.817 -0.4109 -2.4242 -2.3218
   42CHL1   C13 3060   3.002   3.639   7.708 -0.0078 -0.8888 -0.0508
   42CHL1   C18 3061   3.123   3.540   7.742  0.5989 -0.2435 -0.7174
   42CHL1  H18A 3062   3.081   3.445   7.781 -0.9422  0.6797 -0.0134
   42CHL1  H18B 3063   3.185   3.518   7.653  0.2660  0.8614 -1.2526
   42CHL1  H18C 3064   3.184   3.594   7.818  0.4320 -1.0650  0.0129
   42CHL1   C12 3065   2.901   3.569   7.619  0.1772  0.0275  0.8087
   42CHL1  H12A 3066   2.856   3.477   7.662 -2.1388  1.4860  1.6627
   42CHL1  H12B 3067   2.809   3.630   7.620  0.6327  0.7402  2.5646
   42CHL1   C11 3068   2.958   3.532   7.476  0.9077  0.1888 -0.3836
   42CHL1  H11A 3069   3.033   3.450   7.481  0.3345 -0.2706  3.1863
   42CHL1  H11B 3070   2.874   3.492   7.415  0.8693  0.3911 -0.4642
   42CHL1    C9 3071   3.025   3.657   7.407  0.0523 -0.3702  0.2937
   42CHL1    H9 3072   2.942   3.726   7.384  0.8011  0.9220  1.3294
   42CHL1   C10 3073   3.096   3.624   7.271 -1.0371  0.2923  0.4346
   42CHL1   C19 3074   3.191   3.504   7.289  0.2083 -1.0604  0.2484
   42CHL1  H19A 3075   3.137   3.408   7.301  1.5208 -1.8723 -0.1853
   42CHL1  H19B 3076   3.259   3.486   7.204  1.8150 -1.0980  1.4959
   42CHL1  H19C 3077   3.249   3.521   7.382  2.2375  0.4509 -1.2157
   42CHL1    C1 3078   2.985   3.580   7.165  0.2575  0.1631  0.7507
   42CHL1   H1A 3079   2.943   3.483   7.198  1.0719 -0.0805  1.1027
   42CHL1   H1B 3080   2.909   3.659   7.148  0.8064  0.6502  0.5028
   42CHL1    C2 3081   3.042   3.568   7.024  0.2233  0.2896  0.1468
   42CHL1   H2A 3082   2.969   3.550   6.942  0.1858  2.7660 -0.4328
   42CHL1   H2B 3083   3.119   3.488   7.022  0.9758  1.0198 -0.8996
   42CHL1   C20 3084   2.927   3.610   7.962 -0.2742  0.0950 -0.4137
   42CHL1   H20 3085   3.021   3.559   7.992  1.2875  2.2265 -1.5209
   42CHL1   C21 3086   2.816   3.505   7.928  0.7469  0.5197 -0.4299
   42CHL1  H21A 3087   2.863   3.415   7.884 -1.0282 -0.6004 -0.1087
   42CHL1  H21B 3088   2.743   3.540   7.852 -1.1505 -1.0602  0.6054
   42CHL1  H21C 3089   2.775   3.488   8.030 -0.0542 -0.1761 -0.8650
   42CHL1   C22 3090   2.882   3.691   8.089  0.4795 -0.2096 -0.5794
   42CHL1  H22A 3091   2.928   3.792   8.092 -1.0104  0.4654  1.9230
   42CHL1  H22B 3092   2.776   3.722   8.078  0.3942 -0.4157 -0.3439
   42CHL1   C23 3093   2.915   3.626   8.223 -0.1035 -0.4287  0.7808
   42CHL1  H23A 3094   2.867   3.526   8.231 -1.6832  0.0716 -1.2976
   42CHL1  H23B 3095   3.025   3.609   8.227 -0.1242 -1.9722 -2.2039
   42CHL1   C24 3096   2.871   3.707   8.346  0.4679 -0.6664 -0.4636
   42CHL1  H24A 3097   2.907   3.811   8.327 -3.3303  0.7935 -0.4828
   42CHL1  H24B 3098   2.760   3.709   8.349  0.4393  1.4624 -1.0450
   42CHL1   C25 3099   2.933   3.664   8.481 -0.5688  0.1122 -0.3049
   42CHL1   H25 3100   3.044   3.653   8.472 -0.4112 -0.4188  1.8159
   42CHL1   C26 3101   2.910   3.775   8.582  0.7871  0.7931  0.2883
   42CHL1  H26A 3102   2.963   3.742   8.674  1.4465  0.9043 -0.0458
   42CHL1  H26B 3103   2.954   3.875   8.563  3.0114  0.2761  2.1922
   42CHL1  H26C 3104   2.802   3.786   8.608  0.5733  0.1520 -0.2852
   42CHL1   C27 3105   2.860   3.539   8.520 -0.2906  0.5611  0.1217
   42CHL1  H27A 3106   2.909   3.490   8.606  0.2731 -0.8990 -0.9924
   42CHL1  H27B 3107   2.864   3.467   8.436  2.7521  2.4520 -1.5055
   42CHL1  H27C 3108   2.754   3.555   8.550 -0.6806 -1.7689  0.1739
   43CHL1    C3 3109   4.723   1.601   6.747  0.4424 -0.5303 -1.2430
   43CHL1    H3 3110   4.783   1.694   6.740  0.1378 -0.4428 -3.4072
   43CHL1    O3 3111   4.672   1.566   6.622 -0.3019  0.4475  0.5734
   43CHL1   H3' 3112   4.726   1.491   6.596 -1.6738 -0.2625 -0.3611
   43CHL1    C4 3113   4.810   1.494   6.802 -1.5903  0.7100  0.0020
   43CHL1   H4A 3114   4.760   1.396   6.791  0.7281 -0.4068 -1.4662
   43CHL1   H4B 3115   4.899   1.497   6.735 -0.0726  1.3742  1.9259
   43CHL1    C5 3116   4.847   1.513   6.944 -1.0896  0.0015  0.2173
   43CHL1    C6 3117   4.976   1.499   6.986  0.3150  0.2958  0.2467
   43CHL1    H6 3118   5.049   1.478   6.907  0.7027  1.8801  0.1592
   43CHL1    C7 3119   5.029   1.503   7.132  0.3128  0.3845  0.4012
   43CHL1   H7A 3120   5.087   1.410   7.151  0.8736  0.2713 -1.5679
   43CHL1   H7B 3121   5.096   1.591   7.149  0.6451  0.7722 -2.3586
   43CHL1    C8 3122   4.913   1.507   7.230 -0.0295  0.0296  0.0787
   43CHL1    H8 3123   4.890   1.403   7.261  0.3763  0.0837  0.5583
   43CHL1   C14 3124   4.962   1.561   7.362  0.4812 -0.4849  0.0508
   43CHL1   H14 3125   4.974   1.671   7.349 -1.1121 -0.3456 -0.4024
   43CHL1   C15 3126   5.098   1.522   7.411 -0.5807  0.6821 -0.0875
   43CHL1  H15A 3127   5.109   1.413   7.391 -0.8133  0.4769  0.8511
   43CHL1  H15B 3128   5.182   1.584   7.373 -0.6103  0.7096 -0.1094
   43CHL1   C16 3129   5.088   1.541   7.559 -0.0949  0.0061 -0.3099
   43CHL1  H16A 3130   5.091   1.443   7.611 -0.9883 -1.1544 -2.3219
   43CHL1  H16B 3131   5.165   1.603   7.608  0.4670  0.8544 -2.1641
   43CHL1   C17 3132   4.952   1.606   7.590  0.3840 -0.4585 -0.0870
   43CHL1   H17 3133   4.963   1.716   7.576 -1.8322 -0.3324 -1.3674
   43CHL1   C13 3134   4.861   1.556   7.477  0.9719  0.3792  0.9321
   43CHL1   C18 3135   4.803   1.411   7.499  0.5266 -0.1325 -0.5654
   43CHL1  H18A 3136   4.726   1.420   7.578  0.7515  2.3975 -0.5505
   43CHL1  H18B 3137   4.754   1.352   7.418  0.2012 -1.7306  0.7596
   43CHL1  H18C 3138   4.876   1.342   7.544  1.4767  0.3280 -1.3530
   43CHL1   C12 3139   4.743   1.642   7.436  0.2105 -0.3358  0.4327
   43CHL1  H12A 3140   4.657   1.652   7.506  0.7509  1.4592  0.8893
   43CHL1  H12B 3141   4.779   1.747   7.430 -0.6338 -0.1087 -2.1798
   43CHL1   C11 3142   4.686   1.614   7.294  0.0140  0.1592 -0.2774
   43CHL1  H11A 3143   4.632   1.518   7.312  2.2366 -0.5967  3.2446
   43CHL1  H11B 3144   4.604   1.682   7.262 -0.4547 -0.0633  0.4247
   43CHL1    C9 3145   4.798   1.594   7.180 -0.2790  0.0758 -0.9642
   43CHL1    H9 3146   4.834   1.699   7.172 -0.2559  0.6161  3.5861
   43CHL1   C10 3147   4.736   1.549   7.043 -0.1734 -0.8576 -0.6699
   43CHL1   C19 3148   4.651   1.424   7.055 -0.7552  0.3160 -0.2522
   43CHL1  H19A 3149   4.700   1.344   7.114 -0.1449  0.9374  0.0828
   43CHL1  H19B 3150   4.556   1.452   7.106 -0.6665  0.6287 -0.2579
   43CHL1  H19C 3151   4.628   1.377   6.957  2.4114 -1.3260 -0.3209
   43CHL1    C1 3152   4.651   1.662   6.982 -1.0166 -0.6671 -0.3093
   43CHL1   H1A 3153   4.569   1.693   7.051  0.1960 -1.1132  1.4030
   43CHL1   H1B 3154   4.722   1.747   6.973  0.5676 -1.8790  0.1510
   43CHL1    C2 3155   4.608   1.644   6.837  0.5558 -0.1507  0.1590
   43CHL1   H2A 3156   4.562   1.740   6.805  1.2953 -0.7875 -3.1816
   43CHL1   H2B 3157   4.539   1.558   6.836  0.4820 -0.0936  0.4245
   43CHL1   C20 3158   4.891   1.586   7.737 -0.4287  0.0561  0.0870
   43CHL1   H20 3159   4.850   1.484   7.750 -4.3254  0.9284 -3.3051
   43CHL1   C21 3160   4.775   1.684   7.762  0.6219 -0.0404 -0.3020
   43CHL1  H21A 3161   4.733   1.648   7.858 -0.3837  1.6468 -0.0813
   43CHL1  H21B 3162   4.690   1.672   7.690  0.7526 -0.5517 -0.3781
   43CHL1  H21C 3163   4.801   1.787   7.792 -1.4901 -0.2953  2.9372
   43CHL1   C22 3164   5.010   1.588   7.843  0.8361 -0.0254 -0.4236
   43CHL1  H22A 3165   5.073   1.499   7.824  1.6806  0.0063  1.9882
   43CHL1  H22B 3166   5.062   1.687   7.837 -0.6698  0.7593 -1.1698
   43CHL1   C23 3167   4.949   1.572   7.984 -0.5593  0.1881 -0.0131
   43CHL1  H23A 3168   4.900   1.669   8.011 -1.5153  0.0214 -1.0828
   43CHL1  H23B 3169   4.873   1.491   7.982 -1.1457  0.7150  0.4894
   43CHL1   C24 3170   5.051   1.539   8.090  0.0022 -1.1527 -0.2229
   43CHL1  H24A 3171   5.091   1.437   8.071  0.0872 -1.1352 -0.1376
   43CHL1  H24B 3172   5.133   1.614   8.087 -0.9061 -0.1056  0.2298
   43CHL1   C25 3173   5.003   1.538   8.241  0.5588 -0.3732 -0.0753
   43CHL1   H25 3174   4.961   1.638   8.264 -1.5722 -1.4682  1.0761
   43CHL1   C26 3175   4.905   1.426   8.275  0.5449 -0.7454 -0.1970
   43CHL1  H26A 3176   4.886   1.422   8.385  0.6877 -2.4329 -0.2153
   43CHL1  H26B 3177   4.807   1.425   8.224  0.0738 -0.0818  0.6707
   43CHL1  H26C 3178   4.941   1.325   8.247 -1.3873 -1.6826  0.5476
   43CHL1   C27 3179   5.128   1.533   8.339 -0.8505  0.3690  0.5400
   43CHL1  H27A 3180   5.190   1.625   8.340  0.7185 -0.5895 -0.7550
   43CHL1  H27B 3181   5.091   1.513   8.441 -0.7734 -0.4411  0.4190
   43CHL1  H27C 3182   5.188   1.445   8.306 -0.7961 -0.1938  2.0616
   44CHL1    C3 3183   4.075   0.598   6.796  0.7329 -0.2996 -0.9365
   44CHL1    H3 3184   4.038   0.702   6.807  3.1650  0.4412  1.1351
   44CHL1    O3 3185   4.069   0.559   6.661 -0.2465 -0.1573 -0.2833
   44CHL1   H3' 3186   4.079   0.646   6.622 -0.5577 -0.7631 -1.7596
   44CHL1    C4 3187   4.216   0.611   6.856 -0.4953  0.4185 -0.6530
   44CHL1   H4A 3188   4.271   0.516   6.844  0.0068  0.5926  0.2078
   44CHL1   H4B 3189   4.259   0.683   6.782 -2.7542  0.0635 -2.4378
   44CHL1    C5 3190   4.215   0.651   7.003 -0.3410  0.5385 -0.4556
   44CHL1    C6 3191   4.278   0.763   7.046  0.0077  0.4418  0.0235
   44CHL1    H6 3192   4.332   0.827   6.974 -1.8086  2.1441  0.0893
   44CHL1    C7 3193   4.308   0.788   7.191  0.3269  0.6613 -0.5236
   44CHL1   H7A 3194   4.415   0.811   7.208  0.0192  1.8325 -0.1077
   44CHL1   H7B 3195   4.261   0.879   7.234 -1.6943 -1.0671  1.1661
   44CHL1    C8 3196   4.269   0.673   7.281  0.1439  0.0276 -0.2579
   44CHL1    H8 3197   4.347   0.594   7.272  1.7927  1.3387  1.4327
   44CHL1   C14 3198   4.265   0.717   7.424  0.2322 -0.0194  0.2579
   44CHL1   H14 3199   4.189   0.798   7.422 -0.9228 -1.0743 -1.8928
   44CHL1   C15 3200   4.387   0.790   7.483  0.0509 -0.2710 -0.5645
   44CHL1  H15A 3201   4.472   0.720   7.465 -1.7186 -2.7855  0.1924
   44CHL1  H15B 3202   4.401   0.894   7.448 -1.0900 -0.3852 -1.4197
   44CHL1   C16 3203   4.358   0.794   7.640 -0.1006  0.8628  0.2779
   44CHL1  H16A 3204   4.446   0.752   7.693 -1.5802 -0.8268  1.4679
   44CHL1  H16B 3205   4.334   0.895   7.680 -4.0770  0.4448 -0.6151
   44CHL1   C17 3206   4.240   0.693   7.663 -0.3009 -0.6091  0.4140
   44CHL1   H17 3207   4.147   0.754   7.668  0.9105  1.2575  1.4272
   44CHL1   C13 3208   4.223   0.612   7.528  0.4090 -0.7726  0.9598
   44CHL1   C18 3209   4.334   0.492   7.530  0.2353  0.2030 -0.0159
   44CHL1  H18A 3210   4.302   0.418   7.607 -0.6842  1.7550  1.1647
   44CHL1  H18B 3211   4.339   0.444   7.430 -0.1152 -1.3840  0.6970
   44CHL1  H18C 3212   4.430   0.544   7.548  0.9180  0.2167 -3.1247
   44CHL1   C12 3213   4.087   0.560   7.488 -0.6527  0.0556 -0.5131
   44CHL1  H12A 3214   4.043   0.485   7.556  0.2390 -0.9541 -1.0236
   44CHL1  H12B 3215   4.018   0.645   7.468 -2.2836 -1.8746 -3.9171
   44CHL1   C11 3216   4.086   0.505   7.341  0.1781  0.1677 -0.5307
   44CHL1  H11A 3217   4.144   0.410   7.346  0.1044  0.1446  4.0286
   44CHL1  H11B 3218   3.979   0.493   7.315 -0.2223  3.3943 -0.7729
   44CHL1    C9 3219   4.129   0.607   7.230  0.0907 -0.8757  0.2950
   44CHL1    H9 3220   4.042   0.676   7.232 -0.1635 -1.1970  1.8756
   44CHL1   C10 3221   4.135   0.557   7.091 -0.6908  0.7065 -0.0593
   44CHL1   C19 3222   4.198   0.410   7.098 -0.1545 -0.3780 -0.3075
   44CHL1  H19A 3223   4.289   0.410   7.162 -1.2612 -2.0559  1.3387
   44CHL1  H19B 3224   4.127   0.332   7.132  0.5149 -0.8486  0.0439
   44CHL1  H19C 3225   4.239   0.382   6.998  0.3416 -2.6500  0.4788
   44CHL1    C1 3226   3.990   0.543   7.034 -0.7784  0.8861 -0.1256
   44CHL1   H1A 3227   3.933   0.465   7.089 -0.1196  0.5867  0.1405
   44CHL1   H1B 3228   3.934   0.638   7.049  0.5569  1.8227 -0.9187
   44CHL1    C2 3229   3.985   0.506   6.884 -0.9124 -0.0620 -0.7721
   44CHL1   H2A 3230   3.877   0.512   6.861 -0.9553  0.2142 -0.5117
   44CHL1   H2B 3231   4.003   0.397   6.873 -2.9799 -0.9578  2.9160
   44CHL1   C20 3232   4.257   0.621   7.799  0.3050 -0.0697  0.4245
   44CHL1   H20 3233   4.340   0.549   7.781 -0.0361 -0.6735  1.1812
   44CHL1   C21 3234   4.133   0.532   7.834  0.4621 -0.2838  0.4063
   44CHL1  H21A 3235   4.141   0.479   7.931  1.0279 -0.7063  0.1392
   44CHL1  H21B 3236   4.123   0.454   7.755  0.3003 -0.1482  0.2941
   44CHL1  H21C 3237   4.047   0.601   7.838  0.7788  0.1289  0.1384
   44CHL1   C22 3238   4.291   0.711   7.919  0.4355 -0.0461  0.3569
   44CHL1  H22A 3239   4.383   0.772   7.910  0.6285 -0.3460  0.3090
   44CHL1  H22B 3240   4.200   0.776   7.927 -0.5634 -1.4901  1.1795
   44CHL1   C23 3241   4.302   0.635   8.051 -0.3441 -0.0907 -0.5813
   44CHL1  H23A 3242   4.214   0.575   8.083  0.8727 -0.8354  1.6016
   44CHL1  H23B 3243   4.389   0.565   8.048  1.2356  1.6899  1.1312
   44CHL1   C24 3244   4.333   0.727   8.179 -0.2604 -0.0009 -0.3182
   44CHL1  H24A 3245   4.420   0.795   8.165 -2.2375  3.0579  1.1007
   44CHL1  H24B 3246   4.253   0.800   8.207  1.1255  0.3170  3.3768
   44CHL1   C25 3247   4.358   0.643   8.315  0.1209 -0.6573  0.8088
   44CHL1   H25 3248   4.450   0.582   8.302  1.4124  1.5258 -1.2912
   44CHL1   C26 3249   4.389   0.739   8.437 -0.3156 -0.1418  0.2333
   44CHL1  H26A 3250   4.390   0.683   8.533 -0.7195  0.2235  0.4513
   44CHL1  H26B 3251   4.488   0.789   8.425  0.3503 -1.7980 -2.0258
   44CHL1  H26C 3252   4.300   0.805   8.444 -2.2652 -2.4129 -1.4541
   44CHL1   C27 3253   4.237   0.553   8.348  0.1645  0.1871  0.3560
   44CHL1  H27A 3254   4.247   0.507   8.449  2.0074  0.7502  0.4610
   44CHL1  H27B 3255   4.138   0.602   8.335 -0.0734 -0.2485  0.5175
   44CHL1  H27C 3256   4.243   0.466   8.279 -1.5527 -0.7741  1.3333
   45CHL1    C3 3257   6.576   4.355   6.783 -0.4783  0.3731  0.0361
   45CHL1    H3 3258   6.550   4.247   6.791  1.0771 -0.0297  0.0013
   45CHL1    O3 3259   6.589   4.400   6.645  0.2391 -0.0184 -0.5150
   45CHL1   H3' 3260   6.499   4.388   6.616  0.7223  0.3378 -2.2831
   45CHL1    C4 3261   6.466   4.426   6.862 -0.2280  0.3538  0.3319
   45CHL1   H4A 3262   6.473   4.534   6.838 -0.5175 -0.2142 -2.7420
   45CHL1   H4B 3263   6.375   4.395   6.806  0.6832 -0.1688 -0.9005
   45CHL1    C5 3264   6.467   4.390   7.007  0.4626 -0.0815  0.0953
   45CHL1    C6 3265   6.345   4.368   7.059 -0.0922  0.0671  0.3442
   45CHL1    H6 3266   6.255   4.373   6.996 -0.0005 -0.8600  0.1261
   45CHL1    C7 3267   6.327   4.338   7.202  0.0689 -0.7275 -0.7602
   45CHL1   H7A 3268   6.247   4.400   7.248  0.6398  1.1255 -2.1468
   45CHL1   H7B 3269   6.291   4.234   7.214  2.8029 -1.5583  1.1761
   45CHL1    C8 3270   6.457   4.356   7.292 -0.2530 -0.0305  0.5556
   45CHL1    H8 3271   6.472   4.466   7.303 -1.3131  0.5329 -2.7125
   45CHL1   C14 3272   6.452   4.282   7.423 -0.1517 -0.7580 -1.0754
   45CHL1   H14 3273   6.447   4.175   7.394 -0.2668 -0.9081 -0.5052
   45CHL1   C15 3274   6.313   4.291   7.500  0.1071  0.3376  0.2356
   45CHL1  H15A 3275   6.292   4.399   7.499  2.0486  0.7600 -0.2584
   45CHL1  H15B 3276   6.233   4.233   7.450 -0.0037  0.2292  0.5330
   45CHL1   C16 3277   6.354   4.254   7.651  0.0884  0.2595 -0.3443
   45CHL1  H16A 3278   6.303   4.328   7.715  0.1594 -0.1483  0.1847
   45CHL1  H16B 3279   6.307   4.154   7.664  1.4399 -0.3379  0.1322
   45CHL1   C17 3280   6.505   4.238   7.654 -0.8880 -0.1005  0.0019
   45CHL1   H17 3281   6.522   4.133   7.621  0.8214 -0.3552  1.5763
   45CHL1   C13 3282   6.557   4.308   7.525 -0.1140  0.0204  0.3158
   45CHL1   C18 3283   6.571   4.457   7.558  0.4807  0.5204 -0.3340
   45CHL1  H18A 3284   6.664   4.476   7.616 -1.1693  1.2183  2.2233
   45CHL1  H18B 3285   6.594   4.516   7.466  1.8242  1.5167  0.5948
   45CHL1  H18C 3286   6.479   4.495   7.607  0.2357  0.9754 -1.1191
   45CHL1   C12 3287   6.693   4.257   7.464 -0.0359  0.6259  0.9050
   45CHL1  H12A 3288   6.780   4.263   7.533  1.6205 -2.7674 -0.6941
   45CHL1  H12B 3289   6.686   4.148   7.448  3.0912  0.2300  1.6933
   45CHL1   C11 3290   6.714   4.318   7.321  0.8165  0.2214  0.2966
   45CHL1  H11A 3291   6.760   4.418   7.333  0.6659  0.2678  0.4991
   45CHL1  H11B 3292   6.782   4.248   7.268 -1.3803 -2.9758  1.3852
   45CHL1    C9 3293   6.586   4.314   7.223  0.3297  0.3925 -0.0898
   45CHL1    H9 3294   6.578   4.207   7.195  1.4548  0.0763  0.7365
   45CHL1   C10 3295   6.594   4.391   7.088 -0.3714 -0.3081  0.6079
   45CHL1   C19 3296   6.646   4.535   7.106  0.5980  0.5721  0.0822
   45CHL1  H19A 3297   6.754   4.536   7.134  0.8294  0.3259 -0.7671
   45CHL1  H19B 3298   6.642   4.600   7.016  2.2138  1.8938  0.9159
   45CHL1  H19C 3299   6.597   4.586   7.192 -0.2326  1.7607 -1.0543
   45CHL1    C1 3300   6.691   4.317   6.992  0.0480 -0.5062  0.3633
   45CHL1   H1A 3301   6.785   4.320   7.050  0.2425  1.8286  0.0427
   45CHL1   H1B 3302   6.656   4.214   6.972 -1.7798 -0.0970  1.1495
   45CHL1    C2 3303   6.707   4.381   6.851  0.0978  0.3168 -0.1608
   45CHL1   H2A 3304   6.796   4.323   6.819  0.1871 -0.2197  0.9907
   45CHL1   H2B 3305   6.746   4.485   6.860 -0.7913  0.5261  1.6850
   45CHL1   C20 3306   6.594   4.251   7.774  0.5662 -0.0083  0.8581
   45CHL1   H20 3307   6.693   4.293   7.747  0.7100  0.1059  1.5342
   45CHL1   C21 3308   6.630   4.114   7.830  0.6425 -0.3549 -0.3014
   45CHL1  H21A 3309   6.682   4.121   7.928 -0.8176  1.0318  0.4145
   45CHL1  H21B 3310   6.696   4.055   7.762 -0.1076 -0.9074 -0.5655
   45CHL1  H21C 3311   6.533   4.059   7.836 -0.5124  1.4697 -1.2037
   45CHL1   C22 3312   6.552   4.365   7.881  1.0151 -0.3439 -0.1015
   45CHL1  H22A 3313   6.641   4.431   7.895  0.1646  0.6546  0.7991
   45CHL1  H22B 3314   6.464   4.424   7.848 -0.2407 -0.6603  2.4750
   45CHL1   C23 3315   6.512   4.313   8.023 -0.5311 -0.2861  0.5106
   45CHL1  H23A 3316   6.458   4.217   8.014 -0.2372 -0.4467  0.4308
   45CHL1  H23B 3317   6.610   4.297   8.074 -0.8162  2.5014  2.1296
   45CHL1   C24 3318   6.453   4.426   8.112  0.3590  0.4649  0.3520
   45CHL1  H24A 3319   6.425   4.372   8.205  0.7279 -0.5805 -0.1245
   45CHL1  H24B 3320   6.518   4.511   8.142  0.1858  1.2862 -1.4682
   45CHL1   C25 3321   6.320   4.491   8.072  1.0557  0.5462 -0.4098
   45CHL1   H25 3322   6.342   4.538   7.974  0.7211  1.3126 -0.1282
   45CHL1   C26 3323   6.206   4.388   8.048  0.1074  0.1138  0.0466
   45CHL1  H26A 3324   6.109   4.433   8.020  0.1018  0.2167  0.2271
   45CHL1  H26B 3325   6.230   4.309   7.974  0.8191 -1.3509  1.7575
   45CHL1  H26C 3326   6.171   4.336   8.140  1.0892 -1.5885 -0.4936
   45CHL1   C27 3327   6.277   4.602   8.173 -0.5168 -0.4626 -0.0876
   45CHL1  H27A 3328   6.358   4.678   8.184  0.7285 -1.8219  0.4330
   45CHL1  H27B 3329   6.183   4.652   8.141 -0.4939  0.4536  1.1801
   45CHL1  H27C 3330   6.251   4.564   8.274  1.0158 -1.7925 -0.1465
   46CHL1    C3 3331   5.376   6.423   7.001  1.2334  0.5005  0.6914
   46CHL1    H3 3332   5.422   6.329   6.962  1.1898  1.8095 -2.8649
   46CHL1    O3 3333   5.360   6.511   6.891 -0.1165  0.9160  0.6956
   46CHL1   H3' 3334   5.420   6.475   6.826 -0.5948  0.7560  0.3390
   46CHL1    C4 3335   5.240   6.388   7.070  0.1526 -0.5122 -0.1586
   46CHL1   H4A 3336   5.205   6.491   7.092 -1.5268 -0.7266 -1.5877
   46CHL1   H4B 3337   5.170   6.354   6.990 -1.3165  1.6141  0.1330
   46CHL1    C5 3338   5.261   6.309   7.196  0.3062 -0.3752 -0.1570
   46CHL1    C6 3339   5.189   6.198   7.212 -0.8845  0.0137 -0.0297
   46CHL1    H6 3340   5.110   6.166   7.142 -2.2962 -1.0438  1.9539
   46CHL1    C7 3341   5.206   6.111   7.336  0.4397  0.2842 -0.2186
   46CHL1   H7A 3342   5.107   6.077   7.373 -0.4718  1.3236 -1.6131
   46CHL1   H7B 3343   5.271   6.024   7.311 -1.1327  0.0442 -4.1735
   46CHL1    C8 3344   5.269   6.190   7.457  0.2897  0.6248 -0.5739
   46CHL1    H8 3345   5.196   6.265   7.497 -0.4943  0.0405 -0.8780
   46CHL1   C14 3346   5.317   6.097   7.572  0.3578  0.0577  1.2542
   46CHL1   H14 3347   5.394   6.030   7.528  0.4370  0.7055  0.3575
   46CHL1   C15 3348   5.214   5.993   7.618  0.2027 -0.3357  0.6001
   46CHL1  H15A 3349   5.125   6.055   7.637  0.7796  1.2992 -1.6458
   46CHL1  H15B 3350   5.197   5.912   7.543  1.9196  0.3752 -0.6366
   46CHL1   C16 3351   5.281   5.934   7.741  0.5512 -0.5119 -0.6836
   46CHL1  H16A 3352   5.216   5.941   7.831  0.8033  3.4274 -0.6465
   46CHL1  H16B 3353   5.321   5.833   7.716 -0.7904 -1.0364 -0.8013
   46CHL1   C17 3354   5.404   6.025   7.776 -0.0811 -0.2662  0.2487
   46CHL1   H17 3355   5.495   5.970   7.744 -1.1028 -1.9327  0.1016
   46CHL1   C13 3356   5.384   6.153   7.694 -0.1715 -0.4112 -0.3377
   46CHL1   C18 3357   5.290   6.253   7.770  0.1846 -0.6631  0.2650
   46CHL1  H18A 3358   5.191   6.214   7.802 -0.7220  1.1841 -0.1307
   46CHL1  H18B 3359   5.330   6.301   7.862  0.2667  0.2334 -0.2174
   46CHL1  H18C 3360   5.266   6.339   7.704  0.3524  0.1386  1.2213
   46CHL1   C12 3361   5.514   6.222   7.641  0.6084  0.1993 -0.2064
   46CHL1  H12A 3362   5.561   6.261   7.734  0.4218 -0.0874  0.0100
   46CHL1  H12B 3363   5.588   6.155   7.592  1.6129  1.4503 -0.4435
   46CHL1   C11 3364   5.471   6.324   7.538  0.2768 -0.6346  0.5620
   46CHL1  H11A 3365   5.412   6.405   7.585 -0.6572 -1.9254  1.6847
   46CHL1  H11B 3366   5.564   6.364   7.492 -0.5968 -0.0209 -0.7096
   46CHL1    C9 3367   5.390   6.266   7.413 -1.1030 -0.5988  0.0015
   46CHL1    H9 3368   5.460   6.194   7.366  0.1422 -0.0191  0.8950
   46CHL1   C10 3369   5.356   6.370   7.306  0.3935  0.4363  0.3205
   46CHL1   C19 3370   5.291   6.493   7.369  0.1656  0.1368  0.2589
   46CHL1  H19A 3371   5.251   6.556   7.287  1.2520 -1.4204 -1.5588
   46CHL1  H19B 3372   5.204   6.468   7.435 -0.5065  1.4410 -0.1079
   46CHL1  H19C 3373   5.360   6.554   7.432  0.1392  0.8345 -0.3807
   46CHL1    C1 3374   5.486   6.407   7.237 -0.4200 -0.3440  0.2122
   46CHL1   H1A 3375   5.535   6.469   7.315 -0.8516 -1.2871  1.2591
   46CHL1   H1B 3376   5.548   6.317   7.225  2.0392  0.9597  2.1623
   46CHL1    C2 3377   5.471   6.487   7.098  0.0363 -0.6460 -0.6604
   46CHL1   H2A 3378   5.574   6.495   7.058  0.0822  0.7416 -0.3039
   46CHL1   H2B 3379   5.424   6.582   7.130 -0.8300 -1.3950  0.3654
   46CHL1   C20 3380   5.427   6.031   7.925 -0.3095 -0.1936  0.3024
   46CHL1   H20 3381   5.350   6.098   7.969 -1.1785 -1.7936  1.2872
   46CHL1   C21 3382   5.574   6.081   7.949  0.0627 -0.2309  0.0164
   46CHL1  H21A 3383   5.593   6.071   8.058  0.0339 -1.3977 -0.0746
   46CHL1  H21B 3384   5.595   6.187   7.923 -0.1640 -0.5234 -1.4237
   46CHL1  H21C 3385   5.655   6.028   7.894 -0.9983  1.4725 -3.4294
   46CHL1   C22 3386   5.426   5.891   7.994  0.4412 -0.3399  0.0909
   46CHL1  H22A 3387   5.360   5.814   7.950  1.7096 -2.0863  1.1502
   46CHL1  H22B 3388   5.525   5.847   7.973  1.3329  2.1321 -1.2729
   46CHL1   C23 3389   5.392   5.896   8.150  0.3229  0.3948 -0.5695
   46CHL1  H23A 3390   5.406   5.790   8.181  3.7545  0.8455 -0.1389
   46CHL1  H23B 3391   5.462   5.962   8.206 -2.6276  1.5836  1.9858
   46CHL1   C24 3392   5.256   5.944   8.186  0.3620  0.0479  0.1949
   46CHL1  H24A 3393   5.247   6.053   8.169  1.4949  0.5622  2.5080
   46CHL1  H24B 3394   5.183   5.893   8.119 -0.5830 -1.1449  2.0407
   46CHL1   C25 3395   5.203   5.934   8.329 -0.7663 -0.0790  0.3983
   46CHL1   H25 3396   5.165   5.829   8.338 -2.2370  0.4759  1.0798
   46CHL1   C26 3397   5.306   5.960   8.438  0.1259 -0.7124 -0.3188
   46CHL1  H26A 3398   5.341   6.064   8.450  0.5476 -1.1167  2.7368
   46CHL1  H26B 3399   5.252   5.939   8.532 -0.0257 -2.4509 -0.7486
   46CHL1  H26C 3400   5.387   5.885   8.424 -1.6549 -2.4207 -2.2670
   46CHL1   C27 3401   5.084   6.023   8.352  0.4568  0.0758 -0.0976
   46CHL1  H27A 3402   5.003   5.987   8.287  0.1064  0.1014  0.3176
   46CHL1  H27B 3403   5.043   5.997   8.452  0.7990 -1.0706 -0.2410
   46CHL1  H27C 3404   5.114   6.129   8.336 -0.3388  0.7344  2.2369
   47CHL1    C3 3405   3.573   0.559   6.650  0.8903  0.2887 -0.3803
   47CHL1    H3 3406   3.674   0.513   6.643  0.6890  0.0587 -2.2088
   47CHL1    O3 3407   3.532   0.577   6.516 -0.1736  0.1660 -0.5239
   47CHL1   H3' 3408   3.562   0.497   6.471 -2.2789 -0.7948 -0.3398
   47CHL1    C4 3409   3.465   0.476   6.717  0.8463 -0.0194  0.0919
   47CHL1   H4A 3410   3.374   0.539   6.725  0.5525 -0.4777  0.4061
   47CHL1   H4B 3411   3.440   0.382   6.664  0.0705 -0.6939  1.6139
   47CHL1    C5 3412   3.520   0.455   6.854 -0.0668 -0.2654  0.4396
   47CHL1    C6 3413   3.562   0.333   6.901 -0.1773  0.1865  0.3716
   47CHL1    H6 3414   3.561   0.252   6.826 -1.7834 -0.4993  1.0784
   47CHL1    C7 3415   3.600   0.305   7.042 -0.5382 -0.4534  0.5260
   47CHL1   H7A 3416   3.553   0.211   7.080 -0.2712 -0.7534  0.1178
   47CHL1   H7B 3417   3.707   0.275   7.040 -0.5718 -0.5879  0.7438
   47CHL1    C8 3418   3.578   0.420   7.148  0.0098  0.5003  0.1175
   47CHL1    H8 3419   3.472   0.411   7.181 -0.5132  0.8579 -1.3944
   47CHL1   C14 3420   3.664   0.398   7.281  0.1762  0.3500  0.6949
   47CHL1   H14 3421   3.768   0.407   7.244 -1.3036  1.2257 -3.9993
   47CHL1   C15 3422   3.659   0.263   7.351  0.0835  0.4767 -0.2982
   47CHL1  H15A 3423   3.557   0.220   7.346  0.1049 -0.4800  3.8042
   47CHL1  H15B 3424   3.737   0.197   7.307  0.8488 -0.6302  2.5284
   47CHL1   C16 3425   3.680   0.294   7.501 -0.4193 -0.3015  0.0858
   47CHL1  H16A 3426   3.597   0.274   7.572 -0.0332  1.6221  1.1220
   47CHL1  H16B 3427   3.766   0.235   7.538 -0.1832 -1.0231 -1.5124
   47CHL1   C17 3428   3.715   0.452   7.501 -0.0498 -0.4067 -0.0408
   47CHL1   H17 3429   3.824   0.454   7.480 -0.0780  0.7789 -0.1692
   47CHL1   C13 3430   3.625   0.498   7.386  0.0798 -0.4767 -0.2582
   47CHL1   C18 3431   3.476   0.503   7.419  0.1893 -0.1154 -0.2465
   47CHL1  H18A 3432   3.453   0.403   7.464  1.4186  0.0276  0.7544
   47CHL1  H18B 3433   3.463   0.575   7.502  0.3131 -0.4953  0.1072
   47CHL1  H18C 3434   3.412   0.530   7.332  0.0939  1.4215  0.2718
   47CHL1   C12 3435   3.659   0.643   7.336 -0.4164  0.1511 -0.6532
   47CHL1  H12A 3436   3.618   0.718   7.408  0.6039 -1.4591  1.7382
   47CHL1  H12B 3437   3.769   0.639   7.326 -0.4623 -1.9041 -0.7283
   47CHL1   C11 3438   3.599   0.668   7.194  0.8459  0.2500 -0.3033
   47CHL1  H11A 3439   3.491   0.688   7.209  0.4696  0.9506 -3.3424
   47CHL1  H11B 3440   3.645   0.766   7.172 -0.7409  1.2505  0.6455
   47CHL1    C9 3441   3.606   0.554   7.087 -0.2188  0.3343  0.2204
   47CHL1    H9 3442   3.713   0.533   7.065 -0.7577 -0.9127 -1.3623
   47CHL1   C10 3443   3.530   0.578   6.951  1.3406 -0.3503  0.5982
   47CHL1   C19 3444   3.385   0.630   6.985 -0.2257 -0.1403 -0.4842
   47CHL1  H19A 3445   3.324   0.646   6.894 -3.7702 -1.0329  1.5526
   47CHL1  H19B 3446   3.323   0.566   7.052  0.1251 -0.7807 -0.7595
   47CHL1  H19C 3447   3.395   0.729   7.033 -0.1630 -0.3570 -0.0397
   47CHL1    C1 3448   3.616   0.685   6.880 -0.4156 -0.1187  0.2809
   47CHL1   H1A 3449   3.575   0.777   6.928 -0.9039  0.2302 -0.7843
   47CHL1   H1B 3450   3.724   0.664   6.897  0.3736  2.7840 -0.5235
   47CHL1    C2 3451   3.590   0.696   6.723 -0.0408 -0.1866 -0.6603
   47CHL1   H2A 3452   3.679   0.739   6.673 -1.4626  1.8126 -1.6083
   47CHL1   H2B 3453   3.499   0.757   6.701  0.4174  1.1494  0.8813
   47CHL1   C20 3454   3.700   0.515   7.640 -0.3879 -0.0505  0.3750
   47CHL1   H20 3455   3.592   0.541   7.646 -0.5184  0.1755 -1.9430
   47CHL1   C21 3456   3.775   0.650   7.640  0.2070  0.4009  0.2510
   47CHL1  H21A 3457   3.761   0.704   7.736  0.1967  0.8748 -0.0099
   47CHL1  H21B 3458   3.745   0.713   7.553 -2.5738 -1.9462 -0.6722
   47CHL1  H21C 3459   3.885   0.635   7.640  0.6669  3.1151 -1.0148
   47CHL1   C22 3460   3.719   0.431   7.767 -0.0912  0.0955  0.6769
   47CHL1  H22A 3461   3.643   0.350   7.763  0.6327 -0.7397  2.6251
   47CHL1  H22B 3462   3.824   0.393   7.766 -0.5540 -1.3312  1.9624
   47CHL1   C23 3463   3.698   0.513   7.900 -0.3240  0.2192  0.0438
   47CHL1  H23A 3464   3.785   0.581   7.913 -0.1090 -0.1415  0.5632
   47CHL1  H23B 3465   3.606   0.574   7.892 -0.2191  0.1234 -3.6621
   47CHL1   C24 3466   3.687   0.423   8.025  0.2119 -0.2500 -0.3178
   47CHL1  H24A 3467   3.595   0.362   8.008  0.1986  0.3835 -3.1328
   47CHL1  H24B 3468   3.769   0.349   8.032  1.4588  0.9291 -1.7199
   47CHL1   C25 3469   3.661   0.491   8.159  0.1645  0.3090  0.0583
   47CHL1   H25 3470   3.582   0.567   8.144  0.1837  0.5806  1.1964
   47CHL1   C26 3471   3.621   0.394   8.267  0.1137 -0.1160  0.0316
   47CHL1  H26A 3472   3.525   0.341   8.248  0.1505  0.2406 -1.3044
   47CHL1  H26B 3473   3.694   0.311   8.280  1.1710  1.0227  1.6687
   47CHL1  H26C 3474   3.614   0.448   8.363 -0.4860 -1.7640  0.9541
   47CHL1   C27 3475   3.783   0.570   8.212  1.0246  0.0300  0.0416
   47CHL1  H27A 3476   3.818   0.644   8.137 -0.3927  1.9870  1.1965
   47CHL1  H27B 3477   3.753   0.636   8.296  0.3309  1.8865 -1.5858
   47CHL1  H27C 3478   3.857   0.498   8.252  1.3110  0.1184 -0.3267
   48CHL1    C3 3479   2.931   3.010   6.633 -0.1230 -0.0996 -0.2608
   48CHL1    H3 3480   3.037   2.992   6.662 -0.1751  2.9042  2.3193
   48CHL1    O3 3481   2.917   3.008   6.494 -0.6403 -0.2529  0.5259
   48CHL1   H3' 3482   2.922   3.100   6.469  0.3179 -0.3820  0.1864
   48CHL1    C4 3483   2.843   2.903   6.704  0.0156 -0.0368 -0.5286
   48CHL1   H4A 3484   2.737   2.924   6.677  0.5561  0.8634 -2.0895
   48CHL1   H4B 3485   2.872   2.802   6.667 -0.7010 -0.5232  0.1949
   48CHL1    C5 3486   2.858   2.910   6.855  0.1040 -0.2605  0.6011
   48CHL1    C6 3487   2.904   2.806   6.925 -0.5727  0.0708  0.4691
   48CHL1    H6 3488   2.933   2.715   6.870  1.0198  0.0766  1.2369
   48CHL1    C7 3489   2.926   2.803   7.075 -0.1561  0.1841  0.0032
   48CHL1   H7A 3490   2.877   2.713   7.118  0.6277 -0.3161 -0.1286
   48CHL1   H7B 3491   3.035   2.793   7.093  0.1608 -0.3138 -1.9961
   48CHL1    C8 3492   2.858   2.927   7.145 -0.0746  0.6331 -0.0725
   48CHL1    H8 3493   2.752   2.899   7.159 -0.1202  1.2252  0.8588
   48CHL1   C14 3494   2.925   2.940   7.286 -0.2837 -0.5186  1.2864
   48CHL1   H14 3495   3.034   2.961   7.272 -0.2427 -0.8635  1.0704
   48CHL1   C15 3496   2.907   2.826   7.378  0.4235 -0.1433 -0.5316
   48CHL1  H15A 3497   2.804   2.787   7.368  0.9970 -2.1429  0.7042
   48CHL1  H15B 3498   2.974   2.740   7.356  0.5559 -0.1691 -0.0329
   48CHL1   C16 3499   2.935   2.885   7.513 -0.1072 -0.2058 -0.5740
   48CHL1  H16A 3500   2.853   2.853   7.581 -0.6665  2.0773 -0.1077
   48CHL1  H16B 3501   3.035   2.845   7.543 -0.3748 -0.7737 -0.4230
   48CHL1   C17 3502   2.940   3.036   7.495  0.0850  0.4214  0.0242
   48CHL1   H17 3503   3.049   3.057   7.484 -0.1294  0.5182 -2.4609
   48CHL1   C13 3504   2.876   3.066   7.361  0.3033 -0.0573 -0.0449
   48CHL1   C18 3505   2.716   3.052   7.379 -0.4889  0.2982 -0.0259
   48CHL1  H18A 3506   2.696   2.962   7.441 -0.3127 -0.3105 -0.8270
   48CHL1  H18B 3507   2.687   3.147   7.429  2.7582  1.4543 -0.0532
   48CHL1  H18C 3508   2.675   3.043   7.276  3.1274  2.6465 -1.8777
   48CHL1   C12 3509   2.918   3.192   7.286  0.2299 -0.3435  0.0874
   48CHL1  H12A 3510   2.888   3.285   7.338 -1.1054 -0.1540 -0.9725
   48CHL1  H12B 3511   3.028   3.181   7.295  0.5677  2.0122 -0.7021
   48CHL1   C11 3512   2.872   3.189   7.141  0.0090  0.5026  0.5923
   48CHL1  H11A 3513   2.763   3.207   7.147 -0.3995 -1.2228 -0.8114
   48CHL1  H11B 3514   2.918   3.263   7.072  2.8114 -3.0782 -1.7758
   48CHL1    C9 3515   2.887   3.054   7.059 -0.3333 -0.2861 -0.5283
   48CHL1    H9 3516   2.997   3.056   7.048 -0.2374 -0.2203  0.3689
   48CHL1   C10 3517   2.833   3.044   6.920  0.3014  0.2366 -0.0926
   48CHL1   C19 3518   2.677   3.068   6.920 -0.7538 -0.1651 -0.2319
   48CHL1  H19A 3519   2.633   2.981   6.974  0.5791  0.4879  2.0302
   48CHL1  H19B 3520   2.656   3.162   6.975 -1.9627  0.4878 -1.7554
   48CHL1  H19C 3521   2.626   3.069   6.822 -0.8858 -1.2302 -0.1935
   48CHL1    C1 3522   2.907   3.154   6.834  0.1784 -0.1498 -0.9766
   48CHL1   H1A 3523   2.866   3.251   6.868  0.3982 -0.6050  0.7001
   48CHL1   H1B 3524   3.012   3.161   6.871 -0.0760  2.5739 -0.6074
   48CHL1    C2 3525   2.892   3.148   6.688 -0.3800 -0.3374 -1.0200
   48CHL1   H2A 3526   2.939   3.240   6.647 -1.3078  0.8917  0.5726
   48CHL1   H2B 3527   2.786   3.160   6.656 -0.5604  0.2632 -0.2069
   48CHL1   C20 3528   2.895   3.133   7.608  0.1884 -0.3213 -0.4527
   48CHL1   H20 3529   2.850   3.225   7.564  1.4959  0.7333  0.3499
   48CHL1   C21 3530   3.018   3.175   7.692  0.0883  0.0240 -0.3450
   48CHL1  H21A 3531   3.075   3.084   7.723 -3.1445 -1.5919  1.3422
   48CHL1  H21B 3532   2.987   3.232   7.781 -0.1934  0.9040 -0.9979
   48CHL1  H21C 3533   3.091   3.238   7.636  0.8619  0.4802  1.1350
   48CHL1   C22 3534   2.785   3.078   7.700 -0.7493 -1.0002 -0.6984
   48CHL1  H22A 3535   2.706   3.022   7.647 -1.6356  1.2846 -1.9478
   48CHL1  H22B 3536   2.832   3.001   7.764 -1.4941 -0.7325  0.1995
   48CHL1   C23 3537   2.706   3.183   7.773 -1.4004  0.0849  0.1145
   48CHL1  H23A 3538   2.773   3.249   7.832  0.9448  0.4375 -2.7364
   48CHL1  H23B 3539   2.667   3.256   7.699 -1.3100  0.0960  0.0777
   48CHL1   C24 3540   2.593   3.129   7.865  0.6301  0.3115  0.1361
   48CHL1  H24A 3541   2.568   3.199   7.949 -3.0658 -2.1873  1.3772
   48CHL1  H24B 3542   2.502   3.108   7.805  1.1562  1.1969 -1.0079
   48CHL1   C25 3543   2.614   2.999   7.939 -1.2621 -0.5093  0.4363
   48CHL1   H25 3544   2.636   2.923   7.861 -1.2801 -0.5772  0.4959
   48CHL1   C26 3545   2.739   2.993   8.029 -0.6807  0.2095 -0.3344
   48CHL1  H26A 3546   2.832   3.035   7.984 -0.8967  0.2079 -0.7796
   48CHL1  H26B 3547   2.718   3.060   8.116  1.5116  1.1770 -0.4636
   48CHL1  H26C 3548   2.742   2.885   8.056  1.0150  0.5065  0.8460
   48CHL1   C27 3549   2.486   2.954   8.008  0.0079  0.3405 -0.4472
   48CHL1  H27A 3550   2.419   2.943   7.920  1.5230  0.5177 -1.6814
   48CHL1  H27B 3551   2.500   2.865   8.072 -0.4215  0.7289  0.1904
   48CHL1  H27C 3552   2.438   3.027   8.077  4.3910  0.2341  3.1998
   49CHL1    C3 3553   0.034   3.572   6.759  0.2672  0.2439  0.4081
   49CHL1    H3 3554  -0.073   3.590   6.782 -0.0650 -0.7696 -0.2471
   49CHL1    O3 3555   0.052   3.564   6.617  0.7433  0.3112 -0.6465
   49CHL1   H3' 3556   0.005   3.487   6.585  1.7506  0.4918 -2.6809
   49CHL1    C4 3557   0.116   3.689   6.802 -0.5132 -0.3005 -0.1528
   49CHL1   H4A 3558   0.223   3.665   6.782 -0.0558  1.8601 -0.4837
   49CHL1   H4B 3559   0.081   3.777   6.745 -2.5274  0.9789  2.8080
   49CHL1    C5 3560   0.104   3.707   6.952  0.2635 -0.5227  0.5168
   49CHL1    C6 3561   0.050   3.815   7.009  0.7555  0.1238  0.8562
   49CHL1    H6 3562   0.020   3.899   6.944  3.0524  0.9444  0.7477
   49CHL1    C7 3563   0.045   3.841   7.157 -0.0666  0.4911  0.4203
   49CHL1   H7A 3564   0.095   3.938   7.179  0.6815  0.2387 -0.1223
   49CHL1   H7B 3565  -0.065   3.850   7.175 -0.1679  1.0176 -0.3695
   49CHL1    C8 3566   0.119   3.730   7.238  0.6302  0.0142 -0.4402
   49CHL1    H8 3567   0.227   3.749   7.220  0.9779  0.7830  2.0229
   49CHL1   C14 3568   0.091   3.743   7.391  0.0238 -0.5977  0.2213
   49CHL1   H14 3569  -0.020   3.733   7.394 -0.2095  0.7797 -1.7069
   49CHL1   C15 3570   0.124   3.872   7.469  0.1635 -0.6062  0.2176
   49CHL1  H15A 3571   0.233   3.893   7.458  0.7432 -0.6453  4.2926
   49CHL1  H15B 3572   0.059   3.955   7.434  0.5788 -0.3747 -0.0099
   49CHL1   C16 3573   0.098   3.830   7.616 -0.5093 -0.0440  0.5241
   49CHL1  H16A 3574   0.182   3.861   7.682 -0.1700 -0.0481  0.1021
   49CHL1  H16B 3575   0.007   3.881   7.655 -1.0809 -0.6366 -0.0223
   49CHL1   C17 3576   0.090   3.672   7.623  0.1028 -0.3371  0.7630
   49CHL1   H17 3577  -0.018   3.645   7.624 -0.1856  0.7690  1.1854
   49CHL1   C13 3578   0.153   3.630   7.486  0.1018  0.4522  0.5725
   49CHL1   C18 3579   0.309   3.628   7.493 -1.0314 -0.0526 -0.0497
   49CHL1  H18A 3580   0.341   3.717   7.552 -2.0560 -0.9292  1.9106
   49CHL1  H18B 3581   0.353   3.545   7.551  1.3884  2.2402  1.6498
   49CHL1  H18C 3582   0.357   3.621   7.393 -1.1888  0.1574 -0.1403
   49CHL1   C12 3583   0.096   3.497   7.427 -0.6682 -0.1593  0.3282
   49CHL1  H12A 3584   0.121   3.414   7.497 -1.7466 -0.9814 -0.2185
   49CHL1  H12B 3585  -0.015   3.497   7.428 -0.6950  1.7740  0.3208
   49CHL1   C11 3586   0.146   3.479   7.282  0.3656  0.3030  0.6018
   49CHL1  H11A 3587   0.256   3.487   7.271  0.3970 -0.7304 -0.0146
   49CHL1  H11B 3588   0.120   3.382   7.235  1.1324 -0.1836  1.1607
   49CHL1    C9 3589   0.095   3.592   7.186 -0.1126 -0.3631 -0.0063
   49CHL1    H9 3590  -0.016   3.591   7.180 -0.0423  0.5104 -3.3256
   49CHL1   C10 3591   0.138   3.589   7.037 -0.6828  0.1770 -0.6347
   49CHL1   C19 3592   0.298   3.575   7.021 -0.5060 -0.4449 -0.0897
   49CHL1  H19A 3593   0.344   3.495   7.082  0.2954 -0.2119 -0.3817
   49CHL1  H19B 3594   0.331   3.576   6.915  1.1513  0.6987  0.4095
   49CHL1  H19C 3595   0.334   3.669   7.068  0.6893 -1.6625  1.5380
   49CHL1    C1 3596   0.069   3.461   6.976 -0.3766 -0.2832  0.3344
   49CHL1   H1A 3597   0.117   3.365   7.007 -2.0467 -0.9921  0.8250
   49CHL1   H1B 3598  -0.038   3.461   7.007 -0.5577  0.4613 -0.2476
   49CHL1    C2 3599   0.082   3.445   6.826  0.0376  0.2302  0.2296
   49CHL1   H2A 3600   0.011   3.367   6.792  2.4811 -2.1129  0.1424
   49CHL1   H2B 3601   0.187   3.419   6.798 -0.1114 -0.1369  0.0181
   49CHL1   C20 3602   0.149   3.614   7.752 -0.4908 -0.2588 -0.3265
   49CHL1   H20 3603   0.256   3.641   7.772 -1.1435  1.1763  1.5765
   49CHL1   C21 3604   0.151   3.461   7.745  0.4544 -0.0582 -0.1555
   49CHL1  H21A 3605   0.181   3.418   7.842  1.0514 -2.1737 -1.2231
   49CHL1  H21B 3606   0.234   3.434   7.676  0.9797  2.0463 -0.4105
   49CHL1  H21C 3607   0.052   3.429   7.705  0.0032  0.1494  0.7694
   49CHL1   C22 3608   0.065   3.660   7.877 -0.0747 -0.0583  0.2613
   49CHL1  H22A 3609   0.048   3.769   7.884  2.4508  0.2921  2.0184
   49CHL1  H22B 3610  -0.038   3.620   7.866  0.0524 -0.5847  0.9259
   49CHL1   C23 3611   0.109   3.606   8.012  0.0652  0.2509 -0.6761
   49CHL1  H23A 3612   0.090   3.497   8.020 -0.1100  0.4073  1.6172
   49CHL1  H23B 3613   0.219   3.611   8.022  0.0918 -1.1220 -0.0171
   49CHL1   C24 3614   0.040   3.690   8.124 -0.5308  0.2420 -0.4730
   49CHL1  H24A 3615   0.033   3.796   8.089 -4.2925 -0.0184 -0.9750
   49CHL1  H24B 3616  -0.058   3.654   8.162  1.1057 -1.4854  2.5328
   49CHL1   C25 3617   0.124   3.688   8.254 -0.0323  0.2017  1.2427
   49CHL1   H25 3618   0.224   3.718   8.216  0.0988  0.0213  1.4397
   49CHL1   C26 3619   0.078   3.779   8.367  0.0321  0.4294 -0.3065
   49CHL1  H26A 3620   0.156   3.760   8.444 -0.1247 -1.3453 -0.5386
   49CHL1  H26B 3621   0.083   3.887   8.342 -0.4807 -0.0040 -2.5038
   49CHL1  H26C 3622  -0.024   3.741   8.388 -0.0138 -0.2972 -1.7380
   49CHL1   C27 3623   0.148   3.541   8.298  0.0487 -0.3244  0.5189
   49CHL1  H27A 3624   0.054   3.487   8.322 -0.2995 -0.6291 -1.4055
   49CHL1  H27B 3625   0.186   3.477   8.216 -2.6670  1.6162 -2.5271
   49CHL1  H27C 3626   0.206   3.540   8.393  1.2125 -0.2779 -0.1742
   50CHL1    C3 3627   1.671   4.373   6.842 -0.0962  0.4023 -0.2879
   50CHL1    H3 3628   1.670   4.263   6.859 -0.5691  0.6461  1.4322
   50CHL1    O3 3629   1.664   4.392   6.703 -0.2450 -0.5046  0.3238
   50CHL1   H3' 3630   1.595   4.337   6.664  0.3076 -0.8979 -0.1205
   50CHL1    C4 3631   1.537   4.427   6.895 -0.0047 -0.4179  0.3480
   50CHL1   H4A 3632   1.524   4.533   6.865  1.7597  0.5715  2.7144
   50CHL1   H4B 3633   1.459   4.371   6.840  0.5227  1.5014 -2.5731
   50CHL1    C5 3634   1.536   4.420   7.045  0.6858 -0.2125  0.5908
   50CHL1    C6 3635   1.438   4.350   7.100 -0.0319 -0.3970 -0.4025
   50CHL1    H6 3636   1.360   4.295   7.045 -0.7551  0.6286 -0.4268
   50CHL1    C7 3637   1.410   4.357   7.247  0.3275 -0.8909 -0.2696
   50CHL1   H7A 3638   1.300   4.359   7.261  0.1705  1.1043 -1.2889
   50CHL1   H7B 3639   1.441   4.262   7.294  0.9333 -1.4946 -1.8390
   50CHL1    C8 3640   1.485   4.475   7.317 -0.3625 -0.5073 -0.1144
   50CHL1    H8 3641   1.438   4.567   7.277  1.0828  0.0453 -0.6011
   50CHL1   C14 3642   1.469   4.473   7.466  0.5785  0.1473 -0.2389
   50CHL1   H14 3643   1.511   4.378   7.505 -0.6237 -1.0614 -1.7232
   50CHL1   C15 3644   1.328   4.460   7.529  1.1456  0.0743 -0.4905
   50CHL1  H15A 3645   1.265   4.533   7.476 -0.7688 -0.5382  0.8473
   50CHL1  H15B 3646   1.299   4.353   7.514  1.6629 -0.4693  1.9376
   50CHL1   C16 3647   1.351   4.498   7.679  0.0030 -0.7626  0.5173
   50CHL1  H16A 3648   1.282   4.579   7.712  0.9598  1.0313 -1.6690
   50CHL1  H16B 3649   1.322   4.409   7.738 -2.3858  0.4092  1.2542
   50CHL1   C17 3650   1.492   4.556   7.688  0.2783 -0.1605 -0.6677
   50CHL1   H17 3651   1.558   4.473   7.721 -0.2747 -0.5747 -0.6074
   50CHL1   C13 3652   1.542   4.582   7.542  0.4789 -0.1040  0.4660
   50CHL1   C18 3653   1.485   4.726   7.499  0.8004  0.2322  0.1323
   50CHL1  H18A 3654   1.533   4.806   7.559  0.1261  2.0235 -1.5911
   50CHL1  H18B 3655   1.500   4.746   7.391 -0.5746 -2.3529 -0.6127
   50CHL1  H18C 3656   1.379   4.730   7.531  0.6323 -1.5485 -0.1135
   50CHL1   C12 3657   1.692   4.564   7.508  0.2032  0.2833  0.4361
   50CHL1  H12A 3658   1.752   4.629   7.575 -2.5568  1.5102  1.8713
   50CHL1  H12B 3659   1.711   4.458   7.535  0.3020 -0.1185 -1.1004
   50CHL1   C11 3660   1.715   4.586   7.359 -1.1694  0.3606  0.3545
   50CHL1  H11A 3661   1.699   4.693   7.336  0.7960  0.6136 -0.0061
   50CHL1  H11B 3662   1.816   4.568   7.318 -1.2813  0.6053 -0.0280
   50CHL1    C9 3663   1.633   4.480   7.273 -0.1265  0.7299 -0.0030
   50CHL1    H9 3664   1.673   4.381   7.300  0.5066  0.6996 -0.9958
   50CHL1   C10 3665   1.641   4.500   7.118 -0.0365  0.2944 -0.2840
   50CHL1   C19 3666   1.627   4.651   7.088 -0.1443 -0.2236  0.3007
   50CHL1  H19A 3667   1.718   4.708   7.118  0.7652 -1.9070  0.8527
   50CHL1  H19B 3668   1.609   4.673   6.981 -0.4954  1.7489  0.7173
   50CHL1  H19C 3669   1.541   4.693   7.144 -0.6088 -0.0860 -0.5023
   50CHL1    C1 3670   1.783   4.453   7.062  0.5556  0.8705 -0.7575
   50CHL1   H1A 3671   1.871   4.506   7.105  0.0603 -0.0435  1.5181
   50CHL1   H1B 3672   1.791   4.345   7.086 -2.5008  0.8742  0.8849
   50CHL1    C2 3673   1.789   4.448   6.906 -0.0919  0.6203  0.0070
   50CHL1   H2A 3674   1.880   4.403   6.863  0.0451 -0.0890  1.0085
   50CHL1   H2B 3675   1.796   4.551   6.864  0.3764  0.1704 -1.0510
   50CHL1   C20 3676   1.506   4.664   7.804  0.4296  0.2963  0.4285
   50CHL1   H20 3677   1.445   4.754   7.784  0.1138 -0.0389 -0.1555
   50CHL1   C21 3678   1.649   4.714   7.825  0.0726 -0.3075  0.3892
   50CHL1  H21A 3679   1.673   4.754   7.926  2.8434 -1.0667  0.1023
   50CHL1  H21B 3680   1.664   4.794   7.749 -1.6510  0.2273  0.5518
   50CHL1  H21C 3681   1.728   4.637   7.821  0.1735 -0.1512 -1.1541
   50CHL1   C22 3682   1.453   4.613   7.940  0.2676  0.4439 -0.1692
   50CHL1  H22A 3683   1.358   4.557   7.927  0.5285  0.0955 -0.6159
   50CHL1  H22B 3684   1.530   4.545   7.983 -0.4805 -0.3225  0.0026
   50CHL1   C23 3685   1.411   4.725   8.039  0.4934 -0.2480 -0.1344
   50CHL1  H23A 3686   1.499   4.792   8.051 -0.7353  1.1206  1.8913
   50CHL1  H23B 3687   1.331   4.790   7.996 -0.2315 -1.8805 -1.3684
   50CHL1   C24 3688   1.368   4.660   8.169  0.0953 -0.6398 -0.3123
   50CHL1  H24A 3689   1.275   4.604   8.148 -0.3212 -0.6634  1.4517
   50CHL1  H24B 3690   1.443   4.581   8.194 -0.0817 -0.9930 -0.8814
   50CHL1   C25 3691   1.351   4.756   8.284 -0.7144 -0.1096  0.0130
   50CHL1   H25 3692   1.292   4.846   8.255  1.0836  0.7891 -1.0157
   50CHL1   C26 3693   1.288   4.683   8.401 -0.4008 -0.6266 -0.1781
   50CHL1  H26A 3694   1.201   4.627   8.360 -0.8775  0.5325 -0.7762
   50CHL1  H26B 3695   1.356   4.609   8.449  0.0153  0.5374  1.0827
   50CHL1  H26C 3696   1.251   4.747   8.484 -0.2026 -0.7880  0.0392
   50CHL1   C27 3697   1.484   4.830   8.326 -0.5536 -0.0699 -0.2471
   50CHL1  H27A 3698   1.518   4.895   8.242 -0.3349  0.3466  0.1624
   50CHL1  H27B 3699   1.473   4.885   8.422 -2.7046 -1.7448  0.5666
   50CHL1  H27C 3700   1.563   4.756   8.349 -1.6250 -0.5879  1.9995
   51CHL1    C3 3701   0.977   3.472   7.059 -0.0195 -0.0236  0.1401
   51CHL1    H3 3702   0.870   3.448   7.080  0.1414  1.3806  3.1321
   51CHL1    O3 3703   0.995   3.494   6.920 -0.0773 -0.3823  0.2744
   51CHL1   H3' 3704   1.083   3.465   6.894 -0.0297 -0.0735  0.0898
   51CHL1    C4 3705   1.019   3.593   7.140 -0.1530 -0.2453  0.6683
   51CHL1   H4A 3706   1.124   3.618   7.111  0.2791 -2.0293  0.5547
   51CHL1   H4B 3707   0.960   3.681   7.108  1.6734  0.3914 -1.2099
   51CHL1    C5 3708   0.991   3.572   7.287 -0.0802 -0.3133 -0.0523
   51CHL1    C6 3709   0.902   3.645   7.351 -0.5239 -0.4757 -0.0868
   51CHL1    H6 3710   0.844   3.729   7.308  0.7515 -0.5929 -2.2089
   51CHL1    C7 3711   0.868   3.625   7.491  0.6071  0.3561 -0.0060
   51CHL1   H7A 3712   0.865   3.720   7.547  0.9550 -0.0122  0.6566
   51CHL1   H7B 3713   0.767   3.581   7.496  0.0292  1.5156 -1.0471
   51CHL1    C8 3714   0.978   3.534   7.566  0.4710  0.6202 -0.5671
   51CHL1    H8 3715   1.071   3.593   7.582  0.0886  1.4965 -1.4133
   51CHL1   C14 3716   0.935   3.498   7.703  0.3430 -0.2054 -0.0377
   51CHL1   H14 3717   0.841   3.439   7.693  0.5327 -0.7327  1.1708
   51CHL1   C15 3718   0.888   3.609   7.794 -0.6938  0.4261  0.7033
   51CHL1  H15A 3719   0.951   3.700   7.781 -0.9053  0.4522 -0.2029
   51CHL1  H15B 3720   0.785   3.638   7.765 -1.1546 -0.8805  0.9753
   51CHL1   C16 3721   0.892   3.557   7.936 -0.2628  0.1498  0.6147
   51CHL1  H16A 3722   0.960   3.621   7.996 -1.5494  1.8762  0.2816
   51CHL1  H16B 3723   0.794   3.551   7.988 -0.9797 -1.6311 -0.8279
   51CHL1   C17 3724   0.961   3.418   7.924 -0.2387 -0.3997  0.1923
   51CHL1   H17 3725   0.878   3.346   7.909 -1.2659  1.0944 -1.8396
   51CHL1   C13 3726   1.031   3.418   7.781  0.2715  0.3696 -0.1971
   51CHL1   C18 3727   1.168   3.488   7.796 -0.1272 -0.2526  0.1365
   51CHL1  H18A 3728   1.204   3.495   7.691 -3.7585 -2.8244 -1.4862
   51CHL1  H18B 3729   1.168   3.586   7.849  0.7404  0.4263 -1.0587
   51CHL1  H18C 3730   1.239   3.430   7.859  3.3421  2.6657 -0.7479
   51CHL1   C12 3731   1.045   3.280   7.709  0.5983 -0.2925 -0.0955
   51CHL1  H12A 3732   1.122   3.221   7.764  0.3756  0.6031  1.2383
   51CHL1  H12B 3733   0.946   3.230   7.710 -0.6690  1.9427 -2.4516
   51CHL1   C11 3734   1.097   3.300   7.564  0.3222 -0.5615 -0.3702
   51CHL1  H11A 3735   1.204   3.326   7.578 -0.2389  1.0871  1.1909
   51CHL1  H11B 3736   1.086   3.208   7.503 -0.0144 -0.3876 -0.5798
   51CHL1    C9 3737   1.014   3.412   7.483 -0.1261 -0.2362 -0.1844
   51CHL1    H9 3738   0.916   3.365   7.462  0.0984 -0.0531 -1.7287
   51CHL1   C10 3739   1.064   3.449   7.344  0.4510  0.5733  0.2364
   51CHL1   C19 3740   1.216   3.477   7.341 -0.7290  0.0390 -0.4423
   51CHL1  H19A 3741   1.279   3.390   7.367  0.0222  0.8210  0.3819
   51CHL1  H19B 3742   1.246   3.486   7.234  0.2638 -1.2162 -0.2935
   51CHL1  H19C 3743   1.248   3.563   7.403  0.4993  0.3680 -1.4960
   51CHL1    C1 3744   1.041   3.327   7.250 -0.5225  0.3022 -0.6029
   51CHL1   H1A 3745   1.105   3.245   7.290 -0.0946  1.3754  0.9939
   51CHL1   H1B 3746   0.936   3.293   7.259 -0.0746 -1.7985 -2.4580
   51CHL1    C2 3747   1.071   3.352   7.098  0.5948  0.4528  0.2097
   51CHL1   H2A 3748   1.040   3.258   7.047  2.1427  0.4006 -0.7158
   51CHL1   H2B 3749   1.179   3.368   7.076  0.4761 -1.1801 -1.8238
   51CHL1   C20 3750   1.029   3.365   8.053 -0.6844 -0.1772  0.4613
   51CHL1   H20 3751   1.131   3.407   8.062 -0.1318 -0.8275 -2.0859
   51CHL1   C21 3752   1.046   3.210   8.040  0.1727 -0.4198 -0.2279
   51CHL1  H21A 3753   1.078   3.160   8.134 -0.8281 -0.9240 -0.1401
   51CHL1  H21B 3754   1.096   3.160   7.955  0.7476  0.7380 -0.5885
   51CHL1  H21C 3755   0.940   3.177   8.029  0.5218 -2.3959  1.6581
   51CHL1   C22 3756   0.960   3.408   8.190  0.3982  0.0495  0.4741
   51CHL1  H22A 3757   0.960   3.519   8.190  1.4325  0.0812 -0.9537
   51CHL1  H22B 3758   0.854   3.376   8.189  0.3445  0.2307  0.0901
   51CHL1   C23 3759   1.038   3.362   8.314  0.2007 -0.5636  0.3268
   51CHL1  H23A 3760   1.046   3.251   8.309  0.1965 -0.5919  0.8824
   51CHL1  H23B 3761   1.139   3.407   8.304  0.2281 -0.3879  1.3223
   51CHL1   C24 3762   0.962   3.405   8.443  0.2244  0.2166  0.6608
   51CHL1  H24A 3763   0.974   3.514   8.454  0.1915  0.1083  1.8955
   51CHL1  H24B 3764   0.854   3.383   8.445  0.1152  0.7720  2.6467
   51CHL1   C25 3765   1.021   3.335   8.565 -0.1061 -0.2750 -0.7355
   51CHL1   H25 3766   1.131   3.347   8.569 -0.2716  2.9757 -2.5750
   51CHL1   C26 3767   0.972   3.410   8.693 -0.3128 -0.1152 -0.1068
   51CHL1  H26A 3768   0.993   3.354   8.786  1.7721 -1.2948 -1.2035
   51CHL1  H26B 3769   1.033   3.502   8.694 -0.8418  0.2748 -1.2419
   51CHL1  H26C 3770   0.871   3.454   8.679  0.4688  0.9394 -3.4655
   51CHL1   C27 3771   0.984   3.190   8.578  0.4110 -0.4593 -0.1711
   51CHL1  H27A 3772   1.021   3.143   8.671 -0.1572 -0.7701 -0.1036
   51CHL1  H27B 3773   0.874   3.180   8.571  0.1495  1.2423  0.8781
   51CHL1  H27C 3774   1.031   3.135   8.494  0.0546  0.2885 -0.8792
   52CHL1    C3 3775   2.729   3.885   6.954  0.1445  0.6968  0.3016
   52CHL1    H3 3776   2.772   3.786   6.982 -0.0208  0.0660 -1.5032
   52CHL1    O3 3777   2.731   3.883   6.812 -0.1244 -0.1230 -0.3579
   52CHL1   H3' 3778   2.710   3.973   6.785 -0.6632 -0.2694 -0.4281
   52CHL1    C4 3779   2.589   3.895   7.011 -0.3138  0.4249  0.2559
   52CHL1   H4A 3780   2.546   3.988   6.967  0.7028  0.9625  0.3658
   52CHL1   H4B 3781   2.524   3.814   6.973 -1.1618  2.0140 -1.9381
   52CHL1    C5 3782   2.589   3.900   7.159  0.3381  0.3533  0.4949
   52CHL1    C6 3783   2.518   3.819   7.237  0.2445  0.0690 -0.4411
   52CHL1    H6 3784   2.450   3.742   7.198 -0.7509  1.1829 -0.9498
   52CHL1    C7 3785   2.535   3.819   7.385  0.3823 -0.0034 -0.1959
   52CHL1   H7A 3786   2.450   3.779   7.443  0.8685  1.2756  1.4831
   52CHL1   H7B 3787   2.611   3.741   7.409  0.0895  0.3199  1.9753
   52CHL1    C8 3788   2.573   3.954   7.442 -1.2435 -0.6591  0.1524
   52CHL1    H8 3789   2.499   4.032   7.415  1.2357  1.0113 -2.4953
   52CHL1   C14 3790   2.599   3.939   7.589  0.5526  0.3238  0.0291
   52CHL1   H14 3791   2.673   3.859   7.610 -0.2103 -0.1100  1.2121
   52CHL1   C15 3792   2.483   3.885   7.677 -0.0405  0.5277 -0.0130
   52CHL1  H15A 3793   2.388   3.918   7.629 -1.0090 -3.4489 -1.3009
   52CHL1  H15B 3794   2.482   3.774   7.665 -1.2687  0.5556 -0.3479
   52CHL1   C16 3795   2.517   3.930   7.817 -0.9338 -0.2298 -0.2535
   52CHL1  H16A 3796   2.441   4.004   7.850 -0.9125  0.7174 -2.1962
   52CHL1  H16B 3797   2.519   3.839   7.881 -0.2285  0.3262  0.5474
   52CHL1   C17 3798   2.648   4.007   7.813 -0.5056  0.6745 -0.1227
   52CHL1   H17 3799   2.727   3.931   7.831 -1.7317 -0.4738  0.5995
   52CHL1   C13 3800   2.657   4.059   7.672 -0.2063 -0.6877  0.7093
   52CHL1   C18 3801   2.559   4.182   7.661  0.6078  0.3654  0.0324
   52CHL1  H18A 3802   2.594   4.272   7.715  1.5395  0.9760 -1.4987
   52CHL1  H18B 3803   2.541   4.226   7.560 -1.3935  2.4973  1.2110
   52CHL1  H18C 3804   2.460   4.151   7.698  0.3765 -0.8815 -1.5047
   52CHL1   C12 3805   2.788   4.090   7.597 -0.1446 -0.2818  0.8380
   52CHL1  H12A 3806   2.832   4.182   7.642  0.5735 -1.4807  2.7315
   52CHL1  H12B 3807   2.857   4.007   7.621  2.9892  2.1863  1.1216
   52CHL1   C11 3808   2.782   4.108   7.445  0.4438 -0.0826  0.6676
   52CHL1  H11A 3809   2.728   4.204   7.429  1.6957  0.4729 -0.4329
   52CHL1  H11B 3810   2.886   4.116   7.407  0.1133  2.3731  0.1243
   52CHL1    C9 3811   2.707   3.993   7.376  0.1511 -0.0011 -0.1822
   52CHL1    H9 3812   2.779   3.911   7.399  1.2835  0.8426 -0.6022
   52CHL1   C10 3813   2.691   4.003   7.215  0.2575  0.2149 -0.5135
   52CHL1   C19 3814   2.610   4.133   7.179  0.0588 -0.1857 -0.6398
   52CHL1  H19A 3815   2.618   4.150   7.069  1.1063  0.0551 -0.5379
   52CHL1  H19B 3816   2.505   4.144   7.214  0.0867  2.7954 -1.2166
   52CHL1  H19C 3817   2.656   4.225   7.220  2.5866 -1.7064  0.1842
   52CHL1    C1 3818   2.831   4.006   7.147  0.0311 -0.6271 -0.5200
   52CHL1   H1A 3819   2.885   4.092   7.192 -0.6799 -0.3393 -0.2055
   52CHL1   H1B 3820   2.894   3.918   7.175  0.7451  0.2161  0.6120
   52CHL1    C2 3821   2.828   3.994   6.994 -0.5005  0.3769  0.1854
   52CHL1   H2A 3822   2.929   3.989   6.947 -0.0116  1.5691  1.0552
   52CHL1   H2B 3823   2.800   4.099   6.976 -1.5509 -0.0932 -1.0323
   52CHL1   C20 3824   2.660   4.102   7.935  0.2923 -0.5008  0.5507
   52CHL1   H20 3825   2.595   4.192   7.925  0.9509 -0.2085 -1.6604
   52CHL1   C21 3826   2.801   4.163   7.939 -0.3269 -0.5382  0.3853
   52CHL1  H21A 3827   2.883   4.094   7.910  1.2859  1.0959  0.8496
   52CHL1  H21B 3828   2.836   4.206   8.036  0.3172  3.0354 -1.2515
   52CHL1  H21C 3829   2.796   4.252   7.872 -0.8898 -1.1288 -0.3656
   52CHL1   C22 3830   2.632   4.037   8.073 -0.2850 -0.0493 -0.0094
   52CHL1  H22A 3831   2.539   3.975   8.073 -0.4147  0.0506 -2.1336
   52CHL1  H22B 3832   2.718   3.973   8.099 -0.6947  0.0165  1.6269
   52CHL1   C23 3833   2.623   4.145   8.187  0.2718  0.7318  0.1519
   52CHL1  H23A 3834   2.718   4.199   8.204  0.6650  1.2742 -3.1750
   52CHL1  H23B 3835   2.537   4.214   8.171 -1.2679 -0.8537  1.1998
   52CHL1   C24 3836   2.590   4.071   8.313  0.2921 -0.5034 -0.1922
   52CHL1  H24A 3837   2.489   4.030   8.288 -0.2862  1.4999 -1.3728
   52CHL1  H24B 3838   2.661   3.987   8.326  0.5176 -0.0540  1.8150
   52CHL1   C25 3839   2.606   4.155   8.440 -1.0230 -0.0023  0.4107
   52CHL1   H25 3840   2.550   4.102   8.520 -1.3167  0.1360  0.2967
   52CHL1   C26 3841   2.754   4.158   8.488 -0.5197 -0.2776 -0.4640
   52CHL1  H26A 3842   2.768   4.216   8.581  0.9695  2.2858 -2.1812
   52CHL1  H26B 3843   2.792   4.053   8.489  0.0166 -0.1929 -3.3992
   52CHL1  H26C 3844   2.815   4.216   8.416  0.2266 -0.8930 -0.3400
   52CHL1   C27 3845   2.543   4.298   8.439 -0.0629  0.4365 -0.2533
   52CHL1  H27A 3846   2.445   4.290   8.386  0.7406  0.5373 -1.8138
   52CHL1  H27B 3847   2.527   4.338   8.541  1.0659  4.3608 -1.4098
   52CHL1  H27C 3848   2.619   4.361   8.388  1.7702  0.6344  2.5302
   53CHL1    C3 3849   6.317   0.774   7.019 -0.0419 -0.3237 -0.6586
   53CHL1    H3 3850   6.427   0.770   7.004  0.1303  1.9045 -0.3362
   53CHL1    O3 3851   6.248   0.779   6.900 -0.3787 -0.5641 -0.3694
   53CHL1   H3' 3852   6.216   0.693   6.872 -1.5912 -0.6235  1.0980
   53CHL1    C4 3853   6.282   0.636   7.093  0.0898  0.0613 -0.3349
   53CHL1   H4A 3854   6.174   0.626   7.070 -0.1637 -1.6842  1.3564
   53CHL1   H4B 3855   6.324   0.548   7.039 -0.3600 -1.8670  2.2688
   53CHL1    C5 3856   6.318   0.625   7.240 -0.2043  0.1504  0.5599
   53CHL1    C6 3857   6.390   0.517   7.289 -0.0005 -0.6427  0.7030
   53CHL1    H6 3858   6.417   0.435   7.221  1.0697 -0.1251  0.4746
   53CHL1    C7 3859   6.429   0.507   7.433 -0.5230  0.4294 -0.0828
   53CHL1   H7A 3860   6.406   0.407   7.474 -0.3848  0.2074 -0.5422
   53CHL1   H7B 3861   6.538   0.525   7.446 -0.9955  2.0393  2.1973
   53CHL1    C8 3862   6.344   0.601   7.523  0.0115 -0.1832  0.4705
   53CHL1    H8 3863   6.236   0.576   7.522  0.6596 -3.5812 -0.1928
   53CHL1   C14 3864   6.395   0.587   7.665  0.4872  0.6694 -0.3411
   53CHL1   H14 3865   6.498   0.626   7.650 -0.4288  2.4621 -2.8051
   53CHL1   C15 3866   6.396   0.447   7.724  0.0416 -0.7488 -0.1568
   53CHL1  H15A 3867   6.303   0.391   7.701 -0.0663 -1.1938  1.3055
   53CHL1  H15B 3868   6.484   0.387   7.692  0.5444  0.2387 -0.7122
   53CHL1   C16 3869   6.424   0.470   7.871 -0.5474 -0.3742 -0.3168
   53CHL1  H16A 3870   6.343   0.424   7.933  0.8823  2.4043  4.0760
   53CHL1  H16B 3871   6.519   0.431   7.914 -1.2345 -0.8755  0.8061
   53CHL1   C17 3872   6.412   0.622   7.888  0.2708 -0.2991 -0.2578
   53CHL1   H17 3873   6.515   0.665   7.880 -0.3463  1.1757 -0.6350
   53CHL1   C13 3874   6.336   0.683   7.764  0.4253  0.8652 -0.1767
   53CHL1   C18 3875   6.189   0.662   7.787 -0.8355  0.4857 -0.0036
   53CHL1  H18A 3876   6.154   0.567   7.834 -1.4952  1.0475  0.6690
   53CHL1  H18B 3877   6.164   0.746   7.855  2.8888  0.3813  1.7891
   53CHL1  H18C 3878   6.129   0.683   7.696  0.2000  1.6696 -0.4522
   53CHL1   C12 3879   6.367   0.824   7.721 -0.6640 -0.4062 -0.2596
   53CHL1  H12A 3880   6.327   0.900   7.791  1.1932  1.4457 -1.1156
   53CHL1  H12B 3881   6.475   0.849   7.719 -0.7160  0.0504  1.2287
   53CHL1   C11 3882   6.308   0.857   7.579 -0.1266 -0.1092 -0.7214
   53CHL1  H11A 3883   6.197   0.855   7.593 -0.2142 -0.3696 -1.4284
   53CHL1  H11B 3884   6.347   0.958   7.552 -1.3216  0.7656  0.6363
   53CHL1    C9 3885   6.347   0.748   7.472  0.5569 -0.3181  0.3956
   53CHL1    H9 3886   6.456   0.763   7.460  0.8340 -0.7079  2.2295
   53CHL1   C10 3887   6.282   0.754   7.326  0.4280 -0.2644 -0.3870
   53CHL1   C19 3888   6.132   0.754   7.328 -0.3661 -0.0468  0.5459
   53CHL1  H19A 3889   6.099   0.668   7.390  1.4671 -0.5620  0.8590
   53CHL1  H19B 3890   6.088   0.846   7.373 -1.8811 -1.1139  1.3240
   53CHL1  H19C 3891   6.090   0.740   7.226 -0.0804 -0.9039  0.5415
   53CHL1    C1 3892   6.335   0.881   7.249  0.1351 -0.6724 -0.0582
   53CHL1   H1A 3893   6.321   0.970   7.314 -2.1461 -0.0786 -1.2678
   53CHL1   H1B 3894   6.446   0.876   7.239  0.0444 -1.3013 -0.8383
   53CHL1    C2 3895   6.290   0.898   7.103  0.1688 -0.0898 -1.0177
   53CHL1   H2A 3896   6.321   0.986   7.043  1.2304 -0.9127 -1.6933
   53CHL1   H2B 3897   6.180   0.909   7.121 -0.0527 -3.4323  0.3526
   53CHL1   C20 3898   6.356   0.662   8.030  0.7097 -0.5923 -0.2693
   53CHL1   H20 3899   6.250   0.628   8.030 -0.1787  1.9427 -0.0992
   53CHL1   C21 3900   6.370   0.814   8.047  0.2979  0.0117 -0.0448
   53CHL1  H21A 3901   6.301   0.880   7.988  0.5204  1.2247  0.9952
   53CHL1  H21B 3902   6.472   0.852   8.029  0.8283 -0.3417  1.9716
   53CHL1  H21C 3903   6.338   0.841   8.150 -0.9185 -1.0188 -0.1248
   53CHL1   C22 3904   6.424   0.595   8.151 -0.2328 -0.1292 -0.0409
   53CHL1  H22A 3905   6.463   0.497   8.116 -0.3904 -0.0855 -0.3494
   53CHL1  H22B 3906   6.510   0.660   8.176 -0.4563 -0.2380  1.0389
   53CHL1   C23 3907   6.328   0.567   8.273  0.0583  0.3203  0.2010
   53CHL1  H23A 3908   6.301   0.660   8.328 -0.2091 -0.4492  1.4097
   53CHL1  H23B 3909   6.236   0.538   8.218 -0.8025 -0.1241  1.8185
   53CHL1   C24 3910   6.390   0.464   8.363  0.0206  0.2423  0.2551
   53CHL1  H24A 3911   6.408   0.372   8.304  1.0875 -1.0715  2.5067
   53CHL1  H24B 3912   6.490   0.491   8.403 -0.4137  0.5673  1.1670
   53CHL1   C25 3913   6.293   0.408   8.467 -0.5886 -0.6906  0.3919
   53CHL1   H25 3914   6.211   0.357   8.412 -1.7302 -1.4832  2.7061
   53CHL1   C26 3915   6.374   0.310   8.558  0.5912 -0.6289  0.4442
   53CHL1  H26A 3916   6.315   0.260   8.638 -0.5600  0.6239  0.4148
   53CHL1  H26B 3917   6.433   0.230   8.508 -1.0457 -2.4298  1.2451
   53CHL1  H26C 3918   6.452   0.369   8.612  1.0207  0.2737 -1.1064
   53CHL1   C27 3919   6.238   0.522   8.556 -0.6615  0.0866  0.0387
   53CHL1  H27A 3920   6.322   0.577   8.605  0.4439  0.6852 -2.3770
   53CHL1  H27B 3921   6.187   0.605   8.502  0.6593  0.4554 -0.6829
   53CHL1  H27C 3922   6.176   0.485   8.641 -0.7699 -2.0629 -0.9177
   54CHL1    C3 3923   6.475   3.085   6.926 -0.2816  0.2433 -0.1628
   54CHL1    H3 3924   6.475   2.978   6.956 -1.2669 -0.2638 -1.8616
   54CHL1    O3 3925   6.470   3.086   6.784 -0.1794 -0.3939  0.1254
   54CHL1   H3' 3926   6.437   3.172   6.759  1.0953 -0.0879 -0.5746
   54CHL1    C4 3927   6.353   3.158   6.981 -0.7000  0.1177  0.0765
   54CHL1   H4A 3928   6.362   3.263   6.946  0.1892  0.5056  1.4029
   54CHL1   H4B 3929   6.268   3.115   6.924  0.6099 -0.6121 -1.4148
   54CHL1    C5 3930   6.355   3.146   7.130  0.1106  0.1123  0.1456
   54CHL1    C6 3931   6.259   3.081   7.197  0.2043  0.4922 -0.0600
   54CHL1    H6 3932   6.176   3.040   7.138 -1.5780  2.1119  1.1884
   54CHL1    C7 3933   6.251   3.075   7.347  0.3490  0.6804 -0.7329
   54CHL1   H7A 3934   6.145   3.100   7.370  0.7086  0.4407  1.3236
   54CHL1   H7B 3935   6.269   2.970   7.378 -0.7942 -0.0452 -2.3509
   54CHL1    C8 3936   6.345   3.182   7.421 -0.2231  0.1404  1.0070
   54CHL1    H8 3937   6.299   3.281   7.398  1.3583  0.4785 -0.9412
   54CHL1   C14 3938   6.359   3.159   7.567 -0.3007  0.1398 -0.3305
   54CHL1   H14 3939   6.408   3.059   7.571  2.6288  1.5128  1.7920
   54CHL1   C15 3940   6.230   3.135   7.658 -0.4342 -0.2291 -0.1850
   54CHL1  H15A 3941   6.155   3.217   7.658  1.8276  2.0272  1.8623
   54CHL1  H15B 3942   6.180   3.039   7.632 -0.6973  0.4583 -2.5213
   54CHL1   C16 3943   6.286   3.137   7.799 -0.1617  0.2941 -0.2921
   54CHL1  H16A 3944   6.228   3.210   7.858  0.4263  0.6167 -0.1019
   54CHL1  H16B 3945   6.286   3.033   7.840  0.7976  0.2188 -0.4492
   54CHL1   C17 3946   6.435   3.186   7.790  0.2598 -0.1042  0.5822
   54CHL1   H17 3947   6.494   3.095   7.812  2.0586  0.9541  0.3303
   54CHL1   C13 3948   6.463   3.246   7.649  0.5075  0.4191  0.0587
   54CHL1   C18 3949   6.411   3.393   7.641 -0.0972  0.2157  0.4076
   54CHL1  H18A 3950   6.400   3.427   7.536  2.2727  1.3601  0.4617
   54CHL1  H18B 3951   6.319   3.408   7.702  0.8986 -0.7996  2.2681
   54CHL1  H18C 3952   6.487   3.461   7.685 -0.1867 -0.4765  1.6758
   54CHL1   C12 3953   6.596   3.223   7.582  0.3466  0.1836 -0.6049
   54CHL1  H12A 3954   6.682   3.282   7.620  1.1906  0.0937 -2.2985
   54CHL1  H12B 3955   6.625   3.117   7.596  0.4475  0.1224 -1.2398
   54CHL1   C11 3956   6.590   3.255   7.432 -0.7091 -0.1304 -0.1495
   54CHL1  H11A 3957   6.561   3.362   7.434 -1.9348 -0.4271 -0.7494
   54CHL1  H11B 3958   6.696   3.256   7.400 -0.8765 -0.0802 -0.7144
   54CHL1    C9 3959   6.485   3.179   7.353  0.0794  0.2275  0.2888
   54CHL1    H9 3960   6.509   3.072   7.366 -2.8426 -0.5213  0.1930
   54CHL1   C10 3961   6.476   3.214   7.201  0.4187  0.0664  1.0621
   54CHL1   C19 3962   6.470   3.367   7.189 -0.3810  1.1928 -0.2777
   54CHL1  H19A 3963   6.568   3.403   7.226 -0.2841 -0.0279  0.6995
   54CHL1  H19B 3964   6.459   3.393   7.082 -0.4889 -0.7894 -0.7721
   54CHL1  H19C 3965   6.386   3.399   7.255  0.0953  0.1754  0.8522
   54CHL1    C1 3966   6.608   3.158   7.127 -0.9796 -0.3934 -0.7632
   54CHL1   H1A 3967   6.686   3.229   7.163 -0.4003 -0.5569 -1.6521
   54CHL1   H1B 3968   6.629   3.061   7.176  0.2011  0.7782  1.2221
   54CHL1    C2 3969   6.609   3.149   6.976  0.1886  0.3885  0.1675
   54CHL1   H2A 3970   6.691   3.083   6.941 -0.8447 -0.0409 -1.5446
   54CHL1   H2B 3971   6.617   3.253   6.936  0.3057 -0.4151 -2.0151
   54CHL1   C20 3972   6.475   3.278   7.912 -0.1420 -0.0534  0.3803
   54CHL1   H20 3973   6.412   3.368   7.898 -0.5068 -0.1036  1.5438
   54CHL1   C21 3974   6.624   3.309   7.909  0.1342  0.2897  0.3194
   54CHL1  H21A 3975   6.649   3.380   7.827 -2.8394  1.1791  0.0934
   54CHL1  H21B 3976   6.684   3.216   7.919 -0.9936 -0.3747  1.1816
   54CHL1  H21C 3977   6.659   3.361   8.002 -0.2731  1.1883 -0.0157
   54CHL1   C22 3978   6.439   3.212   8.056 -0.5563 -0.4733 -0.4523
   54CHL1  H22A 3979   6.331   3.189   8.069 -0.7158  0.5374  0.1048
   54CHL1  H22B 3980   6.487   3.112   8.053 -1.1981 -0.7615 -3.0079
   54CHL1   C23 3981   6.465   3.296   8.183  0.0209 -0.8046  0.6575
   54CHL1  H23A 3982   6.432   3.238   8.271  2.8018 -2.0359  1.0126
   54CHL1  H23B 3983   6.574   3.314   8.194  0.0534  0.3094 -1.0590
   54CHL1   C24 3984   6.389   3.431   8.204  1.1923  0.1860  0.0477
   54CHL1  H24A 3985   6.444   3.497   8.133 -1.8645  0.0065 -2.7810
   54CHL1  H24B 3986   6.284   3.413   8.170  1.4344  0.4896 -0.8955
   54CHL1   C25 3987   6.387   3.466   8.354 -1.1024 -0.1003 -0.7296
   54CHL1   H25 3988   6.365   3.375   8.413 -0.4571 -0.6353 -1.2941
   54CHL1   C26 3989   6.532   3.524   8.398  0.3831 -0.2081  0.6037
   54CHL1  H26A 3990   6.527   3.560   8.504 -3.1126  0.2227  0.4229
   54CHL1  H26B 3991   6.612   3.448   8.391  0.0984 -0.5533  1.0591
   54CHL1  H26C 3992   6.559   3.603   8.324 -1.1230  0.6777  0.9555
   54CHL1   C27 3993   6.289   3.573   8.395  0.4636  0.2558 -0.5335
   54CHL1  H27A 3994   6.272   3.581   8.505 -4.1323 -1.4160 -0.9071
   54CHL1  H27B 3995   6.317   3.675   8.361  0.5681  0.3305 -0.2343
   54CHL1  H27C 3996   6.192   3.552   8.344 -1.1693  0.3520  2.2891
   55CHL1    C3 3997   5.569   3.703   7.094  0.4249  0.2289  0.3061
   55CHL1    H3 3998   5.563   3.812   7.115 -0.6150  0.4479 -0.9690
   55CHL1    O3 3999   5.633   3.687   6.963  0.6468  0.0057  0.3175
   55CHL1   H3' 4000   5.705   3.751   6.971  1.3430 -0.6100 -0.8831
   55CHL1    C4 4001   5.665   3.625   7.196  0.1867  0.2318  0.1977
   55CHL1   H4A 4002   5.672   3.517   7.172  1.2944  0.1266  0.9125
   55CHL1   H4B 4003   5.770   3.663   7.197  0.1532  0.4008  1.9845
   55CHL1    C5 4004   5.610   3.639   7.336  0.2597 -0.1105  0.8027
   55CHL1    C6 4005   5.678   3.704   7.432 -0.2572  0.3061 -0.0433
   55CHL1    H6 4006   5.778   3.744   7.410 -0.2840 -0.3939 -1.5483
   55CHL1    C7 4007   5.629   3.704   7.575  0.5172 -0.1271  0.9308
   55CHL1   H7A 4008   5.714   3.667   7.636  3.0280  2.2303 -0.8911
   55CHL1   H7B 4009   5.596   3.807   7.599  1.7026  0.4050  0.3784
   55CHL1    C8 4010   5.513   3.599   7.602 -0.5897  0.2865  0.2466
   55CHL1    H8 4011   5.559   3.498   7.600 -0.3861  0.3636  0.8095
   55CHL1   C14 4012   5.459   3.625   7.735 -0.4447  0.5610 -0.2461
   55CHL1   H14 4013   5.404   3.721   7.730  0.2556  0.9504 -0.5433
   55CHL1   C15 4014   5.560   3.639   7.855  0.6460 -0.6481  0.4235
   55CHL1  H15A 4015   5.634   3.556   7.855  2.3369  0.7566 -1.6883
   55CHL1  H15B 4016   5.618   3.734   7.863  0.2475 -0.4826  1.5562
   55CHL1   C16 4017   5.474   3.620   7.977 -0.1153  0.2931  0.2598
   55CHL1  H16A 4018   5.525   3.540   8.036  1.5728  0.6833 -0.6051
   55CHL1  H16B 4019   5.458   3.705   8.047 -2.8515 -0.7927  1.0942
   55CHL1   C17 4020   5.338   3.555   7.934  0.8667  0.8988 -0.1193
   55CHL1   H17 4021   5.262   3.636   7.929 -1.5847 -1.1190  1.9704
   55CHL1   C13 4022   5.358   3.520   7.782 -0.0750 -0.3010  0.7176
   55CHL1   C18 4023   5.414   3.377   7.767  0.3697 -0.4992 -0.6337
   55CHL1  H18A 4024   5.335   3.304   7.795  1.7535 -1.1575  1.8245
   55CHL1  H18B 4025   5.450   3.352   7.665  2.4324  0.7158 -0.2511
   55CHL1  H18C 4026   5.507   3.382   7.828  0.2746  2.7058 -0.5767
   55CHL1   C12 4027   5.234   3.538   7.682  0.5075 -0.2562 -0.4473
   55CHL1  H12A 4028   5.157   3.466   7.715 -0.7579  2.3872  3.0127
   55CHL1  H12B 4029   5.179   3.633   7.703  2.4708  0.5651  1.3518
   55CHL1   C11 4030   5.277   3.514   7.535 -0.1415 -0.3780 -0.3353
   55CHL1  H11A 4031   5.298   3.405   7.536 -2.6750 -0.9890  2.7441
   55CHL1  H11B 4032   5.195   3.527   7.462 -1.0724  0.5201  0.8400
   55CHL1    C9 4033   5.408   3.594   7.490  0.2132  0.0778 -1.0059
   55CHL1    H9 4034   5.371   3.699   7.488  1.5691  0.5881 -0.8393
   55CHL1   C10 4035   5.468   3.574   7.347  0.3575 -0.3491  0.0030
   55CHL1   C19 4036   5.476   3.409   7.328  0.1902 -0.0090 -0.3899
   55CHL1  H19A 4037   5.531   3.392   7.233  0.9129  0.1154  0.0015
   55CHL1  H19B 4038   5.526   3.363   7.415 -0.2509  1.4783  0.6939
   55CHL1  H19C 4039   5.377   3.360   7.316  0.3416 -1.1697  2.4858
   55CHL1    C1 4040   5.376   3.645   7.246  0.5272  0.3667  0.0566
   55CHL1   H1A 4041   5.288   3.577   7.248  1.8188 -1.3723  1.9471
   55CHL1   H1B 4042   5.355   3.751   7.270  0.7582  0.2107  0.9721
   55CHL1    C2 4043   5.422   3.641   7.099 -0.3698  0.0996 -0.5141
   55CHL1   H2A 4044   5.357   3.700   7.031 -2.6837 -0.0996  1.3960
   55CHL1   H2B 4045   5.421   3.539   7.053 -0.0559 -0.5459  0.8549
   55CHL1   C20 4046   5.286   3.451   8.037 -0.3698 -0.1331 -0.4579
   55CHL1   H20 4047   5.339   3.358   8.007  0.1040 -0.7275  1.9728
   55CHL1   C21 4048   5.129   3.431   8.009  0.4156  0.4032  0.1134
   55CHL1  H21A 4049   5.122   3.389   7.906 -1.1675  0.0460  0.3394
   55CHL1  H21B 4050   5.078   3.530   8.013  2.9051  1.7730 -0.2984
   55CHL1  H21C 4051   5.086   3.361   8.084 -0.7582 -0.1889 -1.0517
   55CHL1   C22 4052   5.314   3.484   8.186 -0.6818 -0.2604  0.4886
   55CHL1  H22A 4053   5.349   3.589   8.196 -0.7586 -0.2361  0.4983
   55CHL1  H22B 4054   5.225   3.490   8.252 -1.6018 -2.5468 -0.4421
   55CHL1   C23 4055   5.416   3.385   8.241 -0.1940 -0.2907  0.0576
   55CHL1  H23A 4056   5.507   3.392   8.177  1.4638  0.1617  2.2971
   55CHL1  H23B 4057   5.443   3.418   8.344 -1.2816  1.2815 -0.1295
   55CHL1   C24 4058   5.371   3.243   8.257 -0.3563 -0.5062  0.2507
   55CHL1  H24A 4059   5.273   3.236   8.310 -0.4317 -1.3427  0.0212
   55CHL1  H24B 4060   5.363   3.195   8.157  0.9073 -1.0769  0.4045
   55CHL1   C25 4061   5.470   3.165   8.353  0.1259 -0.5872 -0.2891
   55CHL1   H25 4062   5.417   3.071   8.378 -1.0590  0.3619  0.8833
   55CHL1   C26 4063   5.597   3.118   8.275 -0.2435 -0.4894 -0.4811
   55CHL1  H26A 4064   5.657   3.051   8.339  0.5628  1.5003  0.9704
   55CHL1  H26B 4065   5.580   3.077   8.173 -0.6147 -2.5793  0.3853
   55CHL1  H26C 4066   5.660   3.210   8.265  0.1550 -0.8934 -2.0046
   55CHL1   C27 4067   5.504   3.226   8.495 -0.1754  0.0830 -0.1484
   55CHL1  H27A 4068   5.416   3.230   8.562  0.6403  0.7374  0.9118
   55CHL1  H27B 4069   5.582   3.168   8.550  1.2801  3.5567  1.7647
   55CHL1  H27C 4070   5.551   3.326   8.484 -0.3607  0.2689  0.6549
   56CHL1    C3 4071   5.940   1.104   7.081 -0.4569  0.0207 -0.3882
   56CHL1    H3 4072   5.978   1.003   7.108 -1.2064 -0.7739 -2.1621
   56CHL1    O3 4073   5.932   1.102   6.933 -0.2960  0.0564  0.2507
   56CHL1   H3' 4074   6.014   1.131   6.894 -0.3713  1.1814  0.9010
   56CHL1    C4 4075   5.802   1.130   7.145  0.2907 -0.0320  0.0478
   56CHL1   H4A 4076   5.759   1.228   7.116 -1.6729 -0.1422  2.2925
   56CHL1   H4B 4077   5.728   1.057   7.107  0.6764 -0.5820  0.3362
   56CHL1    C5 4078   5.809   1.124   7.294 -1.0584  1.0091 -0.2149
   56CHL1    C6 4079   5.725   1.045   7.364 -0.1993  0.1306  0.4307
   56CHL1    H6 4080   5.647   0.990   7.308  0.0276  1.2669 -1.0691
   56CHL1    C7 4081   5.733   1.014   7.510 -0.0529  0.2300 -0.7782
   56CHL1   H7A 4082   5.633   1.017   7.558  0.5903  1.3247  0.5471
   56CHL1   H7B 4083   5.782   0.917   7.534  1.2256  1.2777  1.0080
   56CHL1    C8 4084   5.830   1.121   7.580  0.9797  0.2654  0.1512
   56CHL1    H8 4085   5.782   1.222   7.581 -1.1207 -0.6779  0.8187
   56CHL1   C14 4086   5.860   1.084   7.729  0.6437 -0.7496  0.0314
   56CHL1   H14 4087   5.908   0.984   7.728 -0.2157 -1.1697 -0.9301
   56CHL1   C15 4088   5.725   1.081   7.810  0.0450  0.0695 -0.3009
   56CHL1  H15A 4089   5.668   1.172   7.781 -1.7128 -0.7360  0.4880
   56CHL1  H15B 4090   5.663   0.989   7.807  0.4591 -0.6586  4.7721
   56CHL1   C16 4091   5.784   1.100   7.955  0.2787 -0.7268  0.1528
   56CHL1  H16A 4092   5.756   1.195   8.005 -0.2645 -1.4985  1.3574
   56CHL1  H16B 4093   5.751   1.023   8.028 -0.9893  0.7334  1.1729
   56CHL1   C17 4094   5.936   1.109   7.948  0.0157 -0.9041  0.1175
   56CHL1   H17 4095   5.971   1.004   7.941  1.5969 -0.6822  3.1938
   56CHL1   C13 4096   5.957   1.177   7.806  0.1600  0.9381 -0.2623
   56CHL1   C18 4097   5.926   1.325   7.809 -0.4983 -0.0964 -0.0172
   56CHL1  H18A 4098   6.003   1.374   7.874 -0.6284 -1.5780  1.3106
   56CHL1  H18B 4099   5.920   1.367   7.706  0.1134  0.2611  0.0841
   56CHL1  H18C 4100   5.830   1.355   7.856  0.8893  0.9856  2.2931
   56CHL1   C12 4101   6.084   1.153   7.721  0.0888 -0.5568 -0.6044
   56CHL1  H12A 4102   6.160   1.210   7.777 -0.4968 -1.1880  0.9012
   56CHL1  H12B 4103   6.113   1.046   7.734 -0.3249 -0.4350  1.6408
   56CHL1   C11 4104   6.074   1.204   7.576 -1.0552  0.2461  0.1179
   56CHL1  H11A 4105   6.059   1.314   7.573 -0.0828  0.3821 -1.4713
   56CHL1  H11B 4106   6.174   1.193   7.527 -0.2579  0.5924  1.5940
   56CHL1    C9 4107   5.957   1.137   7.499 -0.0254 -0.2564 -0.7005
   56CHL1    H9 4108   6.000   1.039   7.472 -0.5387 -0.4826 -0.7171
   56CHL1   C10 4109   5.934   1.201   7.357  0.6457  0.4167 -0.2105
   56CHL1   C19 4110   5.885   1.354   7.365 -0.3815  0.5024 -0.3318
   56CHL1  H19A 4111   5.963   1.420   7.408  1.2068 -1.5808  0.1451
   56CHL1  H19B 4112   5.857   1.381   7.261 -2.6145 -0.5021 -0.0580
   56CHL1  H19C 4113   5.788   1.364   7.418 -1.0337  2.0941 -1.7283
   56CHL1    C1 4114   6.064   1.192   7.273  0.0101 -0.1469 -0.1090
   56CHL1   H1A 4115   6.126   1.278   7.307 -0.4825  0.8070 -1.4930
   56CHL1   H1B 4116   6.107   1.093   7.297  0.7089  0.0325 -0.5853
   56CHL1    C2 4117   6.039   1.207   7.123  0.1125 -0.6594 -0.9062
   56CHL1   H2A 4118   6.130   1.184   7.064 -0.5255 -2.5411 -1.2297
   56CHL1   H2B 4119   6.011   1.311   7.097 -0.9524 -0.5439  0.5799
   56CHL1   C20 4120   5.989   1.182   8.068 -0.6407  0.0089 -0.0409
   56CHL1   H20 4121   5.961   1.289   8.060  2.7911  0.9776 -0.8799
   56CHL1   C21 4122   6.148   1.183   8.068  0.1599  0.1142 -0.2045
   56CHL1  H21A 4123   6.185   1.249   7.987  0.6177 -0.4311 -0.4449
   56CHL1  H21B 4124   6.194   1.083   8.052  0.6477  0.4007 -0.6099
   56CHL1  H21C 4125   6.188   1.238   8.156  0.0970  0.7911 -0.5962
   56CHL1   C22 4126   5.947   1.127   8.211  0.7880  0.0670  0.7749
   56CHL1  H22A 4127   5.844   1.086   8.204 -0.3167  2.8319 -1.0828
   56CHL1  H22B 4128   5.989   1.026   8.227 -1.9573 -1.3745 -0.4994
   56CHL1   C23 4129   5.958   1.224   8.333 -0.0063 -0.0871  0.4864
   56CHL1  H23A 4130   6.066   1.247   8.345  0.0071 -1.0306  2.5953
   56CHL1  H23B 4131   5.906   1.320   8.313  0.7528  0.2978  0.3294
   56CHL1   C24 4132   5.895   1.178   8.465 -1.0164 -0.4650 -0.2483
   56CHL1  H24A 4133   5.936   1.248   8.540 -0.0225  0.4499 -1.6127
   56CHL1  H24B 4134   5.784   1.179   8.466 -1.0748  1.9520 -2.0316
   56CHL1   C25 4135   5.929   1.028   8.498  1.1768 -0.3325 -0.0340
   56CHL1   H25 4136   5.896   0.973   8.407  1.3164 -0.6770  0.1224
   56CHL1   C26 4137   6.076   1.006   8.513 -0.0522  0.3165 -0.7982
   56CHL1  H26A 4138   6.116   1.030   8.614  1.9871  1.4821 -1.8186
   56CHL1  H26B 4139   6.140   1.054   8.436  1.6108 -2.1401 -1.0789
   56CHL1  H26C 4140   6.092   0.896   8.512 -0.7948  0.1663  0.8064
   56CHL1   C27 4141   5.845   0.986   8.623 -0.1744  0.0916  0.0246
   56CHL1  H27A 4142   5.736   0.990   8.602 -0.6325  1.5147  2.3441
   56CHL1  H27B 4143   5.877   0.884   8.651  2.2989  1.0461  1.0271
   56CHL1  H27C 4144   5.868   1.056   8.706  1.8704  0.7477 -1.0100
   57SAPC     N 4145   4.873   5.746  11.027  0.1353 -0.3407 -1.0828
   57SAPC   C12 4146   4.961   5.729  10.907 -0.7884  0.0134 -0.6597
   57SAPC  H12A 4147   5.031   5.651  10.933 -0.2200  1.1866  1.5309
   57SAPC  H12B 4148   5.035   5.805  10.891 -0.4078 -0.1456  0.2878
   57SAPC   C13 4149   4.802   5.622  11.064 -0.5065 -0.1294 -0.3177
   57SAPC  H13A 4150   4.739   5.642  11.150 -1.3995 -1.0252 -0.7477
   57SAPC  H13B 4151   4.735   5.584  10.989  0.8727  1.2372 -2.3498
   57SAPC  H13C 4152   4.866   5.539  11.090  0.2218  0.9206  1.4644
   57SAPC   C14 4153   4.956   5.774  11.145  0.9676  0.3306 -1.2939
   57SAPC  H14A 4154   5.020   5.691  11.171  1.5316  0.3553 -2.5560
   57SAPC  H14B 4155   5.021   5.860  11.141  0.6789  1.0712  3.6457
   57SAPC  H14C 4156   4.893   5.778  11.233  0.2899 -2.2674 -1.6023
   57SAPC   C15 4157   4.773   5.851  11.006 -0.1577  0.4673  0.0835
   57SAPC  H15A 4158   4.715   5.873  11.095  0.9779  0.5476  0.8298
   57SAPC  H15B 4159   4.807   5.945  10.964 -1.5180  0.3893 -1.2533
   57SAPC  H15C 4160   4.700   5.816  10.935 -0.3303 -0.0997  0.5307
   57SAPC   C11 4161   4.896   5.700  10.774 -0.1910 -0.3649  0.2004
   57SAPC  H11A 4162   4.966   5.711  10.689 -0.1384 -0.3765  0.2424
   57SAPC  H11B 4163   4.809   5.765  10.750 -1.4478 -1.5378  1.3531
   57SAPC     P 4164   4.944   5.443  10.743  0.0566 -0.1243 -0.8659
   57SAPC   O13 4165   5.074   5.457  10.811  0.0090 -0.9111  0.7487
   57SAPC   O14 4166   4.868   5.320  10.772 -0.5191 -0.1442 -0.1018
   57SAPC   O12 4167   4.849   5.570  10.775 -0.3602 -0.2048  0.6303
   57SAPC   O11 4168   4.961   5.468  10.595 -0.3319 -0.0570  1.1528
   57SAPC    C1 4169   4.853   5.479  10.505 -0.4138  0.6532  0.3663
   57SAPC    HA 4170   4.756   5.458  10.554 -0.5569  0.1087 -0.1467
   57SAPC    HB 4171   4.848   5.588  10.484 -0.7521  0.8042  1.1924
   57SAPC    C2 4172   4.870   5.388  10.383 -0.3912  0.5726 -0.5024
   57SAPC    HS 4173   4.979   5.370  10.373 -0.2808  0.4073  0.7729
   57SAPC   O21 4174   4.800   5.442  10.266 -0.1604  0.2986  0.0477
   57SAPC   C21 4175   4.847   5.550  10.210 -0.1605  0.1166 -0.0116
   57SAPC   O22 4176   4.953   5.603  10.243 -0.1255 -0.2915  0.3574
   57SAPC   C22 4177   4.756   5.606  10.106 -0.1607  0.3482  0.0359
   57SAPC   H2R 4178   4.679   5.529  10.084  0.4155  0.2831 -1.8472
   57SAPC   H2S 4179   4.711   5.704  10.134 -0.6015  0.4204 -0.8765
   57SAPC    C3 4180   4.803   5.246  10.416  0.5555  0.2480  0.2914
   57SAPC    HX 4181   4.692   5.259  10.414  0.3260 -1.5530 -1.0453
   57SAPC    HY 4182   4.833   5.212  10.517  0.2442  1.5574  0.8465
   57SAPC   O31 4183   4.848   5.159  10.312  0.0944  0.5981 -0.2754
   57SAPC   C31 4184   4.768   5.047  10.298  0.3606  0.0099 -0.3093
   57SAPC   O32 4185   4.658   5.031  10.347 -0.3031  0.0077  0.4362
   57SAPC   C32 4186   4.838   4.959  10.197  0.6390 -0.2778  0.4596
   57SAPC   H2X 4187   4.796   4.856  10.197 -1.7897  0.6487  0.2042
   57SAPC   H2Y 4188   4.946   4.958  10.222  1.2708 -2.8982 -1.8866
   57SAPC   C23 4189   4.822   5.628   9.967 -0.0348  0.2030 -0.5082
   57SAPC   H3R 4190   4.887   5.718   9.975 -1.4903  1.2144  0.2844
   57SAPC   H3S 4191   4.740   5.650   9.895 -1.1924 -0.5218  0.5631
   57SAPC   C24 4192   4.895   5.508   9.908  0.3741  0.3878  0.1408
   57SAPC   H4R 4193   4.989   5.489   9.965  0.1767 -3.9238 -0.6073
   57SAPC   H4S 4194   4.931   5.541   9.808 -0.3351  0.6382 -0.0375
   57SAPC   C25 4195   4.817   5.375   9.912 -0.1003 -0.3671 -0.0965
   57SAPC   H5R 4196   4.787   5.350  10.015  0.7566  3.1637  1.1698
   57SAPC   C26 4197   4.767   5.304   9.807 -0.6476 -0.2320  0.3104
   57SAPC   H6R 4198   4.713   5.213   9.835  0.7503 -1.0679  0.3683
   57SAPC   C27 4199   4.777   5.327   9.658 -0.5816  0.4054 -0.3252
   57SAPC   H7R 4200   4.877   5.374   9.643  0.4835 -0.7891  2.3829
   57SAPC   H7S 4201   4.710   5.405   9.616  0.6039 -0.3108 -3.9051
   57SAPC   C28 4202   4.766   5.197   9.578 -0.3123  0.2646 -0.6978
   57SAPC   H8R 4203   4.856   5.135   9.590  1.2485  2.5991  0.3078
   57SAPC   C29 4204   4.669   5.154   9.499  0.1800  0.1847  0.3553
   57SAPC   H9R 4205   4.696   5.059   9.449  0.5950  0.8093 -0.6306
   57SAPC  C210 4206   4.542   5.219   9.469 -0.0613  0.5613 -0.4615
   57SAPC  H10R 4207   4.514   5.275   9.560  0.0374 -3.1486  2.0901
   57SAPC  H10S 4208   4.465   5.140   9.453 -1.0552  1.3916  0.1461
   57SAPC  C211 4209   4.560   5.317   9.358 -0.2323  0.0692 -0.1656
   57SAPC  H11R 4210   4.657   5.368   9.358 -1.9132  3.7501 -2.6168
   57SAPC  C212 4211   4.465   5.349   9.259 -0.1948  0.3488 -0.3829
   57SAPC  H12R 4212   4.489   5.423   9.182  1.1885  1.3636  0.9625
   57SAPC  C213 4213   4.326   5.296   9.252 -0.1790  0.6560  1.0479
   57SAPC  H13R 4214   4.248   5.374   9.237 -1.1623 -0.2229  1.4744
   57SAPC  H13S 4215   4.306   5.263   9.356 -0.0153  0.5898  1.0582
   57SAPC  C214 4216   4.289   5.181   9.164 -0.2593 -0.1149 -0.3361
   57SAPC  H14R 4217   4.316   5.085   9.211  1.5941  1.3868  1.8915
   57SAPC  C215 4218   4.253   5.185   9.032  0.5223 -0.9139 -0.1899
   57SAPC  H15R 4219   4.231   5.095   8.972 -0.9703 -0.6008 -0.1643
   57SAPC  C216 4220   4.238   5.315   8.948  0.4660 -0.5526 -0.4877
   57SAPC  H16R 4221   4.278   5.398   9.010  0.2249 -2.2228  2.0346
   57SAPC  H16S 4222   4.134   5.353   8.937 -0.1292 -1.6084  1.0764
   57SAPC  C217 4223   4.308   5.321   8.813 -0.2353 -0.8287 -1.0610
   57SAPC  H17R 4224   4.266   5.233   8.759 -1.9689  0.0042 -1.1436
   57SAPC  H17S 4225   4.413   5.306   8.846 -0.6560  1.3354  1.5263
   57SAPC  C218 4226   4.297   5.454   8.748  0.2752 -0.5629 -0.4062
   57SAPC  H18R 4227   4.332   5.530   8.821 -1.2873  0.5374 -0.7563
   57SAPC  H18S 4228   4.188   5.469   8.735  0.4664  2.5090  0.7525
   57SAPC  C219 4229   4.381   5.469   8.615  0.1132  0.1965  0.3362
   57SAPC  H19R 4230   4.488   5.454   8.639  1.3544  3.4701 -2.2775
   57SAPC  H19S 4231   4.380   5.576   8.583  0.7166 -0.3265 -1.5598
   57SAPC  C220 4232   4.323   5.371   8.512 -0.2482  0.3099 -1.1083
   57SAPC  H20R 4233   4.265   5.289   8.560 -0.9845  2.8820  2.9525
   57SAPC  H20S 4234   4.393   5.316   8.447 -0.5526 -0.6027 -0.6826
   57SAPC  H20T 4235   4.245   5.417   8.448 -2.1055  0.5525  1.1962
   57SAPC   C33 4236   4.809   5.012  10.053 -0.0287 -0.3367 -0.1018
   57SAPC   H3X 4237   4.889   5.088  10.039 -0.4853 -0.0653 -1.4238
   57SAPC   H3Y 4238   4.712   5.063  10.038 -0.4846 -1.1993 -0.1154
   57SAPC   C34 4239   4.807   4.911   9.937  0.2177  0.2554  1.1146
   57SAPC   H4X 4240   4.809   4.812   9.988 -1.2691  0.3178  1.3481
   57SAPC   H4Y 4241   4.900   4.911   9.876 -0.8042  0.6422 -0.4968
   57SAPC   C35 4242   4.686   4.915   9.840  0.0905 -0.6156 -0.3343
   57SAPC   H5X 4243   4.660   5.014   9.796  2.5598  1.1260  1.8028
   57SAPC   H5Y 4244   4.603   4.890   9.910  1.2192  1.6273  1.9952
   57SAPC   C36 4245   4.690   4.808   9.733 -0.6018  0.5693 -0.0364
   57SAPC   H6X 4246   4.699   4.711   9.786  1.3454  2.3916  3.3048
   57SAPC   H6Y 4247   4.778   4.823   9.666 -0.8770 -0.0316 -0.5457
   57SAPC   C37 4248   4.565   4.810   9.645 -0.1270 -0.7902 -0.0033
   57SAPC   H7X 4249   4.567   4.894   9.572 -2.4007 -3.2467 -3.1381
   57SAPC   H7Y 4250   4.473   4.812   9.708 -2.0357  1.0545 -2.6035
   57SAPC   C38 4251   4.551   4.684   9.557  0.3759 -0.4751  0.9105
   57SAPC   H8X 4252   4.463   4.707   9.492  1.3822  1.9772  0.2830
   57SAPC   H8Y 4253   4.516   4.597   9.616 -0.9917 -1.5194 -1.2952
   57SAPC   C39 4254   4.677   4.672   9.470 -0.7655 -0.3493  0.6290
   57SAPC   H9X 4255   4.662   4.578   9.413 -0.2121 -1.3190  2.0317
   57SAPC   H9Y 4256   4.773   4.662   9.524  0.6734  2.8573 -1.0349
   57SAPC  C310 4257   4.686   4.789   9.365 -0.0946 -0.1641  0.6689
   57SAPC  H10X 4258   4.780   4.844   9.387  0.4100 -1.0743  0.8404
   57SAPC  H10Y 4259   4.610   4.867   9.389  0.9243  1.0458  0.1164
   57SAPC  C311 4260   4.668   4.744   9.226 -0.9038 -0.3183  1.5999
   57SAPC  H11X 4261   4.576   4.685   9.210 -0.9422 -0.0280  0.6790
   57SAPC  H11Y 4262   4.753   4.681   9.191 -0.6900  1.8281 -2.3007
   57SAPC  C312 4263   4.662   4.863   9.122  0.0798 -0.8580 -0.0498
   57SAPC  H12X 4264   4.755   4.923   9.110 -0.3395 -0.3730 -0.9949
   57SAPC  H12Y 4265   4.594   4.938   9.168  1.7583  0.2475  0.6954
   57SAPC  C313 4266   4.610   4.809   8.990  0.2846 -0.1361 -0.2443
   57SAPC  H13X 4267   4.655   4.712   8.962 -2.2015 -1.5519  0.4374
   57SAPC  H13Y 4268   4.638   4.882   8.911  0.0116  1.6509  1.2335
   57SAPC  C314 4269   4.454   4.792   8.979  0.0706  0.4250 -0.5624
   57SAPC  H14X 4270   4.417   4.895   8.995  2.9623  1.4574  0.0672
   57SAPC  H14Y 4271   4.437   4.727   9.068  1.7289 -1.0778 -1.2679
   57SAPC  C315 4272   4.392   4.731   8.854  0.1168 -0.1653  0.3466
   57SAPC  H15X 4273   4.283   4.749   8.857 -0.0861  0.1073 -3.5647
   57SAPC  H15Y 4274   4.409   4.622   8.867 -2.4429 -0.4778  1.5196
   57SAPC  C316 4275   4.446   4.791   8.721  0.1297 -0.2956  1.1885
   57SAPC  H16X 4276   4.398   4.722   8.648 -1.3033  2.0509 -0.1993
   57SAPC  H16Y 4277   4.556   4.774   8.712 -0.1463 -1.4578 -0.8378
   57SAPC  C317 4278   4.393   4.929   8.687 -0.1690 -0.1094 -0.1878
   57SAPC  H17X 4279   4.458   5.001   8.741 -1.0810  0.8508 -0.3234
   57SAPC  H17Y 4280   4.297   4.946   8.740  1.0272  1.3997  1.6174
   57SAPC  C318 4281   4.400   4.955   8.534 -0.5651  0.8570 -0.0664
   57SAPC  H18X 4282   4.351   4.878   8.470  2.5656  1.0034 -2.9535
   57SAPC  H18Y 4283   4.508   4.976   8.516 -0.5077  0.7037  0.0989
   57SAPC  H18Z 4284   4.348   5.049   8.508 -0.7484  1.3670  2.0104
   58SAPC     N 4285   0.559   3.895  10.553 -0.1859  0.1548  0.5435
   58SAPC   C12 4286   0.699   3.835  10.552  0.9553  0.0850 -0.4056
   58SAPC  H12A 4287   0.772   3.915  10.554  0.4505  0.5350  0.4735
   58SAPC  H12B 4288   0.703   3.776  10.462 -2.0245  0.5619 -0.9543
   58SAPC   C13 4289   0.454   3.788  10.544 -0.4407 -0.4866 -0.0129
   58SAPC  H13A 4290   0.460   3.731  10.453 -2.5164 -0.6912 -0.0665
   58SAPC  H13B 4291   0.477   3.717  10.622 -1.6860 -2.6748 -1.5570
   58SAPC  H13C 4292   0.355   3.827  10.563  0.2595  1.4648 -0.0633
   58SAPC   C14 4293   0.536   3.984  10.672  0.2839 -0.1634 -0.4052
   58SAPC  H14A 4294   0.539   3.924  10.762 -0.0989 -2.6567 -1.9367
   58SAPC  H14B 4295   0.605   4.067  10.674  0.2323 -0.0407 -2.2503
   58SAPC  H14C 4296   0.442   4.036  10.664  0.0615 -0.7476 -1.9177
   58SAPC   C15 4297   0.540   3.980  10.431 -0.0344 -0.4846 -0.9922
   58SAPC  H15A 4298   0.451   4.040  10.435 -0.0909 -0.6239  0.4760
   58SAPC  H15B 4299   0.623   4.049  10.419 -1.0123  0.5806 -1.8449
   58SAPC  H15C 4300   0.533   3.923  10.340 -1.6186 -2.7399  0.4512
   58SAPC   C11 4301   0.725   3.728  10.665  0.5477  0.4729 -0.2662
   58SAPC  H11A 4302   0.689   3.767  10.763  0.2547  0.1813 -0.2535
   58SAPC  H11B 4303   0.834   3.710  10.665  0.7234  1.1261 -3.0494
   58SAPC     P 4304   0.706   3.469  10.671 -0.1103  0.1075 -0.4240
   58SAPC   O13 4305   0.750   3.476  10.811 -0.8576  0.5591 -0.3039
   58SAPC   O14 4306   0.605   3.372  10.633 -0.5302 -0.2407  0.0716
   58SAPC   O12 4307   0.653   3.605  10.642 -0.7258  0.0689 -0.4644
   58SAPC   O11 4308   0.829   3.448  10.578 -0.7196  0.0352 -0.1380
   58SAPC    C1 4309   0.948   3.397  10.638 -0.3245 -1.2870  0.7931
   58SAPC    HA 4310   0.995   3.472  10.706  1.1629 -3.3859  2.1955
   58SAPC    HB 4311   0.936   3.310  10.705  1.2700 -0.8886  1.6454
   58SAPC    C2 4312   1.039   3.346  10.527 -0.0920 -0.2902 -0.0575
   58SAPC    HS 4313   1.136   3.306  10.565 -0.0095 -0.5020 -0.4800
   58SAPC   O21 4314   1.064   3.455  10.428 -0.0078 -0.1574  0.9972
   58SAPC   C21 4315   1.172   3.531  10.450 -0.1728  1.2822  0.2771
   58SAPC   O22 4316   1.245   3.527  10.548  0.5320  0.2960  0.7862
   58SAPC   C22 4317   1.210   3.594  10.311 -0.4100  0.0971  0.0511
   58SAPC   H2R 4318   1.164   3.541  10.226  0.5069  0.1356 -0.4796
   58SAPC   H2S 4319   1.161   3.693  10.326  0.2302  0.2531  1.3315
   58SAPC    C3 4320   0.969   3.225  10.460  0.0300  0.6378 -0.0860
   58SAPC    HX 4321   0.875   3.252  10.406 -1.2697 -1.0718  1.2071
   58SAPC    HY 4322   0.947   3.158  10.546 -1.3937  1.1091 -0.0494
   58SAPC   O31 4323   1.071   3.158  10.385 -0.3935 -0.0914 -0.2527
   58SAPC   C31 4324   1.033   3.063  10.305  0.1993 -0.4828  0.1078
   58SAPC   O32 4325   0.922   3.018  10.289 -0.7872 -0.2482  0.0926
   58SAPC   C32 4326   1.154   3.027  10.221 -0.0918  0.5131 -0.0037
   58SAPC   H2X 4327   1.226   2.966  10.279  0.6843  0.4205 -1.0524
   58SAPC   H2Y 4328   1.202   3.125  10.199  1.2812  0.1288  1.1867
   58SAPC   C23 4329   1.358   3.610  10.284 -0.4686  0.5930 -0.0828
   58SAPC   H3R 4330   1.398   3.511  10.253 -0.5922  0.6718 -0.4960
   58SAPC   H3S 4331   1.406   3.639  10.380 -0.8866  0.3548  0.2080
   58SAPC   C24 4332   1.386   3.712  10.167  0.1982 -0.1411 -0.1685
   58SAPC   H4R 4333   1.328   3.801  10.200 -2.1654 -1.7551  0.2852
   58SAPC   H4S 4334   1.336   3.680  10.073 -1.1697 -1.9381  1.0939
   58SAPC   C25 4335   1.530   3.751  10.144  0.3465  1.7965 -0.4709
   58SAPC   H5R 4336   1.596   3.744  10.231  0.7849  1.6884 -0.8055
   58SAPC   C26 4337   1.586   3.770  10.025 -0.2600 -0.7369  0.2073
   58SAPC   H6R 4338   1.692   3.798  10.021 -0.5791  0.6209  0.8831
   58SAPC   C27 4339   1.514   3.762   9.895 -0.0319  0.0228  0.0742
   58SAPC   H7R 4340   1.426   3.827   9.908  0.0851  0.1020  0.4624
   58SAPC   H7S 4341   1.461   3.665   9.884  0.0024  0.1005 -0.9329
   58SAPC   C28 4342   1.599   3.810   9.772  0.0275  0.4677 -0.8655
   58SAPC   H8R 4343   1.695   3.857   9.796  1.2405 -2.5579  0.7901
   58SAPC   C29 4344   1.569   3.796   9.645 -0.2029  0.4651  0.2717
   58SAPC   H9R 4345   1.638   3.836   9.569  2.2787 -1.8371  1.1031
   58SAPC  C210 4346   1.440   3.734   9.588 -0.5694 -0.0486 -1.3463
   58SAPC  H10R 4347   1.363   3.814   9.577 -1.3979 -0.9447 -2.4283
   58SAPC  H10S 4348   1.403   3.659   9.661 -1.1188 -0.6958 -2.2696
   58SAPC  C211 4349   1.457   3.667   9.456 -0.3540 -1.0411  0.1498
   58SAPC  H11R 4350   1.415   3.565   9.459 -2.0332 -0.4006 -0.3290
   58SAPC  C212 4351   1.507   3.705   9.341  0.3935  0.0533  0.7218
   58SAPC  H12R 4352   1.511   3.636   9.256 -1.2245 -0.7626  1.2695
   58SAPC  C213 4353   1.558   3.840   9.299 -0.8171 -1.0368 -0.2906
   58SAPC  H13R 4354   1.522   3.914   9.373  0.5243 -0.3967 -0.2492
   58SAPC  H13S 4355   1.508   3.851   9.201 -0.0636 -0.7483 -0.6492
   58SAPC  C214 4356   1.710   3.839   9.288 -0.2310 -0.0214  0.6210
   58SAPC  H14R 4357   1.767   3.789   9.368 -0.0642  0.6751  0.9453
   58SAPC  C215 4358   1.785   3.896   9.190 -0.2296  0.2951 -0.0538
   58SAPC  H15R 4359   1.895   3.888   9.183 -0.1416 -0.6455  1.7122
   58SAPC  C216 4360   1.731   3.976   9.079  0.3003  0.1736 -0.1778
   58SAPC  H16R 4361   1.809   4.048   9.045  0.2715 -0.1638 -0.9764
   58SAPC  H16S 4362   1.638   4.030   9.105 -0.3313 -0.5962 -0.7713
   58SAPC  C217 4363   1.701   3.895   8.950  0.5953 -0.7672  0.6278
   58SAPC  H17R 4364   1.662   3.971   8.877  2.2226 -0.9699 -0.5107
   58SAPC  H17S 4365   1.610   3.835   8.968 -1.5368  1.9974 -0.1236
   58SAPC  C218 4366   1.813   3.804   8.887  0.9960  0.3448 -0.2197
   58SAPC  H18R 4367   1.823   3.724   8.963  0.0417  1.3105  0.9599
   58SAPC  H18S 4368   1.909   3.858   8.882 -0.8906  3.9381 -0.6678
   58SAPC  C219 4369   1.774   3.754   8.748  0.1052 -0.2058  0.6353
   58SAPC  H19R 4370   1.664   3.743   8.744 -0.8365  5.2171  2.6736
   58SAPC  H19S 4371   1.814   3.651   8.732 -1.9813 -1.2802  1.9519
   58SAPC  C220 4372   1.810   3.872   8.655 -0.0502 -0.7457  0.6232
   58SAPC  H20R 4373   1.920   3.876   8.642 -0.2308 -0.0030 -0.8197
   58SAPC  H20S 4374   1.776   3.969   8.696  0.3328 -1.6026  3.1967
   58SAPC  H20T 4375   1.779   3.845   8.552  2.1344 -0.0949 -0.2430
   58SAPC   C33 4376   1.123   2.963  10.088  0.6444 -0.4908  0.7816
   58SAPC   H3X 4377   1.046   3.026  10.040  0.3337 -0.3217  1.4779
   58SAPC   H3Y 4378   1.072   2.865  10.102 -0.4501  0.0420  0.6551
   58SAPC   C34 4379   1.250   2.948  10.005  0.1680  0.6338 -0.0491
   58SAPC   H4X 4380   1.285   2.845  10.030 -1.2004 -0.1169 -1.0729
   58SAPC   H4Y 4381   1.325   3.020  10.044  2.7190 -0.5701 -2.4329
   58SAPC   C35 4382   1.224   2.970   9.860  0.5413  0.0726  0.7705
   58SAPC   H5X 4383   1.234   3.077   9.832  1.2438 -0.6680 -2.1807
   58SAPC   H5Y 4384   1.118   2.955   9.832  1.0403  3.0587 -3.7548
   58SAPC   C36 4385   1.315   2.888   9.758  0.9500 -0.3358 -0.4051
   58SAPC   H6X 4386   1.285   2.781   9.764 -1.7739  0.4096  0.8005
   58SAPC   H6Y 4387   1.419   2.896   9.797  0.8662  0.4715 -0.3295
   58SAPC   C37 4388   1.299   2.929   9.614  0.3742 -0.7457  0.1022
   58SAPC   H7X 4389   1.358   3.023   9.602  0.7997 -0.7735  1.7066
   58SAPC   H7Y 4390   1.190   2.944   9.600  0.6165 -1.1965 -2.7187
   58SAPC   C38 4391   1.359   2.827   9.521 -0.5696  0.2180  0.8814
   58SAPC   H8X 4392   1.288   2.742   9.506  0.0264  0.1101 -1.7220
   58SAPC   H8Y 4393   1.457   2.790   9.556 -1.7302 -1.5253  2.5017
   58SAPC   C39 4394   1.355   2.870   9.376 -0.2256 -0.2569 -0.0130
   58SAPC   H9X 4395   1.425   2.952   9.350 -0.9570  0.6022  0.6403
   58SAPC   H9Y 4396   1.254   2.913   9.360 -0.8042 -2.0072 -1.3619
   58SAPC  C310 4397   1.355   2.757   9.265 -0.5726 -0.1897 -0.3940
   58SAPC  H10X 4398   1.267   2.694   9.289 -1.2544  0.3502 -1.4411
   58SAPC  H10Y 4399   1.439   2.686   9.278  0.3537  1.2367  2.1847
   58SAPC  C311 4400   1.335   2.807   9.126 -0.1599  0.0169  0.2033
   58SAPC  H11X 4401   1.414   2.883   9.106  0.5810 -0.0587  2.5444
   58SAPC  H11Y 4402   1.238   2.858   9.112 -0.1764  0.2111  0.9647
   58SAPC  C312 4403   1.351   2.694   9.031  0.1227  0.5077  0.0999
   58SAPC  H12X 4404   1.258   2.635   9.033  1.0918 -1.0840 -0.1355
   58SAPC  H12Y 4405   1.425   2.617   9.061 -2.9538 -2.7998 -0.2078
   58SAPC  C313 4406   1.388   2.731   8.885 -0.5984  0.1493 -1.2781
   58SAPC  H13X 4407   1.491   2.769   8.868 -0.8287  0.7091 -1.4439
   58SAPC  H13Y 4408   1.317   2.810   8.854 -1.6504  0.2727  1.2548
   58SAPC  C314 4409   1.373   2.607   8.790 -0.2819 -0.3685 -0.3903
   58SAPC  H14X 4410   1.271   2.568   8.810 -2.3370  3.7290 -1.6725
   58SAPC  H14Y 4411   1.437   2.519   8.812 -1.2602 -0.2679  3.8494
   58SAPC  C315 4412   1.365   2.642   8.643  0.3566  0.7602  0.1955
   58SAPC  H15X 4413   1.461   2.687   8.609  0.2235  0.1061 -1.0909
   58SAPC  H15Y 4414   1.286   2.720   8.638 -0.1825  0.2575  0.7445
   58SAPC  C316 4415   1.320   2.525   8.550 -0.1131 -0.3789  0.3963
   58SAPC  H16X 4416   1.226   2.473   8.576 -0.5753 -0.8709 -2.0123
   58SAPC  H16Y 4417   1.406   2.456   8.538  1.8892  2.0485 -0.2448
   58SAPC  C317 4418   1.304   2.574   8.400  0.2944 -0.7169 -1.3381
   58SAPC  H17X 4419   1.405   2.610   8.372  0.5179 -0.1121  0.1597
   58SAPC  H17Y 4420   1.234   2.660   8.395 -1.3211 -1.8459  0.7263
   58SAPC  C318 4421   1.260   2.467   8.299  0.4034  0.2458 -0.2841
   58SAPC  H18X 4422   1.161   2.423   8.321  0.9427 -0.8683 -0.0051
   58SAPC  H18Y 4423   1.339   2.389   8.289 -0.7893 -1.1076  0.3842
   58SAPC  H18Z 4424   1.256   2.514   8.198  1.7963  0.7218 -0.1431
   59SAPC     N 4425   2.428   4.787  10.939 -0.1764 -0.2334  0.0975
   59SAPC   C12 4426   2.519   4.905  10.902  0.7893 -0.2021 -0.3900
   59SAPC  H12A 4427   2.489   4.933  10.803 -4.5011  0.6624  1.1419
   59SAPC  H12B 4428   2.619   4.863  10.903  1.0911  0.5045  0.0085
   59SAPC   C13 4429   2.419   4.694  10.813 -1.3312  0.5816  0.6506
   59SAPC  H13A 4430   2.512   4.681  10.760 -0.6114 -0.7760  2.1604
   59SAPC  H13B 4431   2.403   4.590  10.840  0.2334  0.5154  1.4735
   59SAPC  H13C 4432   2.360   4.748  10.741 -0.1393  1.0824  0.0200
   59SAPC   C14 4433   2.486   4.719  11.057 -0.0710  0.9391  0.1152
   59SAPC  H14A 4434   2.576   4.663  11.040 -0.4711  0.4115 -0.2987
   59SAPC  H14B 4435   2.490   4.788  11.140  3.4880  0.6573  0.3354
   59SAPC  H14C 4436   2.416   4.641  11.085  1.5295 -0.5915 -0.0128
   59SAPC   C15 4437   2.284   4.819  10.975 -0.5094  0.1497  0.4827
   59SAPC  H15A 4438   2.226   4.731  10.997 -0.8082  0.8868  2.9005
   59SAPC  H15B 4439   2.271   4.877  11.065 -1.7602 -1.8097  1.6440
   59SAPC  H15C 4440   2.240   4.876  10.894  1.5702  0.2227 -0.6898
   59SAPC   C11 4441   2.516   5.024  11.002 -0.0423  0.9869  0.0398
   59SAPC  H11A 4442   2.410   5.054  11.005 -0.6542 -0.5122 -2.9400
   59SAPC  H11B 4443   2.577   5.105  10.956  0.2699  1.0926  0.6293
   59SAPC     P 4444   2.727   4.973  11.154 -0.0476 -0.3993 -0.4290
   59SAPC   O13 4445   2.779   5.108  11.165  0.3128 -0.0512 -0.2853
   59SAPC   O14 4446   2.755   4.877  11.259  0.5043  0.7237 -0.0311
   59SAPC   O12 4447   2.571   4.982  11.131  1.0460  0.3685 -0.0998
   59SAPC   O11 4448   2.779   4.914  11.022  0.2370  0.5066  0.2988
   59SAPC    C1 4449   2.916   4.886  10.995  0.5716 -0.7763 -0.4920
   59SAPC    HA 4450   2.966   4.986  10.989  0.3107 -0.4265  2.2084
   59SAPC    HB 4451   2.965   4.827  11.074 -0.2140 -1.2113 -0.3237
   59SAPC    C2 4452   2.928   4.810  10.863  0.3042 -0.2907  0.2787
   59SAPC    HS 4453   3.037   4.793  10.847  0.1939 -2.0270  1.1404
   59SAPC   O21 4454   2.860   4.873  10.757 -0.4007  0.7778  0.7262
   59SAPC   C21 4455   2.905   4.990  10.720  0.2791  0.1982 -0.2867
   59SAPC   O22 4456   3.002   5.048  10.770 -0.2088  0.2208 -0.3210
   59SAPC   C22 4457   2.817   5.028  10.604  0.1973 -0.3235 -0.4390
   59SAPC   H2R 4458   2.808   4.947  10.530 -0.1580 -1.4222  0.7796
   59SAPC   H2S 4459   2.724   5.057  10.657  0.7130  1.9354 -0.6530
   59SAPC    C3 4460   2.881   4.660  10.873 -0.0014  0.4265 -0.1895
   59SAPC    HX 4461   2.774   4.665  10.902  0.5095 -0.9836  2.1840
   59SAPC    HY 4462   2.945   4.612  10.951 -0.7220 -0.5909 -0.2064
   59SAPC   O31 4463   2.892   4.592  10.748  0.3185  0.2600  0.2891
   59SAPC   C31 4464   2.829   4.478  10.738 -0.1550 -0.8548  0.5893
   59SAPC   O32 4465   2.770   4.432  10.836 -0.3247  0.4706  0.8858
   59SAPC   C32 4466   2.834   4.426  10.597 -0.3756  0.0922  0.7671
   59SAPC   H2X 4467   2.941   4.407  10.572  0.0556  3.1809 -0.1679
   59SAPC   H2Y 4468   2.776   4.499  10.536 -1.9153 -0.7836  1.1246
   59SAPC   C23 4469   2.855   5.164  10.539 -0.5113 -0.2222 -0.0104
   59SAPC   H3R 4470   2.963   5.163  10.513 -0.8069 -0.1861 -1.2795
   59SAPC   H3S 4471   2.839   5.245  10.614  1.8892 -0.6995  1.1011
   59SAPC   C24 4472   2.766   5.178  10.418  0.7457 -0.1097 -0.0790
   59SAPC   H4R 4473   2.657   5.184  10.441  0.7776 -1.5163  0.5398
   59SAPC   H4S 4474   2.777   5.089  10.353 -0.9922 -0.5871  0.2216
   59SAPC   C25 4475   2.810   5.308  10.353 -0.0327  1.4263 -0.3953
   59SAPC   H5R 4476   2.768   5.398  10.399 -0.7758  1.3153 -0.8526
   59SAPC   C26 4477   2.893   5.308  10.252  0.5106  0.8588  0.2228
   59SAPC   H6R 4478   2.933   5.407  10.225 -1.6264  1.8729  0.5810
   59SAPC   C27 4479   2.972   5.197  10.186 -0.5975  0.0438  0.2192
   59SAPC   H7R 4480   2.934   5.186  10.082  0.3452  0.5054 -0.1763
   59SAPC   H7S 4481   2.954   5.097  10.233  1.0989  0.4101  1.7585
   59SAPC   C28 4482   3.121   5.225  10.177  0.3273 -0.3426  0.6179
   59SAPC   H8R 4483   3.185   5.225  10.267  2.8298 -0.5694 -1.0876
   59SAPC   C29 4484   3.182   5.287  10.074  0.0984 -0.1001 -0.0804
   59SAPC   H9R 4485   3.291   5.302  10.076  0.4243 -0.7620 -4.1937
   59SAPC  C210 4486   3.126   5.331   9.941 -0.4149  0.1114  0.0397
   59SAPC  H10R 4487   3.166   5.432   9.920  0.2234 -0.3347 -0.9107
   59SAPC  H10S 4488   3.015   5.339   9.953 -0.7893 -2.2052 -1.2811
   59SAPC  C211 4489   3.135   5.256   9.812  0.3759 -0.0947  0.2620
   59SAPC  H11R 4490   3.218   5.184   9.806  0.8363  0.5158 -2.7479
   59SAPC  C212 4491   3.041   5.253   9.715 -0.0775 -0.0913  0.1827
   59SAPC  H12R 4492   3.058   5.182   9.633  0.7607 -0.5605  0.7477
   59SAPC  C213 4493   2.918   5.335   9.704 -1.4030 -0.7206  0.4794
   59SAPC  H13R 4494   2.891   5.348   9.598  0.3335  0.2638  0.1224
   59SAPC  H13S 4495   2.946   5.440   9.728 -0.3922 -0.8350 -0.1561
   59SAPC  C214 4496   2.817   5.291   9.804  0.1727  0.2995  0.1821
   59SAPC  H14R 4497   2.844   5.223   9.886  0.3578 -0.6886 -0.6694
   59SAPC  C215 4498   2.698   5.354   9.814 -0.3860 -0.3116  0.1385
   59SAPC  H15R 4499   2.631   5.323   9.896  0.5560  0.6379  1.3037
   59SAPC  C216 4500   2.654   5.484   9.755 -0.3989 -0.6859  0.0709
   59SAPC  H16R 4501   2.729   5.567   9.764 -0.0203 -0.8054 -1.6430
   59SAPC  H16S 4502   2.558   5.523   9.794  0.5759  1.6505  0.3437
   59SAPC  C217 4503   2.640   5.489   9.603 -0.0368 -0.0951  0.6139
   59SAPC  H17R 4504   2.569   5.408   9.576 -0.1503  0.6738 -1.6161
   59SAPC  H17S 4505   2.732   5.462   9.547 -0.5944  1.8882 -1.4280
   59SAPC  C218 4506   2.588   5.621   9.545  0.0092  0.6763  0.6973
   59SAPC  H18R 4507   2.663   5.698   9.574  0.2094  1.5848 -1.9953
   59SAPC  H18S 4508   2.492   5.654   9.592 -0.9105  0.7426 -1.1328
   59SAPC  C219 4509   2.587   5.616   9.394  0.3643 -0.0343 -0.2503
   59SAPC  H19R 4510   2.693   5.604   9.362 -0.2644  0.5985 -2.7631
   59SAPC  H19S 4511   2.553   5.702   9.332 -1.3096 -0.2543  0.3088
   59SAPC  C220 4512   2.513   5.490   9.325 -0.1795 -0.7227  0.6050
   59SAPC  H20R 4513   2.407   5.477   9.354 -0.7867 -0.2313 -1.2465
   59SAPC  H20S 4514   2.565   5.392   9.339  0.9503 -0.5975 -2.0400
   59SAPC  H20T 4515   2.530   5.510   9.217  4.1565 -0.7494  1.0957
   59SAPC   C33 4516   2.772   4.283  10.586  0.3694 -0.1192 -0.1958
   59SAPC   H3X 4517   2.669   4.287  10.627 -0.1449 -2.5051 -1.1165
   59SAPC   H3Y 4518   2.824   4.204  10.644  1.0858  2.0495  2.3176
   59SAPC   C34 4519   2.765   4.232  10.444  0.0976 -0.3985  0.2628
   59SAPC   H4X 4520   2.722   4.130  10.444 -1.6845  0.2927 -1.5762
   59SAPC   H4Y 4521   2.868   4.231  10.401 -1.2228 -1.2785 -3.1869
   59SAPC   C35 4522   2.672   4.314  10.355  0.3096 -0.7630 -1.1652
   59SAPC   H5X 4523   2.699   4.421  10.354  0.0670 -0.7020 -2.0087
   59SAPC   H5Y 4524   2.572   4.311  10.403 -0.0398  0.6203 -1.7680
   59SAPC   C36 4525   2.662   4.253  10.218 -0.1481 -0.1685 -0.0554
   59SAPC   H6X 4526   2.577   4.303  10.167  1.9274  1.5769 -1.9676
   59SAPC   H6Y 4527   2.631   4.146  10.224  0.5272 -0.3133  1.7056
   59SAPC   C37 4528   2.787   4.279  10.140  0.3943  0.4029 -0.3797
   59SAPC   H7X 4529   2.858   4.200  10.174  0.5904  1.1409  1.0115
   59SAPC   H7Y 4530   2.843   4.372  10.164  0.7521  0.3226 -0.8664
   59SAPC   C38 4531   2.775   4.261   9.987 -0.3959  0.9771 -0.8226
   59SAPC   H8X 4532   2.667   4.249   9.966 -0.3448 -3.9729  0.5002
   59SAPC   H8Y 4533   2.812   4.161   9.955 -2.4556  0.0586 -0.4831
   59SAPC   C39 4534   2.849   4.372   9.910  0.3915 -0.1095 -0.3422
   59SAPC   H9X 4535   2.957   4.380   9.937  0.7276  1.4111 -1.9091
   59SAPC   H9Y 4536   2.802   4.471   9.929  0.9150  0.6843 -2.7619
   59SAPC  C310 4537   2.848   4.350   9.759 -0.5980  0.0641 -0.0589
   59SAPC  H10X 4538   2.862   4.449   9.711 -1.5134  0.5669  0.6698
   59SAPC  H10Y 4539   2.744   4.318   9.734 -0.9379  1.9429 -1.2100
   59SAPC  C311 4540   2.963   4.255   9.716  0.8685 -0.2260  0.0906
   59SAPC  H11X 4541   2.954   4.157   9.767 -0.8714 -0.9775 -1.5566
   59SAPC  H11Y 4542   3.052   4.311   9.753 -0.9198  2.2537  0.9373
   59SAPC  C312 4543   2.985   4.236   9.565  0.8554 -0.7684 -0.0289
   59SAPC  H12X 4544   2.913   4.165   9.520 -0.7446  0.1915  0.9178
   59SAPC  H12Y 4545   3.086   4.191   9.555  0.6777 -0.7327 -2.3255
   59SAPC  C313 4546   2.965   4.368   9.485 -0.7177  0.3587 -0.6615
   59SAPC  H13X 4547   3.029   4.439   9.542  0.8690 -1.4223 -0.0893
   59SAPC  H13Y 4548   2.857   4.394   9.487 -0.4666  1.4203  0.1327
   59SAPC  C314 4549   3.023   4.372   9.342  0.9015  0.1279 -0.2098
   59SAPC  H14X 4550   3.119   4.316   9.337  1.6601  1.4089 -0.3079
   59SAPC  H14Y 4551   3.048   4.478   9.320 -0.4878  0.8007  1.2798
   59SAPC  C315 4552   2.933   4.314   9.235  0.0654  0.2644  0.0789
   59SAPC  H15X 4553   2.841   4.375   9.221 -1.2143 -1.3522  0.9997
   59SAPC  H15Y 4554   2.892   4.219   9.277 -0.5199  0.0425 -0.9693
   59SAPC  C316 4555   3.008   4.281   9.098  0.3896 -0.5000 -0.4109
   59SAPC  H16X 4556   2.940   4.226   9.028 -0.5569 -2.6219  2.0109
   59SAPC  H16Y 4557   3.091   4.211   9.120  0.3976 -0.1399  0.7371
   59SAPC  C317 4558   3.071   4.399   9.036  1.0452  0.5439 -0.5838
   59SAPC  H17X 4559   3.169   4.409   9.088  0.4289  1.1466  0.4815
   59SAPC  H17Y 4560   3.013   4.491   9.058 -1.5272 -1.1415  0.0657
   59SAPC  C318 4561   3.098   4.396   8.889  0.0655 -0.1569  0.0756
   59SAPC  H18X 4562   3.006   4.425   8.835 -0.6946 -1.1652  0.7905
   59SAPC  H18Y 4563   3.133   4.292   8.867  1.5250 -0.6233  3.8655
   59SAPC  H18Z 4564   3.178   4.463   8.852  0.8266 -1.5497 -0.8859
   60SAPC     N 4565   4.704   3.468  10.864 -0.8915 -0.1194 -0.0323
   60SAPC   C12 4566   4.785   3.540  10.970  0.3687 -0.4728 -0.2115
   60SAPC  H12A 4567   4.874   3.488  11.003 -1.0238 -1.5361  2.1733
   60SAPC  H12B 4568   4.725   3.546  11.060  0.3224  2.0381 -0.3520
   60SAPC   C13 4569   4.784   3.419  10.744 -0.3559  0.5868  0.1016
   60SAPC  H13A 4570   4.808   3.505  10.684 -1.7330  1.5847  0.9172
   60SAPC  H13B 4571   4.876   3.377  10.782  0.3047  1.3279 -0.6565
   60SAPC  H13C 4572   4.731   3.351  10.679  1.3952 -0.7320 -0.0139
   60SAPC   C14 4573   4.645   3.343  10.925 -0.1266 -0.4154 -0.5079
   60SAPC  H14A 4574   4.575   3.372  11.003  0.3136 -0.9154  0.0877
   60SAPC  H14B 4575   4.598   3.278  10.854 -0.3144 -0.3382 -0.4570
   60SAPC  H14C 4576   4.719   3.277  10.968 -1.7152 -1.8474  0.1119
   60SAPC   C15 4577   4.598   3.549  10.810 -0.1293 -0.3711 -0.1595
   60SAPC  H15A 4578   4.533   3.487  10.750  0.9287  0.3202 -2.1017
   60SAPC  H15B 4579   4.541   3.587  10.894  1.1784  0.6799  0.2797
   60SAPC  H15C 4580   4.634   3.635  10.754  0.8730 -2.4139 -2.8772
   60SAPC   C11 4581   4.832   3.689  10.936 -0.0358  0.2552  0.0803
   60SAPC  H11A 4582   4.894   3.724  11.022  0.7461  0.4992 -0.5738
   60SAPC  H11B 4583   4.748   3.762  10.938  0.2350  0.6038  2.4088
   60SAPC     P 4584   5.057   3.652  10.812  0.0391 -0.5373  0.1106
   60SAPC   O13 4585   5.140   3.765  10.851  0.5486 -0.5282  0.1090
   60SAPC   O14 4586   5.080   3.532  10.891 -0.4874  0.2830  0.7966
   60SAPC   O12 4587   4.907   3.701  10.818  0.1861  0.2391  0.6679
   60SAPC   O11 4588   5.066   3.630  10.654 -0.0422 -0.2054  0.0474
   60SAPC    C1 4589   5.110   3.745  10.575  0.3332  0.5071 -0.3470
   60SAPC    HA 4590   5.028   3.804  10.529  0.4554 -0.1623 -1.4733
   60SAPC    HB 4591   5.163   3.828  10.627  1.6008 -1.0287  0.9149
   60SAPC    C2 4592   5.201   3.697  10.456 -0.1773  0.1386 -0.3008
   60SAPC    HS 4593   5.211   3.786  10.390  0.4675  0.0567 -0.3201
   60SAPC   O21 4594   5.144   3.583  10.386  0.2648 -0.5760  0.0022
   60SAPC   C21 4595   5.146   3.606  10.248 -0.9249 -0.3005  0.5064
   60SAPC   O22 4596   5.185   3.708  10.192 -0.3984 -0.1988  0.5023
   60SAPC   C22 4597   5.097   3.482  10.177 -0.2549 -0.1267 -0.5130
   60SAPC   H2R 4598   5.172   3.466  10.096  2.5190 -1.4139  2.1027
   60SAPC   H2S 4599   5.091   3.392  10.242  0.8023 -1.4179 -2.1247
   60SAPC    C3 4600   5.341   3.646  10.504  0.0579  0.0968  0.0651
   60SAPC    HX 4601   5.336   3.545  10.549  1.2978 -0.4068 -0.8690
   60SAPC    HY 4602   5.366   3.699  10.598  0.6660 -1.6740  0.9487
   60SAPC   O31 4603   5.445   3.670  10.400 -0.2859  0.5987 -0.8080
   60SAPC   C31 4604   5.566   3.635  10.449 -0.6386 -0.1226 -0.3902
   60SAPC   O32 4605   5.589   3.597  10.562  0.0376 -0.3697  0.0162
   60SAPC   C32 4606   5.673   3.643  10.338 -0.1730 -0.8423 -0.4876
   60SAPC   H2X 4607   5.718   3.744  10.341 -1.4001 -0.2917 -0.2423
   60SAPC   H2Y 4608   5.627   3.641  10.237 -0.3189  1.5612 -0.5242
   60SAPC   C23 4609   4.962   3.489  10.112  0.4848 -0.2937 -0.3406
   60SAPC   H3R 4610   4.926   3.579  10.057 -1.3385 -0.3434  0.6851
   60SAPC   H3S 4611   4.890   3.495  10.197  2.9285  0.9498  1.7707
   60SAPC   C24 4612   4.926   3.358  10.035 -0.6141  0.3673 -0.6512
   60SAPC   H4R 4613   4.817   3.370  10.023 -0.9453  0.0415  1.5918
   60SAPC   H4S 4614   4.944   3.279  10.111  0.8760  0.3580 -0.9757
   60SAPC   C25 4615   5.004   3.337   9.909 -0.0349 -0.3129  0.5812
   60SAPC   H5R 4616   5.100   3.390   9.908 -0.0278 -0.2162  2.7824
   60SAPC   C26 4617   4.953   3.274   9.801  0.0705 -0.6851  0.1780
   60SAPC   H6R 4618   5.021   3.258   9.716 -0.2554 -1.2954  0.0177
   60SAPC   C27 4619   4.820   3.211   9.784 -0.1999  0.6500  0.0120
   60SAPC   H7R 4620   4.760   3.213   9.878  0.7448  0.7971  0.6284
   60SAPC   H7S 4621   4.841   3.107   9.754  2.1662  0.7972  0.9103
   60SAPC   C28 4622   4.743   3.275   9.669 -0.2611  0.3975 -0.3813
   60SAPC   H8R 4623   4.710   3.377   9.694  1.2784  1.1984 -1.4497
   60SAPC   C29 4624   4.727   3.217   9.548  0.6231 -0.5915 -0.1804
   60SAPC   H9R 4625   4.659   3.273   9.482  2.3652 -0.6964 -2.2002
   60SAPC  C210 4626   4.776   3.081   9.503  0.3527  0.5786  0.2861
   60SAPC  H10R 4627   4.774   3.008   9.587 -0.1398 -1.3175 -1.3148
   60SAPC  H10S 4628   4.882   3.084   9.472 -0.1474  1.4724 -1.4456
   60SAPC  C211 4629   4.695   3.024   9.388  0.5662  0.1761  0.0745
   60SAPC  H11R 4630   4.611   2.961   9.420 -0.1868 -0.4413 -2.8864
   60SAPC  C212 4631   4.709   3.051   9.259  0.4924 -0.1216 -0.2813
   60SAPC  H12R 4632   4.641   3.005   9.187  1.5001 -1.9837 -0.0974
   60SAPC  C213 4633   4.801   3.166   9.207  0.5618 -1.0119  0.4223
   60SAPC  H13R 4634   4.848   3.130   9.113 -0.9762 -0.3782 -0.6281
   60SAPC  H13S 4635   4.885   3.190   9.276  1.3381  1.8440 -1.3431
   60SAPC  C214 4636   4.709   3.288   9.184  0.0767 -0.6179  0.4598
   60SAPC  H14R 4637   4.725   3.376   9.249  0.7727  0.7562 -1.4880
   60SAPC  C215 4638   4.621   3.320   9.082  0.4997  0.5951  0.2170
   60SAPC  H15R 4639   4.571   3.417   9.073  1.7025  1.2048 -0.1021
   60SAPC  C216 4640   4.604   3.223   8.964  0.3350  0.2464  0.2700
   60SAPC  H16R 4641   4.498   3.190   8.962  0.3873  0.1087 -0.9327
   60SAPC  H16S 4642   4.678   3.140   8.969  1.8391  1.4079 -1.2198
   60SAPC  C217 4643   4.646   3.286   8.834  0.4628  0.6350 -0.2884
   60SAPC  H17R 4644   4.640   3.204   8.759 -0.8891 -1.1122  1.6454
   60SAPC  H17S 4645   4.750   3.326   8.838  0.9507 -0.6478  0.5086
   60SAPC  C218 4646   4.551   3.396   8.771 -0.4160 -0.3037  0.5946
   60SAPC  H18R 4647   4.539   3.482   8.841 -4.1560 -0.1939  0.0134
   60SAPC  H18S 4648   4.451   3.353   8.752  0.2001 -1.6727  0.3137
   60SAPC  C219 4649   4.612   3.445   8.638 -0.9812 -0.0814 -0.1422
   60SAPC  H19R 4650   4.618   3.360   8.566 -0.0248  0.6778 -0.9950
   60SAPC  H19S 4651   4.710   3.498   8.641  0.6137 -2.8636  1.2131
   60SAPC  C220 4652   4.515   3.552   8.581  0.2221  0.4659 -0.2208
   60SAPC  H20R 4653   4.549   3.591   8.482  1.3667 -2.0599 -0.9019
   60SAPC  H20S 4654   4.506   3.640   8.649  3.1295  0.9819 -0.3564
   60SAPC  H20T 4655   4.414   3.507   8.573  0.6353 -0.4194 -0.6217
   60SAPC   C33 4656   5.799   3.557  10.360  0.7245 -0.4538 -0.1038
   60SAPC   H3X 4657   5.761   3.458  10.396  2.2826  0.0373  3.2905
   60SAPC   H3Y 4658   5.859   3.596  10.446  1.1858  1.6111 -1.2981
   60SAPC   C34 4659   5.892   3.554  10.245 -0.3040 -0.2211  0.6428
   60SAPC   H4X 4660   5.967   3.475  10.267 -0.9837 -0.9433  0.4190
   60SAPC   H4Y 4661   5.951   3.647  10.235  1.3375 -1.3497 -0.7466
   60SAPC   C35 4662   5.829   3.517  10.107 -0.6573 -0.1554  0.9297
   60SAPC   H5X 4663   5.802   3.615  10.063  0.4291 -0.2233  0.0799
   60SAPC   H5Y 4664   5.733   3.463  10.125 -1.2342 -0.7482 -3.0615
   60SAPC   C36 4665   5.929   3.446  10.012  0.2408  0.0582 -0.6179
   60SAPC   H6X 4666   5.865   3.394   9.937  0.6412 -1.3364 -0.0171
   60SAPC   H6Y 4667   5.992   3.364  10.052 -0.9603  0.5722  2.6640
   60SAPC   C37 4668   6.027   3.538   9.947 -0.2447  0.4725 -0.1392
   60SAPC   H7X 4669   6.106   3.567  10.019  1.0774 -1.5444 -0.7021
   60SAPC   H7Y 4670   5.978   3.634   9.920  0.7272  0.9117 -0.3923
   60SAPC   C38 4671   6.098   3.475   9.827 -0.1317  0.0969  1.0611
   60SAPC   H8X 4672   6.178   3.538   9.782 -2.0967  1.4030 -0.8110
   60SAPC   H8Y 4673   6.019   3.474   9.749 -0.0883 -0.3531  1.0206
   60SAPC   C39 4674   6.146   3.332   9.853  0.2254 -0.4794 -0.4179
   60SAPC   H9X 4675   6.064   3.259   9.866  1.6065 -2.1643 -0.7357
   60SAPC   H9Y 4676   6.206   3.340   9.946 -0.1492  2.7975 -0.3177
   60SAPC  C310 4677   6.229   3.278   9.734 -0.1567  0.4135  0.1002
   60SAPC  H10X 4678   6.191   3.333   9.645 -0.1808 -0.5025 -0.4656
   60SAPC  H10Y 4679   6.222   3.167   9.740  1.7549  0.2721  0.1869
   60SAPC  C311 4680   6.377   3.309   9.739 -0.9169  0.2711 -0.6812
   60SAPC  H11X 4681   6.406   3.232   9.814 -0.3389  0.0265 -1.1487
   60SAPC  H11Y 4682   6.404   3.408   9.781 -0.6578  0.8550 -2.1837
   60SAPC  C312 4683   6.454   3.278   9.612 -0.0956  0.6668  0.5665
   60SAPC  H12X 4684   6.438   3.178   9.566 -0.6574  0.5853  0.9384
   60SAPC  H12Y 4685   6.564   3.283   9.632 -0.0704  2.4253  0.1342
   60SAPC  C313 4686   6.427   3.387   9.507 -0.2099  0.8638 -0.7270
   60SAPC  H13X 4687   6.413   3.491   9.543  0.4935  0.6087  0.3505
   60SAPC  H13Y 4688   6.330   3.374   9.455 -0.5056  0.3072 -0.0568
   60SAPC  C314 4689   6.544   3.380   9.410  0.7149  0.2476  0.6668
   60SAPC  H14X 4690   6.563   3.275   9.380  0.9733  0.0589  1.4612
   60SAPC  H14Y 4691   6.642   3.412   9.451 -0.1704 -0.6790  3.7715
   60SAPC  C315 4692   6.516   3.461   9.278 -0.9976 -0.2887 -0.0542
   60SAPC  H15X 4693   6.488   3.565   9.307  1.7556  0.0531  1.7121
   60SAPC  H15Y 4694   6.431   3.415   9.223 -0.2766 -1.1680 -0.4554
   60SAPC  C316 4695   6.645   3.462   9.187 -0.3046 -0.0742  0.1058
   60SAPC  H16X 4696   6.680   3.357   9.180 -1.0288 -0.2974 -0.1909
   60SAPC  H16Y 4697   6.722   3.525   9.237  0.0276 -1.9206  2.1064
   60SAPC  C317 4698   6.623   3.512   9.038 -0.5696  0.1358  0.5208
   60SAPC  H17X 4699   6.549   3.442   8.992  1.7539 -1.2148 -1.3778
   60SAPC  H17Y 4700   6.719   3.512   8.982 -0.2651 -0.9659  1.0067
   60SAPC  C318 4701   6.564   3.650   9.030  0.3097  0.4757 -0.1583
   60SAPC  H18X 4702   6.542   3.683   8.927 -0.3229  1.1061  0.1714
   60SAPC  H18Y 4703   6.628   3.729   9.075 -0.6017  0.6809  0.8228
   60SAPC  H18Z 4704   6.469   3.664   9.085  0.5880  2.3719 -0.0780
   61SAPC     N 4705   5.497   2.469  11.281 -0.4451  0.5337 -0.4462
   61SAPC   C12 4706   5.419   2.538  11.175 -0.3990 -0.7905 -0.2702
   61SAPC  H12A 4707   5.372   2.619  11.229 -0.0823 -1.3754  0.9321
   61SAPC  H12B 4708   5.337   2.480  11.134 -0.4845  0.4448 -1.9598
   61SAPC   C13 4709   5.567   2.348  11.221  0.2100  0.3353 -0.6226
   61SAPC  H13A 4710   5.639   2.313  11.294  0.5054  3.4566  0.7350
   61SAPC  H13B 4711   5.491   2.274  11.204  0.2957 -0.1953  1.1654
   61SAPC  H13C 4712   5.620   2.367  11.128  0.0525  1.8928 -0.4265
   61SAPC   C14 4713   5.600   2.567  11.340 -0.1419 -0.0433 -0.2186
   61SAPC  H14A 4714   5.655   2.545  11.430 -1.2201  0.9069  0.6874
   61SAPC  H14B 4715   5.659   2.610  11.259  1.3543 -0.7899  0.4224
   61SAPC  H14C 4716   5.539   2.651  11.368  1.0625  0.9227 -0.3519
   61SAPC   C15 4717   5.402   2.418  11.388  0.6194 -0.3280  0.5075
   61SAPC  H15A 4718   5.345   2.337  11.344 -0.5392  0.1271  1.1136
   61SAPC  H15B 4719   5.446   2.373  11.476 -1.9878 -2.3626  0.9267
   61SAPC  H15C 4720   5.338   2.498  11.423  0.1772 -1.6042  2.7950
   61SAPC   C11 4721   5.504   2.604  11.058  0.2757 -0.3967 -0.0175
   61SAPC  H11A 4722   5.429   2.631  10.981  0.7535 -1.4830 -0.8911
   61SAPC  H11B 4723   5.569   2.524  11.016 -0.2403 -1.3112  0.8810
   61SAPC     P 4724   5.542   2.863  11.071 -0.0632  0.0336  0.2497
   61SAPC   O13 4725   5.400   2.890  11.110  0.1879 -0.1616 -0.4454
   61SAPC   O14 4726   5.649   2.958  11.115 -0.0053 -0.7043 -0.0192
   61SAPC   O12 4727   5.583   2.717  11.102  0.3145 -0.0108 -0.3537
   61SAPC   O11 4728   5.542   2.856  10.909  0.1737 -0.2272  0.5914
   61SAPC    C1 4729   5.630   2.776  10.829  0.1753  0.6981 -0.3105
   61SAPC    HA 4730   5.710   2.725  10.886  0.0615  0.3844 -0.4301
   61SAPC    HB 4731   5.568   2.702  10.774 -0.4012 -0.6019  2.0034
   61SAPC    C2 4732   5.699   2.857  10.726  0.2361 -0.3527  0.4893
   61SAPC    HS 4733   5.768   2.934  10.768 -1.1094  1.5848 -0.6474
   61SAPC   O21 4734   5.598   2.935  10.650  0.1817 -0.0655 -0.2586
   61SAPC   C21 4735   5.637   3.043  10.575 -0.0083 -0.3341  0.3705
   61SAPC   O22 4736   5.748   3.092  10.576 -0.8073 -0.0066 -0.6768
   61SAPC   C22 4737   5.515   3.088  10.487 -0.1260  0.1504  0.6440
   61SAPC   H2R 4738   5.504   3.008  10.411 -0.3716 -1.0553  1.9040
   61SAPC   H2S 4739   5.425   3.089  10.553 -2.3327 -0.3999 -2.1142
   61SAPC    C3 4740   5.784   2.766  10.638  0.5819 -0.4877 -0.1316
   61SAPC    HX 4741   5.716   2.691  10.593 -0.3254 -0.8278  1.6884
   61SAPC    HY 4742   5.851   2.703  10.701  2.7210  1.9481  0.2422
   61SAPC   O31 4743   5.856   2.840  10.541 -0.2881 -0.4957  0.2056
   61SAPC   C31 4744   5.974   2.882  10.591 -0.5600 -0.3355 -0.3759
   61SAPC   O32 4745   6.022   2.851  10.699  0.1817 -0.1548  0.0966
   61SAPC   C32 4746   6.047   2.968  10.487  0.4337  0.7396 -0.5709
   61SAPC   H2X 4747   6.150   2.927  10.481 -1.1305 -4.4702  1.8374
   61SAPC   H2Y 4748   6.039   3.069  10.534  1.5582  0.0925  1.1044
   61SAPC   C23 4749   5.526   3.226  10.420  0.0396 -0.0886 -0.7012
   61SAPC   H3R 4750   5.628   3.240  10.379  0.7638  0.9505  1.3248
   61SAPC   H3S 4751   5.499   3.308  10.490 -0.8558  0.2043 -1.3738
   61SAPC   C24 4752   5.427   3.240  10.302 -0.1752  0.0166 -0.5074
   61SAPC   H4R 4753   5.426   3.350  10.290 -1.4912  0.0757  0.0038
   61SAPC   H4S 4754   5.331   3.210  10.349  0.1563  0.1380  0.2599
   61SAPC   C25 4755   5.454   3.162  10.173  0.0186 -0.3300 -0.0238
   61SAPC   H5R 4756   5.441   3.053  10.185 -0.3641 -0.2371  0.4109
   61SAPC   C26 4757   5.477   3.212  10.053  0.0333  0.2698 -0.0262
   61SAPC   H6R 4758   5.468   3.135   9.975  0.2655  0.6453 -0.4306
   61SAPC   C27 4759   5.477   3.351  10.016 -0.5093  0.1415  0.5443
   61SAPC   H7R 4760   5.515   3.427  10.087 -0.2454  0.9949 -0.4901
   61SAPC   H7S 4761   5.368   3.365   9.999 -0.4343 -1.1457 -1.4013
   61SAPC   C28 4762   5.555   3.372   9.890 -0.3656 -0.4883  0.0949
   61SAPC   H8R 4763   5.658   3.408   9.902 -0.2473 -0.7948 -0.0053
   61SAPC   C29 4764   5.510   3.362   9.764  0.6306 -0.4623 -0.5316
   61SAPC   H9R 4765   5.574   3.384   9.678 -1.5031 -0.0620 -2.1005
   61SAPC  C210 4766   5.359   3.327   9.732  0.2294 -1.1163  0.0140
   61SAPC  H10R 4767   5.315   3.281   9.823 -0.5155  2.1607  1.4662
   61SAPC  H10S 4768   5.356   3.255   9.648  3.2614 -1.2021 -0.1355
   61SAPC  C211 4769   5.274   3.449   9.702  0.3081  0.0654 -0.7140
   61SAPC  H11R 4770   5.255   3.507   9.793 -1.0522  1.2624 -1.7101
   61SAPC  C212 4771   5.198   3.478   9.594 -0.0090 -0.3580  0.0143
   61SAPC  H12R 4772   5.148   3.576   9.593 -0.6638 -0.6503 -2.0879
   61SAPC  C213 4773   5.195   3.400   9.461 -1.0048  0.0622 -0.0166
   61SAPC  H13R 4774   5.090   3.396   9.425 -0.8655  0.1343 -0.4304
   61SAPC  H13S 4775   5.213   3.292   9.477 -1.8603 -0.1454 -0.3990
   61SAPC  C214 4776   5.283   3.453   9.348 -0.1846  0.5722 -0.3151
   61SAPC  H14R 4777   5.381   3.488   9.385  0.9785 -0.9902 -1.8072
   61SAPC  C215 4778   5.270   3.448   9.215 -0.5353  0.2017 -0.2227
   61SAPC  H15R 4779   5.345   3.478   9.141  0.7802 -0.7536  0.6794
   61SAPC  C216 4780   5.147   3.386   9.162  0.6178  0.1182  0.6531
   61SAPC  H16R 4781   5.060   3.398   9.231 -1.5137  2.2155 -2.1459
   61SAPC  H16S 4782   5.159   3.275   9.153 -1.2159 -0.0073 -0.9661
   61SAPC  C217 4783   5.104   3.437   9.029 -0.0895 -0.6333  0.2016
   61SAPC  H17R 4784   5.096   3.547   9.029 -0.3580 -0.6478 -0.3937
   61SAPC  H17S 4785   4.999   3.404   9.016 -0.7217  1.7058 -0.9952
   61SAPC  C218 4786   5.187   3.397   8.909  0.1625  0.7943  0.8661
   61SAPC  H18R 4787   5.180   3.290   8.881  1.8300  0.3947  1.8433
   61SAPC  H18S 4788   5.294   3.411   8.938  0.8390 -1.4128 -0.3258
   61SAPC  C219 4789   5.169   3.480   8.778  0.2027  0.7499 -0.7344
   61SAPC  H19R 4790   5.066   3.463   8.740 -1.5793  2.6072  2.7711
   61SAPC  H19S 4791   5.244   3.445   8.704 -0.7012  0.6400 -1.6241
   61SAPC  C220 4792   5.196   3.634   8.795  0.9331 -0.8681  0.2711
   61SAPC  H20R 4793   5.210   3.681   8.696 -1.6360  2.8501  1.4238
   61SAPC  H20S 4794   5.283   3.645   8.863 -0.9464  1.4856  2.5228
   61SAPC  H20T 4795   5.108   3.683   8.841  0.7397  0.0501 -1.0256
   61SAPC   C33 4796   5.969   2.985  10.352  0.1126  0.1081  0.2070
   61SAPC   H3X 4797   5.897   3.068  10.367 -1.1469 -0.8664 -0.2475
   61SAPC   H3Y 4798   5.912   2.893  10.326  0.1669  0.3240 -0.7178
   61SAPC   C34 4799   6.058   3.013  10.235  0.3866  0.3140  0.2090
   61SAPC   H4X 4800   6.134   2.932  10.229 -0.3122 -0.3703  0.4563
   61SAPC   H4Y 4801   6.126   3.095  10.267 -0.9669  0.8055  1.9739
   61SAPC   C35 4802   5.985   3.043  10.102  0.1073  0.1317 -0.3939
   61SAPC   H5X 4803   6.053   3.081  10.022  1.6746 -0.6263  0.5124
   61SAPC   H5Y 4804   5.901   3.115  10.106  0.6702  1.0203 -2.7613
   61SAPC   C36 4805   5.951   2.912  10.042  0.3283 -0.5914 -0.3028
   61SAPC   H6X 4806   5.865   2.865  10.093  0.6543  1.4477  2.2987
   61SAPC   H6Y 4807   6.039   2.844  10.052 -1.0010 -2.2343  0.7650
   61SAPC   C37 4808   5.934   2.919   9.885  0.3729  0.1056 -0.1727
   61SAPC   H7X 4809   5.906   2.822   9.840 -0.1813  0.7183 -1.2065
   61SAPC   H7Y 4810   6.025   2.943   9.826 -0.4487 -1.1210 -2.0248
   61SAPC   C38 4811   5.824   3.021   9.850  0.1071 -0.8416  0.9927
   61SAPC   H8X 4812   5.836   3.126   9.885  1.3447  0.5880 -3.0729
   61SAPC   H8Y 4813   5.723   2.992   9.886 -0.6424 -0.0768 -0.4209
   61SAPC   C39 4814   5.821   3.037   9.701 -0.6419 -0.6148  0.0217
   61SAPC   H9X 4815   5.810   2.939   9.649  0.8158 -0.6803 -0.2191
   61SAPC   H9Y 4816   5.921   3.077   9.672 -0.7198 -0.5509 -0.1579
   61SAPC  C310 4817   5.716   3.132   9.646  0.8079 -0.0506 -0.6402
   61SAPC  H10X 4818   5.741   3.235   9.679 -1.8386 -0.0232  1.6934
   61SAPC  H10Y 4819   5.616   3.101   9.684  0.8053 -2.5370 -2.4506
   61SAPC  C311 4820   5.720   3.124   9.488 -0.1970  0.3900 -0.5093
   61SAPC  H11X 4821   5.673   3.030   9.451  0.1576  0.2045 -0.4965
   61SAPC  H11Y 4822   5.826   3.117   9.457 -0.5939 -0.5038 -1.7618
   61SAPC  C312 4823   5.647   3.237   9.422 -0.3071  0.0290 -0.6168
   61SAPC  H12X 4824   5.709   3.322   9.457 -1.0036 -0.0736  0.9546
   61SAPC  H12Y 4825   5.552   3.268   9.472 -0.2162  0.5951 -0.7866
   61SAPC  C313 4826   5.617   3.230   9.277 -0.1372 -0.1413  0.3508
   61SAPC  H13X 4827   5.712   3.237   9.220 -0.2421 -0.8383  0.0815
   61SAPC  H13Y 4828   5.545   3.305   9.237  0.3235  0.3982  0.5318
   61SAPC  C314 4829   5.554   3.096   9.232 -0.0044 -0.3883  0.3373
   61SAPC  H14X 4830   5.461   3.079   9.291 -0.6272 -0.2955 -0.6028
   61SAPC  H14Y 4831   5.623   3.010   9.250  0.2948 -0.2701 -0.2343
   61SAPC  C315 4832   5.517   3.097   9.080  0.6984  0.4794  0.2845
   61SAPC  H15X 4833   5.610   3.125   9.027  0.3949 -0.0553 -0.5555
   61SAPC  H15Y 4834   5.435   3.168   9.054 -0.9791 -1.2710  0.6270
   61SAPC  C316 4835   5.468   2.955   9.035 -0.0299  0.6474  0.8619
   61SAPC  H16X 4836   5.367   2.940   9.079 -1.2599 -0.9974 -2.2793
   61SAPC  H16Y 4837   5.529   2.870   9.071 -0.5289  1.0503  2.8067
   61SAPC  C317 4838   5.442   2.948   8.880 -0.3903  0.1645 -0.0970
   61SAPC  H17X 4839   5.528   2.995   8.829  0.2827 -0.3356  0.5480
   61SAPC  H17Y 4840   5.354   3.014   8.865 -2.0318 -1.9777 -0.4960
   61SAPC  C318 4841   5.425   2.809   8.831  0.1743 -0.2663  0.7560
   61SAPC  H18X 4842   5.514   2.749   8.860  1.7755  1.2298 -0.7948
   61SAPC  H18Y 4843   5.412   2.801   8.721  1.3998 -2.0317  0.7093
   61SAPC  H18Z 4844   5.330   2.774   8.878  0.2617  2.0489  2.8396
   62SAPC     N 4845   5.609   1.369  10.903  0.3350 -0.1972  0.0592
   62SAPC   C12 4846   5.607   1.489  10.806 -0.3130 -0.0891  0.0731
   62SAPC  H12A 4847   5.705   1.517  10.771  0.5078 -1.8832  0.8100
   62SAPC  H12B 4848   5.575   1.578  10.858 -1.2606  0.6782 -1.7481
   62SAPC   C13 4849   5.704   1.270  10.852  0.3442 -0.1817 -0.7554
   62SAPC  H13A 4850   5.804   1.304  10.834  0.6918 -1.7704 -2.1096
   62SAPC  H13B 4851   5.730   1.198  10.928  0.3712  0.1365 -0.4634
   62SAPC  H13C 4852   5.662   1.216  10.768 -2.1084 -2.0481  1.4877
   62SAPC   C14 4853   5.653   1.417  11.038  0.0702  0.3294  0.5149
   62SAPC  H14A 4854   5.727   1.495  11.024 -0.5999  0.8665 -0.0708
   62SAPC  H14B 4855   5.579   1.468  11.097 -2.5550 -1.9447 -0.6301
   62SAPC  H14C 4856   5.702   1.339  11.095 -0.2330  0.5831  1.1256
   62SAPC   C15 4857   5.470   1.312  10.913  0.3264 -0.1585  0.1922
   62SAPC  H15A 4858   5.399   1.383  10.953  1.3278  0.7959  0.3147
   62SAPC  H15B 4859   5.433   1.285  10.816  1.5226 -0.0201 -0.3273
   62SAPC  H15C 4860   5.465   1.227  10.979 -2.4913  0.9785  1.6001
   62SAPC   C11 4861   5.511   1.493  10.677 -0.5960 -0.1557  0.3881
   62SAPC  H11A 4862   5.533   1.399  10.622  0.0259 -0.6489  1.4499
   62SAPC  H11B 4863   5.543   1.585  10.624 -2.4547 -0.0833 -0.6950
   62SAPC     P 4864   5.317   1.647  10.754 -0.1303  0.4017 -0.0202
   62SAPC   O13 4865   5.173   1.632  10.784  0.7990 -0.5714 -0.0550
   62SAPC   O14 4866   5.395   1.705  10.867 -0.0467  0.2661 -0.3249
   62SAPC   O12 4867   5.375   1.509  10.708  0.2622  0.2392  0.3227
   62SAPC   O11 4868   5.332   1.727  10.618  0.3012  0.1373  0.3052
   62SAPC    C1 4869   5.390   1.856  10.616  0.2483 -0.0441 -0.3495
   62SAPC    HA 4870   5.371   1.913  10.710  0.8482  0.9504 -0.8064
   62SAPC    HB 4871   5.499   1.842  10.599 -0.0915 -1.9043 -1.1505
   62SAPC    C2 4872   5.332   1.951  10.509 -0.6072 -0.2396  0.3366
   62SAPC    HS 4873   5.224   1.932  10.492 -1.1029  1.7883  0.9978
   62SAPC   O21 4874   5.411   1.918  10.393  0.3996 -0.3623  0.3046
   62SAPC   C21 4875   5.348   1.925  10.275 -0.0681  0.1151  0.5591
   62SAPC   O22 4876   5.230   1.960  10.256  0.0471 -0.3356  0.0508
   62SAPC   C22 4877   5.445   1.897  10.167 -0.4243 -0.0592  0.4945
   62SAPC   H2R 4878   5.535   1.853  10.215  0.5249  0.1163 -1.0381
   62SAPC   H2S 4879   5.398   1.816  10.108  0.3046 -2.2809  2.7772
   62SAPC    C3 4880   5.349   2.105  10.540 -0.0297  0.4418  0.1236
   62SAPC    HX 4881   5.455   2.116  10.571 -0.9619  2.7910  2.8673
   62SAPC    HY 4882   5.290   2.136  10.630 -0.3772  0.1224  0.0115
   62SAPC   O31 4883   5.326   2.187  10.424  0.0312  0.1076 -0.0125
   62SAPC   C31 4884   5.205   2.229  10.405  0.1283 -0.5581 -0.1503
   62SAPC   O32 4885   5.112   2.205  10.479  0.0439 -0.3687 -0.3851
   62SAPC   C32 4886   5.197   2.302  10.273 -0.3957 -0.3349 -0.5438
   62SAPC   H2X 4887   5.224   2.229  10.193 -0.7334 -1.8741  0.7060
   62SAPC   H2Y 4888   5.281   2.374  10.274  0.2404 -0.9755  2.4511
   62SAPC   C23 4889   5.465   2.025  10.073  0.6252 -0.2979 -0.4765
   62SAPC   H3R 4890   5.569   2.019  10.034  1.1253 -0.0708  0.7578
   62SAPC   H3S 4891   5.459   2.115  10.138 -0.4050 -1.2437  0.7974
   62SAPC   C24 4892   5.360   2.021   9.961 -0.7929 -0.4910  0.0704
   62SAPC   H4R 4893   5.257   2.034  10.000 -0.3613 -0.5696  1.2757
   62SAPC   H4S 4894   5.372   1.921   9.914 -0.8182 -0.1189 -0.7370
   62SAPC   C25 4895   5.391   2.127   9.866 -0.0613 -0.3750 -0.5435
   62SAPC   H5R 4896   5.383   2.226   9.914  3.1855 -0.8737  1.3285
   62SAPC   C26 4897   5.414   2.114   9.737  0.3496 -0.4109  0.5390
   62SAPC   H6R 4898   5.442   2.206   9.684 -1.9552  0.1163  0.1264
   62SAPC   C27 4899   5.399   1.992   9.648 -0.2790 -0.1780  0.2353
   62SAPC   H7R 4900   5.389   1.897   9.705  0.3275 -0.4661 -0.1248
   62SAPC   H7S 4901   5.496   1.978   9.595 -0.4171 -2.2429  0.4646
   62SAPC   C28 4902   5.281   2.005   9.562  0.1476 -0.0808  0.2872
   62SAPC   H8R 4903   5.184   2.021   9.612 -0.0967  2.1256 -0.7576
   62SAPC   C29 4904   5.277   1.994   9.428 -0.8944 -0.6503  0.0143
   62SAPC   H9R 4905   5.183   2.016   9.376 -0.6509 -0.3917 -0.3190
   62SAPC  C210 4906   5.400   1.977   9.336  0.2655 -0.1071 -0.8847
   62SAPC  H10R 4907   5.371   1.895   9.266  0.3654  1.0893 -2.3820
   62SAPC  H10S 4908   5.491   1.942   9.388  1.2372  1.1755 -1.6754
   62SAPC  C211 4909   5.450   2.096   9.263  0.0966 -0.8462 -0.2295
   62SAPC  H11R 4910   5.458   2.188   9.322 -0.3132 -0.9602  0.0090
   62SAPC  C212 4911   5.482   2.096   9.131  0.1165  1.0835 -0.6098
   62SAPC  H12R 4912   5.534   2.181   9.084  1.2983 -1.5905 -4.5874
   62SAPC  C213 4913   5.472   1.979   9.035 -0.5289 -0.9110  1.4812
   62SAPC  H13R 4914   5.507   1.888   9.087 -0.8331 -0.8827  1.7360
   62SAPC  H13S 4915   5.537   1.998   8.946 -2.2032 -2.5089 -0.1696
   62SAPC  C214 4916   5.329   1.963   8.983 -0.1484 -0.4108 -0.0438
   62SAPC  H14R 4917   5.247   1.988   9.053 -1.1067 -1.8712 -0.5909
   62SAPC  C215 4918   5.288   1.919   8.864 -0.1345  0.1665  0.0471
   62SAPC  H15R 4919   5.181   1.920   8.839 -0.0660  1.9952 -0.2748
   62SAPC  C216 4920   5.363   1.868   8.745  0.1576 -0.1925  0.9007
   62SAPC  H16R 4921   5.325   1.768   8.716  0.0657 -0.1152  0.7517
   62SAPC  H16S 4922   5.474   1.861   8.758  0.2136 -1.4428 -0.0214
   62SAPC  C217 4923   5.335   1.937   8.603 -0.3434  0.2142 -0.1441
   62SAPC  H17R 4924   5.377   2.039   8.592  2.0196 -0.4701  1.6366
   62SAPC  H17S 4925   5.225   1.952   8.598 -0.8614 -2.1370  1.9092
   62SAPC  C218 4926   5.374   1.848   8.484  0.1238  0.0959 -0.4778
   62SAPC  H18R 4927   5.325   1.749   8.488 -1.1998  0.6711 -1.5948
   62SAPC  H18S 4928   5.482   1.821   8.482  0.1943  0.3304  0.1494
   62SAPC  C219 4929   5.345   1.904   8.343  0.6544  0.3053  0.7083
   62SAPC  H19R 4930   5.363   1.820   8.273 -1.7221  1.1731 -1.0613
   62SAPC  H19S 4931   5.416   1.982   8.306  0.6317 -0.5575 -1.3060
   62SAPC  C220 4932   5.205   1.952   8.325  0.3269  0.0321  0.2004
   62SAPC  H20R 4933   5.194   1.988   8.221 -2.1423 -0.1513  0.3500
   62SAPC  H20S 4934   5.183   2.045   8.382 -1.0254  0.8846 -1.6309
   62SAPC  H20T 4935   5.128   1.873   8.342  1.1264 -0.7671  0.2048
   62SAPC   C33 4936   5.059   2.356  10.238 -0.4249 -0.7813  0.4910
   62SAPC   H3X 4937   5.015   2.415  10.321  0.9397  2.5468 -0.9733
   62SAPC   H3Y 4938   4.992   2.269  10.219  1.6538 -2.0156 -1.7152
   62SAPC   C34 4939   5.061   2.449  10.111  0.0546  0.7741  0.0467
   62SAPC   H4X 4940   5.133   2.532  10.129 -0.6155  1.1509  1.0394
   62SAPC   H4Y 4941   4.955   2.476  10.092 -0.0396  0.1971 -0.2897
   62SAPC   C35 4942   5.099   2.361   9.984  0.0555 -0.1913 -0.1446
   62SAPC   H5X 4943   5.028   2.276   9.974 -1.7432  1.1773  0.3652
   62SAPC   H5Y 4944   5.200   2.318   9.999 -0.8418 -2.1994  0.4756
   62SAPC   C36 4945   5.093   2.445   9.852 -0.0824 -0.0405 -0.3587
   62SAPC   H6X 4946   5.157   2.536   9.859 -0.3563  0.0581  1.4360
   62SAPC   H6Y 4947   4.989   2.482   9.850  0.1954  0.7802 -0.0350
   62SAPC   C37 4948   5.128   2.357   9.739  0.0191 -0.3458 -0.3514
   62SAPC   H7X 4949   5.057   2.272   9.735 -0.4911  0.0450  0.2684
   62SAPC   H7Y 4950   5.228   2.310   9.749  0.2859  0.3471  0.3648
   62SAPC   C38 4951   5.114   2.430   9.603  0.3846 -0.8638  0.1650
   62SAPC   H8X 4952   5.192   2.508   9.613 -1.1379  0.5988  1.3528
   62SAPC   H8Y 4953   5.019   2.488   9.599 -0.9163 -2.9467 -0.2411
   62SAPC   C39 4954   5.129   2.344   9.483 -0.8664 -0.9980 -0.0885
   62SAPC   H9X 4955   5.073   2.249   9.498 -0.0904 -1.2553  1.3747
   62SAPC   H9Y 4956   5.235   2.309   9.481  0.3789  1.9385  3.2292
   62SAPC  C310 4957   5.094   2.414   9.356  0.1582  0.1688  0.4755
   62SAPC  H10X 4958   5.158   2.506   9.353 -0.7476  0.8110  0.3693
   62SAPC  H10Y 4959   4.990   2.453   9.359 -0.7958 -1.9384 -1.9466
   62SAPC  C311 4960   5.126   2.325   9.233 -0.0712  0.0638  0.6321
   62SAPC  H11X 4961   5.056   2.240   9.245 -0.7261  0.7394  1.9147
   62SAPC  H11Y 4962   5.229   2.284   9.238 -0.8570 -2.0333  0.5848
   62SAPC  C312 4963   5.095   2.408   9.108 -0.3631 -0.8032 -0.5576
   62SAPC  H12X 4964   5.158   2.500   9.111  2.5971 -2.7250  0.8209
   62SAPC  H12Y 4965   4.987   2.433   9.121  0.1351  0.0365  2.9060
   62SAPC  C313 4966   5.114   2.331   8.976 -0.0313 -0.0678  0.2295
   62SAPC  H13X 4967   5.035   2.255   8.962  0.6674 -0.7455 -0.1113
   62SAPC  H13Y 4968   5.210   2.275   8.979 -0.2658 -0.4765  0.0448
   62SAPC  C314 4969   5.108   2.421   8.856 -0.1968 -0.1170  0.2040
   62SAPC  H14X 4970   5.199   2.484   8.858  0.1407 -0.5397 -0.9875
   62SAPC  H14Y 4971   5.010   2.472   8.863  1.4958  3.1592  2.4286
   62SAPC  C315 4972   5.100   2.342   8.721  0.4463 -0.3255  1.0161
   62SAPC  H15X 4973   5.073   2.408   8.637  0.3658 -0.7022  0.7434
   62SAPC  H15Y 4974   5.016   2.269   8.730  0.3572 -0.2442  0.8382
   62SAPC  C316 4975   5.219   2.250   8.682 -0.7298 -0.8560  0.3166
   62SAPC  H16X 4976   5.193   2.187   8.594 -0.4917  1.0313 -1.1865
   62SAPC  H16Y 4977   5.251   2.187   8.767  2.6562  0.5883  0.2542
   62SAPC  C317 4978   5.346   2.331   8.640 -0.4034  0.5866 -0.4433
   62SAPC  H17X 4979   5.427   2.257   8.624 -1.3948 -0.3926 -1.0724
   62SAPC  H17Y 4980   5.376   2.390   8.729 -0.6018 -0.6572  0.4767
   62SAPC  C318 4981   5.326   2.428   8.522 -0.5827 -0.4794  0.1394
   62SAPC  H18X 4982   5.394   2.515   8.533 -0.9215 -0.0568 -0.9811
   62SAPC  H18Y 4983   5.220   2.455   8.509 -0.3617  0.9832  1.1477
   62SAPC  H18Z 4984   5.352   2.373   8.429 -2.2204 -1.2033  0.0893
   63SAPC     N 4985   1.599   0.247   6.540  0.3539 -0.1240 -0.3640
   63SAPC   C12 4986   1.731   0.217   6.610  0.0496 -0.5121 -0.1587
   63SAPC  H12A 4987   1.730   0.238   6.716  2.5991 -1.4567  0.1209
   63SAPC  H12B 4988   1.799   0.284   6.561 -1.0820  1.0058  0.2764
   63SAPC   C13 4989   1.501   0.169   6.602 -0.4075  0.1403  0.3364
   63SAPC  H13A 4990   1.503   0.183   6.709  0.8000  1.7261  0.1455
   63SAPC  H13B 4991   1.405   0.196   6.563 -0.4822  1.3547  1.3090
   63SAPC  H13C 4992   1.514   0.063   6.582  0.0153  0.5782 -2.0176
   63SAPC   C14 4993   1.563   0.386   6.540  0.0816  0.3637  0.0956
   63SAPC  H14A 4994   1.472   0.391   6.481 -0.6745  1.3810  1.2929
   63SAPC  H14B 4995   1.521   0.408   6.637 -1.4049 -0.1593 -0.3914
   63SAPC  H14C 4996   1.642   0.448   6.501  1.1539  0.7133  2.6198
   63SAPC   C15 4997   1.604   0.202   6.393  0.9537  0.7965  0.7810
   63SAPC  H15A 4998   1.645   0.102   6.395  0.8011  0.7379  2.8575
   63SAPC  H15B 4999   1.512   0.188   6.338  1.5388 -1.1486  0.2093
   63SAPC  H15C 5000   1.664   0.269   6.332  0.3007 -0.3789 -1.2602
   63SAPC   C11 5001   1.785   0.070   6.603 -0.8955  0.8966 -0.1580
   63SAPC  H11A 5002   1.711  -0.004   6.640  0.0367 -0.8151 -1.5129
   63SAPC  H11B 5003   1.867   0.079   6.678 -1.1238 -1.8083  0.5068
   63SAPC     P 5004   1.967   0.046   6.400  0.3356  0.2969  0.3875
   63SAPC   O13 5005   1.950   0.004   6.257 -0.1743 -0.0065 -0.4231
   63SAPC   O14 5006   2.018   0.181   6.421  0.1709  0.2354  0.6205
   63SAPC   O12 5007   1.824   0.033   6.473  0.0711 -0.0991 -0.1023
   63SAPC   O11 5008   2.061  -0.055   6.476  0.5822  0.4587  0.1092
   63SAPC    C1 5009   2.011  -0.186   6.501 -0.2141  0.3533 -0.4442
   63SAPC    HA 5010   1.915  -0.210   6.451  0.9591 -3.9280 -1.0443
   63SAPC    HB 5011   2.075  -0.267   6.460 -0.9296 -0.1415 -0.5936
   63SAPC    C2 5012   1.973  -0.216   6.652 -0.3716 -0.3251  0.8181
   63SAPC    HS 5013   1.915  -0.131   6.693 -0.1903 -1.3828  3.4156
   63SAPC   O21 5014   2.096  -0.229   6.723  0.6104  0.4252 -0.0687
   63SAPC   C21 5015   2.116  -0.150   6.823  0.0845  0.5730  0.2203
   63SAPC   O22 5016   2.053  -0.056   6.868 -0.1394  0.0589 -0.0179
   63SAPC   C22 5017   2.256  -0.198   6.889  0.5063 -0.5389 -0.5701
   63SAPC   H2R 5018   2.232  -0.298   6.929 -0.3038  0.9967  3.2134
   63SAPC   H2S 5019   2.344  -0.192   6.821  0.9713  0.0916  0.0671
   63SAPC    C3 5020   1.894  -0.356   6.665 -0.1501  0.8270  0.2918
   63SAPC    HX 5021   1.972  -0.426   6.629  1.1952  0.9840  2.6819
   63SAPC    HY 5022   1.803  -0.381   6.606  0.8812 -3.0868  0.0850
   63SAPC   O31 5023   1.875  -0.392   6.799 -0.4315 -0.3539  0.0731
   63SAPC   C31 5024   1.755  -0.380   6.844 -0.3958  1.0527  0.0587
   63SAPC   O32 5025   1.652  -0.354   6.781  0.1988 -0.2963 -0.1476
   63SAPC   C32 5026   1.753  -0.450   6.980 -0.0879 -0.7672  0.1018
   63SAPC   H2X 5027   1.762  -0.561   6.970  1.6719 -0.7273  0.9155
   63SAPC   H2Y 5028   1.656  -0.420   7.025  0.2354  2.0380 -0.8829
   63SAPC   C23 5029   2.292  -0.125   7.027 -0.3301 -0.3520  0.0154
   63SAPC   H3R 5030   2.204  -0.116   7.095  2.1653 -2.0973  3.8599
   63SAPC   H3S 5031   2.310  -0.019   6.999  1.0136 -0.9980 -1.7667
   63SAPC   C24 5032   2.402  -0.196   7.106 -0.4672  0.9077 -0.4351
   63SAPC   H4R 5033   2.412  -0.120   7.187 -1.1213 -1.5304  2.0698
   63SAPC   H4S 5034   2.493  -0.196   7.042  0.7702 -1.3797  1.1952
   63SAPC   C25 5035   2.349  -0.326   7.164 -0.1783 -0.0084 -0.1944
   63SAPC   H5R 5036   2.318  -0.393   7.082 -0.1209  0.7529 -0.8524
   63SAPC   C26 5037   2.334  -0.362   7.297 -0.3616  0.4815 -0.2272
   63SAPC   H6R 5038   2.305  -0.467   7.315 -0.3753  0.7754  1.7653
   63SAPC   C27 5039   2.379  -0.283   7.417  0.3590 -0.0832 -0.2870
   63SAPC   H7R 5040   2.387  -0.355   7.502  0.7901  0.4449  0.1280
   63SAPC   H7S 5041   2.312  -0.198   7.440  0.0493 -0.4745  0.2911
   63SAPC   C28 5042   2.523  -0.222   7.418  0.0573  1.5081 -0.3740
   63SAPC   H8R 5043   2.582  -0.243   7.328 -0.4082 -2.2423  0.0346
   63SAPC   C29 5044   2.578  -0.149   7.518 -0.4815 -0.1408 -0.1523
   63SAPC   H9R 5045   2.683  -0.117   7.503 -0.3591 -0.6243 -0.3675
   63SAPC  C210 5046   2.503  -0.104   7.637  0.8402 -0.6057 -0.3747
   63SAPC  H10R 5047   2.395  -0.126   7.626  0.6642  0.5767 -1.1708
   63SAPC  H10S 5048   2.508   0.005   7.653  1.1200 -0.6784  0.0484
   63SAPC  C211 5049   2.526  -0.177   7.769 -0.1217 -0.3034  1.2760
   63SAPC  H11R 5050   2.492  -0.281   7.769 -2.5339  0.4049 -0.3159
   63SAPC  C212 5051   2.598  -0.124   7.869  0.1365  0.2828  0.2462
   63SAPC  H12R 5052   2.614  -0.192   7.953  0.4365  2.0498  1.6844
   63SAPC  C213 5053   2.653   0.012   7.877 -0.7794  0.2546 -0.0186
   63SAPC  H13R 5054   2.575   0.091   7.874  0.7159  1.7687 -0.9756
   63SAPC  H13S 5055   2.710   0.032   7.784 -0.4306  1.2440  0.3846
   63SAPC  C214 5056   2.751   0.062   7.980  0.4450  0.3999  0.1651
   63SAPC  H14R 5057   2.852   0.040   7.945  0.6023 -1.3787  1.6370
   63SAPC  C215 5058   2.724   0.115   8.098 -0.1012  0.2333 -0.3937
   63SAPC  H15R 5059   2.810   0.159   8.150  1.7528 -2.8125 -0.6425
   63SAPC  C216 5060   2.586   0.123   8.167 -0.2282 -0.2051  0.1582
   63SAPC  H16R 5061   2.505   0.072   8.111 -3.3190  1.9892  2.2583
   63SAPC  H16S 5062   2.551   0.229   8.169  2.1906  0.7195 -1.9129
   63SAPC  C217 5063   2.571   0.064   8.307 -0.4685  0.3712 -0.0453
   63SAPC  H17R 5064   2.613  -0.038   8.300 -0.0824  0.4468  0.9925
   63SAPC  H17S 5065   2.464   0.051   8.333 -0.1605 -0.5271  0.8053
   63SAPC  C218 5066   2.637   0.137   8.423  0.0814 -0.3334  0.1291
   63SAPC  H18R 5067   2.743   0.154   8.395 -0.2535 -0.8423 -1.5158
   63SAPC  H18S 5068   2.634   0.056   8.500 -2.7605 -0.0520  0.4112
   63SAPC  C219 5069   2.574   0.251   8.495 -0.0883 -0.5407 -0.2212
   63SAPC  H19R 5070   2.624   0.267   8.593  0.2839  1.9656 -0.7507
   63SAPC  H19S 5071   2.468   0.220   8.507 -0.0471 -0.7114 -0.3041
   63SAPC  C220 5072   2.590   0.395   8.430 -0.1675  0.5589  0.6610
   63SAPC  H20R 5073   2.564   0.470   8.508  0.4124  1.9626 -0.4447
   63SAPC  H20S 5074   2.520   0.407   8.345  1.1091  3.5803 -0.0750
   63SAPC  H20T 5075   2.696   0.417   8.409  0.0829  1.0916  2.3145
   63SAPC   C33 5076   1.856  -0.407   7.090 -0.1858 -0.7045 -0.3232
   63SAPC   H3X 5077   1.866  -0.296   7.097 -0.2874 -0.7607  1.1390
   63SAPC   H3Y 5078   1.960  -0.437   7.066 -0.2257 -2.2336  1.1979
   63SAPC   C34 5079   1.818  -0.471   7.217 -0.3950 -0.6355  0.1377
   63SAPC   H4X 5080   1.802  -0.579   7.199  0.7400 -0.6333 -0.9438
   63SAPC   H4Y 5081   1.717  -0.441   7.253 -1.5659 -1.9089 -1.8778
   63SAPC   C35 5082   1.920  -0.463   7.331  0.4370  0.0606  0.2615
   63SAPC   H5X 5083   2.007  -0.411   7.286  0.1520  1.0724  0.8463
   63SAPC   H5Y 5084   1.934  -0.568   7.364 -0.2818 -0.2480 -0.3892
   63SAPC   C36 5085   1.870  -0.375   7.452 -0.1945  0.4135 -0.4948
   63SAPC   H6X 5086   1.771  -0.412   7.487  0.3157 -0.3226  0.2013
   63SAPC   H6Y 5087   1.838  -0.281   7.401 -3.6174 -0.4252 -0.1361
   63SAPC   C37 5088   1.975  -0.342   7.557  0.1429  0.7287  0.8979
   63SAPC   H7X 5089   1.941  -0.255   7.617 -2.1396  1.3620 -1.1211
   63SAPC   H7Y 5090   2.071  -0.313   7.509  1.2050 -2.2828  0.9665
   63SAPC   C38 5091   2.006  -0.463   7.646 -0.0676 -0.3666  0.1450
   63SAPC   H8X 5092   2.015  -0.545   7.573 -1.5124  0.7831 -1.3925
   63SAPC   H8Y 5093   1.919  -0.481   7.712 -1.0417 -1.4294 -1.3874
   63SAPC   C39 5094   2.139  -0.446   7.731  0.1853 -0.0171  0.6970
   63SAPC   H9X 5095   2.220  -0.398   7.672  2.1610 -1.8366  1.7573
   63SAPC   H9Y 5096   2.184  -0.541   7.767  1.7575  0.4377  0.0252
   63SAPC  C310 5097   2.107  -0.366   7.858 -0.2611  0.2631 -0.0489
   63SAPC  H10X 5098   2.026  -0.416   7.915  1.1671 -1.0745  0.9040
   63SAPC  H10Y 5099   2.076  -0.264   7.829 -0.4447 -0.6267 -3.5157
   63SAPC  C311 5100   2.238  -0.348   7.948 -0.0751 -0.2574  0.4130
   63SAPC  H11X 5101   2.321  -0.327   7.877 -1.0248 -0.3412 -0.7496
   63SAPC  H11Y 5102   2.252  -0.447   7.997 -4.2147 -0.6087  1.1856
   63SAPC  C312 5103   2.217  -0.247   8.054 -0.4133 -0.1831 -0.4893
   63SAPC  H12X 5104   2.188  -0.148   8.011 -1.7621  1.1154  3.0698
   63SAPC  H12Y 5105   2.324  -0.233   8.081  0.5145 -1.6137 -3.0237
   63SAPC  C313 5106   2.125  -0.282   8.168 -0.1704 -0.2296 -0.8889
   63SAPC  H13X 5107   2.181  -0.370   8.204  0.7016 -0.1348 -1.9435
   63SAPC  H13Y 5108   2.028  -0.323   8.132 -0.8368 -0.0087  0.5753
   63SAPC  C314 5109   2.103  -0.184   8.280 -0.1880  0.3543 -0.1813
   63SAPC  H14X 5110   2.065  -0.084   8.250 -2.9032 -0.4646  0.2776
   63SAPC  H14Y 5111   2.209  -0.160   8.302 -0.8212  1.2151  2.2600
   63SAPC  C315 5112   2.031  -0.241   8.403  0.7221 -0.5820 -0.1859
   63SAPC  H15X 5113   2.083  -0.328   8.448  2.5123 -0.0805 -1.1713
   63SAPC  H15Y 5114   1.927  -0.266   8.372  1.0018 -0.0194 -1.6990
   63SAPC  C316 5115   2.026  -0.133   8.513  0.8587  0.2206  0.5323
   63SAPC  H16X 5116   1.999  -0.036   8.467 -0.3179  0.3401  1.4283
   63SAPC  H16Y 5117   2.114  -0.109   8.576 -1.2032  1.2562  3.1537
   63SAPC  C317 5118   1.929  -0.168   8.624 -0.3399  0.2114  0.9095
   63SAPC  H17X 5119   1.823  -0.180   8.593 -0.2326 -1.9774  1.2448
   63SAPC  H17Y 5120   1.937  -0.083   8.695  0.1082  0.5886  0.4164
   63SAPC  C318 5121   1.961  -0.296   8.703 -0.2176 -0.6394  0.4749
   63SAPC  H18X 5122   2.070  -0.291   8.723 -0.1872  0.6371  0.0817
   63SAPC  H18Y 5123   1.940  -0.385   8.639  1.4009  2.3397 -4.8014
   63SAPC  H18Z 5124   1.912  -0.290   8.802 -1.3552  0.1845 -0.1136
   64SAPC     N 5125   2.826   2.873   6.219 -0.4517 -0.1317 -0.2670
   64SAPC   C12 5126   2.946   2.808   6.296  0.6242 -0.3318 -0.3495
   64SAPC  H12A 5127   2.971   2.887   6.366 -3.1041  2.1943 -1.5411
   64SAPC  H12B 5128   3.027   2.797   6.226 -0.1052  0.0373 -1.2851
   64SAPC   C13 5129   2.706   2.874   6.303  0.4096  0.3788 -0.1806
   64SAPC  H13A 5130   2.656   2.778   6.301 -2.1524  1.6359 -1.5250
   64SAPC  H13B 5131   2.726   2.904   6.405 -1.9149 -3.2897  1.5814
   64SAPC  H13C 5132   2.624   2.932   6.264 -2.3379 -2.1881  1.4144
   64SAPC   C14 5133   2.860   3.014   6.174  0.1510  0.7308 -0.4728
   64SAPC  H14A 5134   2.769   3.044   6.122 -2.0345 -2.5067  1.1808
   64SAPC  H14B 5135   2.869   3.083   6.256  1.9055 -0.6440  0.5562
   64SAPC  H14C 5136   2.947   3.015   6.109 -0.6328  1.2694 -1.5639
   64SAPC   C15 5137   2.796   2.789   6.100 -0.5972  0.6021  0.5570
   64SAPC  H15A 5138   2.847   2.821   6.010  1.2893  2.3602  2.1646
   64SAPC  H15B 5139   2.823   2.686   6.115 -2.3543 -0.0849 -0.5697
   64SAPC  H15C 5140   2.694   2.812   6.071 -0.3700  0.8593 -0.0776
   64SAPC   C11 5141   2.927   2.669   6.368 -0.5367 -0.6464  0.4798
   64SAPC  H11A 5142   2.829   2.672   6.422 -0.8135  0.7845 -0.0469
   64SAPC  H11B 5143   3.008   2.642   6.439 -1.2017 -0.0059  1.5161
   64SAPC     P 5144   3.032   2.477   6.223  0.3517 -0.2012  0.3241
   64SAPC   O13 5145   2.987   2.395   6.104 -0.0554 -0.4074  0.1860
   64SAPC   O14 5146   3.148   2.567   6.197  0.0205 -0.3193 -1.0523
   64SAPC   O12 5147   2.907   2.567   6.272 -0.3900 -0.3981  0.5272
   64SAPC   O11 5148   3.053   2.390   6.350  0.5540 -0.5395  0.3800
   64SAPC    C1 5149   2.950   2.304   6.409  0.7847 -0.8389  0.3401
   64SAPC    HA 5150   2.851   2.354   6.402  0.4565 -1.3711  1.0774
   64SAPC    HB 5151   2.936   2.204   6.363 -0.2130  0.7592 -3.2816
   64SAPC    C2 5152   2.978   2.289   6.566 -0.1483 -0.0777 -0.2254
   64SAPC    HS 5153   2.968   2.391   6.611 -0.8095 -0.6011  0.8785
   64SAPC   O21 5154   3.114   2.244   6.591 -0.0154  0.1429 -0.0437
   64SAPC   C21 5155   3.157   2.260   6.711  0.2368  0.0304  0.5783
   64SAPC   O22 5156   3.104   2.318   6.802 -0.2231  0.4501  0.5886
   64SAPC   C22 5157   3.281   2.180   6.723 -0.6846 -0.0902 -0.0170
   64SAPC   H2R 5158   3.337   2.190   6.628 -0.8048 -1.1522 -0.2209
   64SAPC   H2S 5159   3.351   2.214   6.802 -1.8594  1.6483  0.3268
   64SAPC    C3 5160   2.878   2.198   6.639  0.6209  0.6744  0.4972
   64SAPC    HX 5161   2.920   2.098   6.615 -1.1685 -0.2554  1.0552
   64SAPC    HY 5162   2.776   2.201   6.595  0.1019  3.6811  1.6748
   64SAPC   O31 5163   2.872   2.216   6.778 -0.4611  0.5848  0.0224
   64SAPC   C31 5164   2.825   2.334   6.821  0.3348  0.2655  0.2962
   64SAPC   O32 5165   2.778   2.421   6.750  0.1915 -0.2813 -0.0934
   64SAPC   C32 5166   2.843   2.350   6.969 -0.2847  0.3085  0.2973
   64SAPC   H2X 5167   2.936   2.408   6.985 -0.4394  0.5135  0.4644
   64SAPC   H2Y 5168   2.858   2.246   7.007 -1.4300 -0.5538 -1.4598
   64SAPC   C23 5169   3.250   2.025   6.721 -0.0492  0.2878  0.3659
   64SAPC   H3R 5170   3.344   1.973   6.692  0.0280  0.0816  0.9894
   64SAPC   H3S 5171   3.168   2.000   6.649 -0.9531 -1.4288  1.9063
   64SAPC   C24 5172   3.206   1.970   6.856  0.3056  0.2051  0.4944
   64SAPC   H4R 5173   3.191   1.861   6.843  4.4619 -0.4200 -0.2515
   64SAPC   H4S 5174   3.105   2.012   6.877  0.1845 -0.9700  2.5139
   64SAPC   C25 5175   3.302   1.991   6.972  0.5892 -0.0439 -0.2385
   64SAPC   H5R 5176   3.408   1.976   6.946  0.3976 -0.3002 -0.8956
   64SAPC   C26 5177   3.267   2.025   7.100  0.1516  0.4783  0.3656
   64SAPC   H6R 5178   3.352   2.034   7.169 -0.1471  0.1366  0.7856
   64SAPC   C27 5179   3.134   2.054   7.169 -0.2431  0.9931 -0.1318
   64SAPC   H7R 5180   3.058   2.002   7.106  1.5974 -2.4394  0.2719
   64SAPC   H7S 5181   3.117   2.163   7.161  0.5928  1.0605 -1.2268
   64SAPC   C28 5182   3.118   2.002   7.308 -0.6481 -0.5801  0.3406
   64SAPC   H8R 5183   3.209   1.996   7.370 -0.5143 -1.8123  0.0437
   64SAPC   C29 5184   3.001   1.956   7.359  0.3766 -0.2130  0.0259
   64SAPC   H9R 5185   3.000   1.916   7.462 -0.1033  2.7187  1.2426
   64SAPC  C210 5186   2.859   1.960   7.299 -0.3203 -0.1047  0.2133
   64SAPC  H10R 5187   2.849   2.026   7.209  2.0972  0.8015  0.5210
   64SAPC  H10S 5188   2.795   2.012   7.373 -2.4091 -0.3939 -1.3005
   64SAPC  C211 5189   2.796   1.824   7.274 -0.7286 -0.6581  0.0624
   64SAPC  H11R 5190   2.838   1.738   7.329 -1.2447 -0.6059  0.5470
   64SAPC  C212 5191   2.700   1.794   7.184  0.5028  0.5123 -0.0572
   64SAPC  H12R 5192   2.663   1.691   7.174 -0.0156  0.6141  0.7277
   64SAPC  C213 5193   2.634   1.894   7.091 -0.7302  0.2084 -0.1885
   64SAPC  H13R 5194   2.720   1.935   7.035 -2.0793 -0.2457 -2.7698
   64SAPC  H13S 5195   2.589   1.975   7.153 -0.8125 -0.8086  1.1147
   64SAPC  C214 5196   2.535   1.829   6.998  0.0632  0.4437  0.2740
   64SAPC  H14R 5197   2.583   1.757   6.930 -0.9671 -0.6832  0.7122
   64SAPC  C215 5198   2.401   1.843   6.988  0.0933  0.5229  0.3225
   64SAPC  H15R 5199   2.341   1.791   6.912  1.4960 -1.8791  0.7523
   64SAPC  C216 5200   2.320   1.941   7.072 -0.3624 -0.3340  0.7475
   64SAPC  H16R 5201   2.292   2.017   6.997 -0.4297 -1.0879  0.0009
   64SAPC  H16S 5202   2.372   2.009   7.143 -0.1366  1.2666 -0.8709
   64SAPC  C217 5203   2.195   1.887   7.146  0.3579 -0.0610 -0.3901
   64SAPC  H17R 5204   2.122   1.825   7.091 -0.3205 -0.0095  0.4340
   64SAPC  H17S 5205   2.138   1.979   7.171  2.4976  1.0939  0.5365
   64SAPC  C218 5206   2.222   1.812   7.281  0.0253 -0.0072 -0.1485
   64SAPC  H18R 5207   2.144   1.823   7.360  0.5596  1.2829  0.2149
   64SAPC  H18S 5208   2.318   1.849   7.321  1.7694 -1.6740 -2.5014
   64SAPC  C219 5209   2.240   1.660   7.250  0.0252 -0.3873 -0.1581
   64SAPC  H19R 5210   2.305   1.641   7.161 -1.8624 -0.5634 -1.5681
   64SAPC  H19S 5211   2.146   1.612   7.216  0.4346 -0.4192 -1.3077
   64SAPC  C220 5212   2.290   1.572   7.370 -0.0076  0.1296  0.3268
   64SAPC  H20R 5213   2.276   1.465   7.346  1.1123  0.8106 -4.3971
   64SAPC  H20S 5214   2.248   1.603   7.468  1.0190 -2.6814  1.7716
   64SAPC  H20T 5215   2.398   1.596   7.379 -0.0394  0.3595  0.1017
   64SAPC   C33 5216   2.719   2.413   7.047 -0.4614  0.1040 -0.2104
   64SAPC   H3X 5217   2.639   2.340   7.024 -1.4741  1.0015  0.4024
   64SAPC   H3Y 5218   2.682   2.502   6.993 -1.0948 -0.1504 -0.2029
   64SAPC   C34 5219   2.753   2.444   7.198 -0.1006  0.2275  1.1618
   64SAPC   H4X 5220   2.847   2.503   7.203 -0.2378  0.6832 -0.7557
   64SAPC   H4Y 5221   2.764   2.346   7.249  1.6407 -1.0203 -1.4059
   64SAPC   C35 5222   2.644   2.526   7.274 -0.1565  0.2962 -0.1672
   64SAPC   H5X 5223   2.547   2.481   7.242 -0.1671  0.6626 -0.6632
   64SAPC   H5Y 5224   2.641   2.633   7.245  1.6127  0.5719  0.5690
   64SAPC   C36 5225   2.642   2.506   7.424 -0.5235 -0.0883  0.8641
   64SAPC   H6X 5226   2.728   2.558   7.473 -0.1430 -1.0930  1.2807
   64SAPC   H6Y 5227   2.655   2.397   7.442  1.0718 -0.5732 -2.4131
   64SAPC   C37 5228   2.508   2.546   7.482  0.0825 -0.4627 -0.1936
   64SAPC   H7X 5229   2.422   2.521   7.416 -0.0935  0.1008 -0.1819
   64SAPC   H7Y 5230   2.512   2.657   7.481  2.0488 -0.4790  0.6624
   64SAPC   C38 5231   2.479   2.497   7.625 -0.4179 -0.1714 -0.5026
   64SAPC   H8X 5232   2.561   2.525   7.695 -0.7712 -1.4461  0.4728
   64SAPC   H8Y 5233   2.473   2.386   7.620  1.7625 -0.3291 -0.4684
   64SAPC   C39 5234   2.360   2.564   7.688  0.1247 -0.0800  0.8440
   64SAPC   H9X 5235   2.277   2.545   7.616  2.2581  0.8512 -2.0586
   64SAPC   H9Y 5236   2.378   2.672   7.706 -1.7063  0.4362 -0.1778
   64SAPC  C310 5237   2.332   2.497   7.826  0.4248 -0.1967  0.0897
   64SAPC  H10X 5238   2.312   2.390   7.805  2.3600 -0.2492 -1.7696
   64SAPC  H10Y 5239   2.240   2.541   7.870  1.8452  1.4504  1.5855
   64SAPC  C311 5240   2.448   2.502   7.939 -0.1863 -0.2372  0.3863
   64SAPC  H11X 5241   2.487   2.605   7.932 -0.0127 -0.3926 -1.2723
   64SAPC  H11Y 5242   2.529   2.432   7.908  2.3033  2.4662  0.3917
   64SAPC  C312 5243   2.390   2.492   8.077  0.3142 -0.6423 -0.3781
   64SAPC  H12X 5244   2.308   2.563   8.099 -0.3381 -1.8933  1.4316
   64SAPC  H12Y 5245   2.468   2.542   8.138 -2.2019  2.4062  0.5700
   64SAPC  C313 5246   2.354   2.351   8.114 -0.1929 -0.2292 -1.0281
   64SAPC  H13X 5247   2.428   2.288   8.061 -1.1527 -2.2013 -0.1310
   64SAPC  H13Y 5248   2.260   2.324   8.060 -0.0484  0.8327 -1.8379
   64SAPC  C314 5249   2.376   2.304   8.262 -0.1577 -0.2497 -0.8710
   64SAPC  H14X 5250   2.478   2.333   8.295 -0.8994  0.2803  1.0574
   64SAPC  H14Y 5251   2.370   2.193   8.264 -1.5203 -0.2034 -1.0525
   64SAPC  C315 5252   2.276   2.368   8.360  0.5414 -0.5020 -0.0849
   64SAPC  H15X 5253   2.181   2.311   8.375 -0.9437  2.0565  0.7779
   64SAPC  H15Y 5254   2.238   2.463   8.317 -0.2108 -1.2278 -1.0819
   64SAPC  C316 5255   2.331   2.407   8.499  0.0127 -0.0324  0.1517
   64SAPC  H16X 5256   2.246   2.458   8.549 -0.7174  0.6308 -1.6948
   64SAPC  H16Y 5257   2.417   2.478   8.495  0.7623 -0.8235  1.3735
   64SAPC  C317 5258   2.363   2.279   8.585  0.2491  0.4941  0.1384
   64SAPC  H17X 5259   2.461   2.235   8.555 -0.4227 -0.6506 -0.4318
   64SAPC  H17Y 5260   2.281   2.209   8.560  1.5617 -0.2613 -2.4603
   64SAPC  C318 5261   2.343   2.300   8.740  0.3595 -0.1980  0.6790
   64SAPC  H18X 5262   2.445   2.308   8.783 -0.6181  1.6513  2.8744
   64SAPC  H18Y 5263   2.282   2.215   8.777  0.4917  0.3816  2.2971
   64SAPC  H18Z 5264   2.297   2.400   8.758  1.4040  0.6736 -1.1622
   65SAPC     N 5265   4.204   3.598   5.745 -0.3589  0.7053  0.0804
   65SAPC   C12 5266   4.352   3.635   5.727  0.5346 -0.2216 -0.2009
   65SAPC  H12A 5267   4.354   3.742   5.741 -3.3102 -0.4306  4.4925
   65SAPC  H12B 5268   4.385   3.587   5.636  0.3862  1.8699 -1.4194
   65SAPC   C13 5269   4.136   3.657   5.871  0.2648  0.3748 -0.2168
   65SAPC  H13A 5270   4.123   3.763   5.858  0.2233  0.1406 -2.3525
   65SAPC  H13B 5271   4.035   3.623   5.888  0.6477 -3.0541 -3.5820
   65SAPC  H13C 5272   4.203   3.635   5.954  0.7258 -1.5024 -1.0353
   65SAPC   C14 5273   4.125   3.645   5.624 -0.4070 -0.1926 -0.2571
   65SAPC  H14A 5274   4.135   3.750   5.601 -0.4520 -0.2604 -0.5889
   65SAPC  H14B 5275   4.172   3.599   5.538 -0.0192 -2.1207  0.9283
   65SAPC  H14C 5276   4.025   3.607   5.631 -1.1676  1.2787 -2.0534
   65SAPC   C15 5277   4.199   3.450   5.751 -0.0853  1.1419  0.6522
   65SAPC  H15A 5278   4.249   3.417   5.841  0.7935 -0.7293 -0.4567
   65SAPC  H15B 5279   4.096   3.418   5.754 -0.1837  1.3277 -0.3913
   65SAPC  H15C 5280   4.244   3.396   5.670 -0.2168 -0.3606  1.5401
   65SAPC   C11 5281   4.445   3.594   5.837  0.3012 -0.4439 -0.3447
   65SAPC  H11A 5282   4.552   3.608   5.811  0.3662 -1.4117 -0.6326
   65SAPC  H11B 5283   4.451   3.485   5.859 -1.6495 -0.9221 -1.8415
   65SAPC     P 5284   4.480   3.800   5.993 -0.3862 -0.1724  0.1451
   65SAPC   O13 5285   4.622   3.810   5.935 -0.5571  0.5357 -0.0260
   65SAPC   O14 5286   4.389   3.915   5.962  0.3849  0.5216  0.4563
   65SAPC   O12 5287   4.405   3.667   5.956  0.1036  0.2170 -0.1862
   65SAPC   O11 5288   4.496   3.784   6.150 -0.0102  0.4986  0.1160
   65SAPC    C1 5289   4.373   3.803   6.227 -0.7259  0.4145 -0.1547
   65SAPC    HA 5290   4.328   3.902   6.204  0.5230  1.0424  0.0643
   65SAPC    HB 5291   4.304   3.718   6.207 -0.7266  0.5962 -0.9497
   65SAPC    C2 5292   4.395   3.787   6.388  0.2478 -0.1115  1.4431
   65SAPC    HS 5293   4.318   3.834   6.453 -0.5988 -1.3009  1.3288
   65SAPC   O21 5294   4.524   3.831   6.418 -0.3366  0.9807  0.0929
   65SAPC   C21 5295   4.558   3.959   6.408  0.2003 -0.2839 -0.3575
   65SAPC   O22 5296   4.494   4.048   6.361  0.6689  0.6805 -0.1716
   65SAPC   C22 5297   4.703   3.983   6.445  0.9981 -0.2178  0.2064
   65SAPC   H2R 5298   4.742   3.904   6.512 -1.2924 -3.4480 -1.9661
   65SAPC   H2S 5299   4.755   3.968   6.348  0.6672  1.2950 -0.2291
   65SAPC    C3 5300   4.396   3.644   6.430  0.1057 -0.4873 -0.8140
   65SAPC    HX 5301   4.457   3.579   6.362  0.0179 -1.3685 -0.0717
   65SAPC    HY 5302   4.291   3.608   6.422 -0.8545  2.1072 -0.7518
   65SAPC   O31 5303   4.432   3.627   6.574 -0.4026 -0.1879 -0.7209
   65SAPC   C31 5304   4.564   3.603   6.589 -0.6077 -0.9746  0.3301
   65SAPC   O32 5305   4.648   3.601   6.500 -0.8659  0.4977 -0.1349
   65SAPC   C32 5306   4.590   3.588   6.735 -0.3732 -0.9761 -0.0512
   65SAPC   H2X 5307   4.507   3.529   6.780 -1.6163  0.5427 -0.2337
   65SAPC   H2Y 5308   4.582   3.685   6.789 -1.0572 -2.4174  2.5746
   65SAPC   C23 5309   4.724   4.123   6.507  0.3391  0.0743  0.4431
   65SAPC   H3R 5310   4.682   4.208   6.449 -0.7357  0.9149  2.3691
   65SAPC   H3S 5311   4.833   4.140   6.495  0.9065 -0.9598  3.3728
   65SAPC   C24 5312   4.701   4.125   6.652 -0.8863  0.0551 -0.4108
   65SAPC   H4R 5313   4.739   4.218   6.700 -0.4277 -0.4611  0.2509
   65SAPC   H4S 5314   4.748   4.036   6.700  3.2366  1.6533 -1.0817
   65SAPC   C25 5315   4.557   4.139   6.678 -0.0155  0.4374  0.0204
   65SAPC   H5R 5316   4.497   4.158   6.588 -0.8740  1.6812  0.8247
   65SAPC   C26 5317   4.501   4.112   6.797 -0.3617 -0.0420 -0.3448
   65SAPC   H6R 5318   4.392   4.122   6.810 -0.4045  1.4289 -1.4637
   65SAPC   C27 5319   4.585   4.074   6.921  0.0319 -0.0302 -0.1330
   65SAPC   H7R 5320   4.537   4.137   6.998 -1.3168 -0.6526 -0.4274
   65SAPC   H7S 5321   4.693   4.098   6.916  0.2402 -0.6761  0.9081
   65SAPC   C28 5322   4.559   3.921   6.941 -1.0759 -0.0049  0.8715
   65SAPC   H8R 5323   4.518   3.871   6.852  1.3795  2.1301 -1.6676
   65SAPC   C29 5324   4.572   3.855   7.067 -0.2093 -0.9372  0.7573
   65SAPC   H9R 5325   4.569   3.746   7.058  2.8332 -1.0797  0.3911
   65SAPC  C210 5326   4.606   3.919   7.202  0.4931  0.1898 -0.0612
   65SAPC  H10R 5327   4.657   4.017   7.183  0.6847  0.0859 -0.0878
   65SAPC  H10S 5328   4.683   3.861   7.258  2.0078  1.5971 -0.5781
   65SAPC  C211 5329   4.489   3.970   7.283  0.3007  0.4009  0.5306
   65SAPC  H11R 5330   4.425   4.039   7.225  1.2743 -1.5166 -3.1443
   65SAPC  C212 5331   4.458   3.930   7.412 -0.5800  0.1675 -0.0338
   65SAPC  H12R 5332   4.365   3.973   7.453 -0.9401  0.6381 -1.2986
   65SAPC  C213 5333   4.530   3.833   7.498  0.3756  0.1530 -0.2250
   65SAPC  H13R 5334   4.613   3.798   7.433 -1.2596  0.5665 -2.6704
   65SAPC  H13S 5335   4.457   3.753   7.524 -0.0843  0.8755  0.7382
   65SAPC  C214 5336   4.597   3.898   7.622 -0.0587 -0.1943 -0.0469
   65SAPC  H14R 5337   4.697   3.940   7.603  0.0807  0.1367  1.3291
   65SAPC  C215 5338   4.550   3.931   7.745  0.1615  0.2091  0.2418
   65SAPC  H15R 5339   4.609   4.000   7.807 -0.2662 -0.0791  0.9843
   65SAPC  C216 5340   4.403   3.898   7.781  0.5236 -0.5396 -0.7110
   65SAPC  H16R 5341   4.423   3.817   7.854 -1.5613  0.5685  1.2204
   65SAPC  H16S 5342   4.331   3.857   7.707  0.2139  0.7417 -1.1497
   65SAPC  C217 5343   4.331   4.012   7.867 -0.4528 -0.6357 -0.2347
   65SAPC  H17R 5344   4.222   3.996   7.848 -1.2703  2.1900  1.4807
   65SAPC  H17S 5345   4.338   4.111   7.819 -2.4227 -0.0695  0.5483
   65SAPC  C218 5346   4.393   4.017   8.009  0.2829  0.4010  0.0731
   65SAPC  H18R 5347   4.478   4.089   8.014  1.9065 -1.4762  0.5306
   65SAPC  H18S 5348   4.423   3.914   8.037 -1.3841  0.2870  1.6930
   65SAPC  C219 5349   4.280   4.076   8.103  0.7032  0.2200  0.7288
   65SAPC  H19R 5350   4.235   4.173   8.071 -0.2711  0.6095  3.0207
   65SAPC  H19S 5351   4.317   4.107   8.204 -0.5470  1.2607  0.8969
   65SAPC  C220 5352   4.166   3.973   8.130 -0.1640 -0.2879  0.2721
   65SAPC  H20R 5353   4.118   3.929   8.039 -2.0395 -1.0228  1.5609
   65SAPC  H20S 5354   4.098   4.009   8.210  1.5400  0.0471  1.6393
   65SAPC  H20T 5355   4.215   3.884   8.176 -1.6152 -1.2560  0.0033
   65SAPC   C33 5356   4.730   3.516   6.752 -0.5799 -0.3518 -0.6289
   65SAPC   H3X 5357   4.813   3.564   6.695  0.9922 -0.7952  1.1873
   65SAPC   H3Y 5358   4.711   3.410   6.723 -0.4759 -0.2612 -1.0379
   65SAPC   C34 5359   4.766   3.500   6.896 -0.1562  0.2908 -0.6292
   65SAPC   H4X 5360   4.676   3.484   6.959  0.1753 -1.6798 -0.5898
   65SAPC   H4Y 5361   4.795   3.600   6.935  0.0817  0.1374 -0.4152
   65SAPC   C35 5362   4.876   3.400   6.926  0.3420 -0.2393  0.0292
   65SAPC   H5X 5363   4.959   3.401   6.853 -0.8564 -3.7579 -1.6475
   65SAPC   H5Y 5364   4.834   3.297   6.914 -1.8772  0.7014 -0.8869
   65SAPC   C36 5365   4.949   3.412   7.059 -0.3918 -0.0776 -0.6872
   65SAPC   H6X 5366   5.016   3.501   7.063 -0.0185 -0.3847  2.6646
   65SAPC   H6Y 5367   5.018   3.325   7.066 -0.1535  0.1281 -0.4270
   65SAPC   C37 5368   4.866   3.424   7.177 -0.0853 -0.0728  0.0807
   65SAPC   H7X 5369   4.807   3.331   7.193  1.3855 -0.8124  1.6828
   65SAPC   H7Y 5370   4.789   3.501   7.158  0.4273  0.0594 -1.5757
   65SAPC   C38 5371   4.927   3.462   7.313 -0.3259 -0.1126  0.1129
   65SAPC   H8X 5372   5.009   3.537   7.312  1.2489 -1.6543  2.9051
   65SAPC   H8Y 5373   4.969   3.372   7.361 -0.7549 -0.5329 -0.2940
   65SAPC   C39 5374   4.813   3.507   7.414  0.5528 -0.1679  0.4575
   65SAPC   H9X 5375   4.720   3.449   7.395  0.4973  0.0713 -0.0211
   65SAPC   H9Y 5376   4.785   3.613   7.392  0.8396 -0.4099 -1.2174
   65SAPC  C310 5377   4.862   3.483   7.555  0.2155  0.2872  0.6392
   65SAPC  H10X 5378   4.957   3.541   7.562  1.8524 -2.0115 -0.9030
   65SAPC  H10Y 5379   4.879   3.373   7.562 -3.4168 -0.5230 -1.2405
   65SAPC  C311 5380   4.768   3.531   7.660  0.1407  0.3788  0.6128
   65SAPC  H11X 5381   4.668   3.485   7.646  0.0710  1.1059 -1.8503
   65SAPC  H11Y 5382   4.745   3.637   7.639 -0.4192  0.0780 -0.3865
   65SAPC  C312 5383   4.812   3.523   7.805 -0.0750  0.7044 -0.3173
   65SAPC  H12X 5384   4.922   3.533   7.810  0.1242 -0.6062 -1.4064
   65SAPC  H12Y 5385   4.769   3.429   7.845  1.6028 -1.2401 -2.7115
   65SAPC  C313 5386   4.742   3.632   7.886 -0.8892  0.7108  0.0192
   65SAPC  H13X 5387   4.633   3.613   7.877 -0.9460  1.1267 -0.2285
   65SAPC  H13Y 5388   4.754   3.732   7.838 -0.4990  1.0442  0.7922
   65SAPC  C314 5389   4.798   3.624   8.031  0.2290  0.2526  0.3306
   65SAPC  H14X 5390   4.906   3.649   8.023  0.7352 -0.8828  2.8080
   65SAPC  H14Y 5391   4.774   3.531   8.085 -2.1324  0.6599  0.0819
   65SAPC  C315 5392   4.734   3.734   8.120 -0.4347 -0.5444 -0.3844
   65SAPC  H15X 5393   4.627   3.703   8.122 -0.4224 -0.6532 -1.2312
   65SAPC  H15Y 5394   4.748   3.843   8.103 -1.7819 -0.1259  0.9303
   65SAPC  C316 5395   4.783   3.727   8.268 -0.4705 -0.1136 -0.2232
   65SAPC  H16X 5396   4.893   3.723   8.256 -0.5246  1.8651 -1.9940
   65SAPC  H16Y 5397   4.742   3.640   8.324 -1.9086  1.4159  1.2082
   65SAPC  C317 5398   4.730   3.855   8.347 -0.6271  0.0272  0.6426
   65SAPC  H17X 5399   4.627   3.882   8.315 -0.7502  1.7545  2.3090
   65SAPC  H17Y 5400   4.796   3.937   8.310 -1.0354 -0.0621 -0.3079
   65SAPC  C318 5401   4.746   3.864   8.496 -0.3204  0.2169 -0.4713
   65SAPC  H18X 5402   4.720   3.767   8.544  0.1225 -0.2639 -1.1880
   65SAPC  H18Y 5403   4.678   3.940   8.540 -0.1751  0.0698  0.0233
   65SAPC  H18Z 5404   4.850   3.899   8.514 -1.0710  2.0130  0.7041
   66SAPC     N 5405   1.976   3.011   6.139 -0.1469  0.0356  0.6095
   66SAPC   C12 5406   1.845   3.045   6.203 -0.6096 -0.3550  0.0991
   66SAPC  H12A 5407   1.871   3.110   6.285 -1.9141 -2.5001  2.3228
   66SAPC  H12B 5408   1.804   2.954   6.244  0.2875 -2.6490 -3.5795
   66SAPC   C13 5409   1.948   2.897   6.048 -0.4615 -0.9317  0.2757
   66SAPC  H13A 5410   1.948   2.799   6.092  0.7457  0.4401  3.6855
   66SAPC  H13B 5411   1.854   2.913   5.997  0.0168 -0.9238 -0.6108
   66SAPC  H13C 5412   2.019   2.900   5.967  1.1040 -0.3142  1.6060
   66SAPC   C14 5413   2.032   3.125   6.061 -0.2129  0.4145  0.4467
   66SAPC  H14A 5414   1.974   3.161   5.978  3.1120  0.8926 -1.8362
   66SAPC  H14B 5415   2.047   3.210   6.125 -1.0439  1.8549 -1.2089
   66SAPC  H14C 5416   2.126   3.101   6.013 -0.6973  1.2565 -0.9678
   66SAPC   C15 5417   2.082   2.969   6.234 -0.0784 -0.1769 -0.6084
   66SAPC  H15A 5418   2.106   3.050   6.301  0.6612 -0.0610 -1.0111
   66SAPC  H15B 5419   2.054   2.882   6.293  1.7113  0.5133  1.3995
   66SAPC  H15C 5420   2.174   2.959   6.178 -0.5504 -2.3706 -1.0981
   66SAPC   C11 5421   1.735   3.120   6.117  0.0722 -0.1047  0.3680
   66SAPC  H11A 5422   1.777   3.206   6.060  2.0487 -1.4253 -0.2835
   66SAPC  H11B 5423   1.659   3.153   6.191  0.0188 -1.5806  1.0110
   66SAPC     P 5424   1.572   2.929   6.040 -0.0573  0.3009 -0.0334
   66SAPC   O13 5425   1.447   2.990   5.992 -0.7140  0.5355  0.5787
   66SAPC   O14 5426   1.623   2.798   5.986  0.2760  0.5005  0.3744
   66SAPC   O12 5427   1.688   3.029   6.018  0.4866 -0.3407 -0.7606
   66SAPC   O11 5428   1.560   2.917   6.199  0.7173  0.0251  0.4069
   66SAPC    C1 5429   1.617   2.819   6.287 -0.3124 -0.8620  0.2131
   66SAPC    HA 5430   1.722   2.792   6.261 -0.0795  0.3860 -0.2033
   66SAPC    HB 5431   1.628   2.865   6.388  1.1056  1.5448 -0.9583
   66SAPC    C2 5432   1.530   2.697   6.297 -0.1149  0.3498 -0.3974
   66SAPC    HS 5433   1.500   2.674   6.192  0.6937  0.1629 -0.5914
   66SAPC   O21 5434   1.421   2.720   6.383  0.9449  0.5572 -0.5087
   66SAPC   C21 5435   1.323   2.631   6.355 -0.1150  0.3135 -0.4682
   66SAPC   O22 5436   1.337   2.540   6.279  1.0619  0.1135 -0.5033
   66SAPC   C22 5437   1.210   2.650   6.444 -0.4241  0.3159  0.0938
   66SAPC   H2R 5438   1.207   2.753   6.485 -1.8509  0.0076  0.8208
   66SAPC   H2S 5439   1.116   2.633   6.387  0.1626 -0.1305 -0.7688
   66SAPC    C3 5440   1.619   2.566   6.334 -0.2993  0.0696  0.6308
   66SAPC    HX 5441   1.687   2.540   6.250 -0.2250 -0.2758  0.7981
   66SAPC    HY 5442   1.541   2.486   6.334  0.1639 -0.4012  1.7363
   66SAPC   O31 5443   1.681   2.573   6.464  0.4648 -0.2428  0.3876
   66SAPC   C31 5444   1.665   2.471   6.551  0.6320 -0.8567 -0.5587
   66SAPC   O32 5445   1.602   2.370   6.526  0.0397  0.2101  0.1512
   66SAPC   C32 5446   1.741   2.501   6.678  0.1126 -0.0140  0.2509
   66SAPC   H2X 5447   1.851   2.513   6.662  0.5511 -2.3371  1.0710
   66SAPC   H2Y 5448   1.728   2.411   6.742  1.3156  0.0964  0.6873
   66SAPC   C23 5449   1.213   2.535   6.560 -0.1204 -0.1874  0.5330
   66SAPC   H3R 5450   1.304   2.554   6.620  0.2683  0.4069 -0.2194
   66SAPC   H3S 5451   1.210   2.433   6.517 -1.7190 -0.3095  0.8791
   66SAPC   C24 5452   1.096   2.549   6.655  0.9185  1.0767 -0.2468
   66SAPC   H4R 5453   1.095   2.459   6.721  0.5914 -0.0447 -1.7345
   66SAPC   H4S 5454   1.004   2.538   6.595  1.5788 -2.3554 -0.8415
   66SAPC   C25 5455   1.102   2.679   6.730 -1.1067  0.1055  0.5221
   66SAPC   H5R 5456   1.072   2.765   6.668 -0.6727 -1.5208 -2.0875
   66SAPC   C26 5457   1.144   2.698   6.856  0.8278  0.3538  0.7056
   66SAPC   H6R 5458   1.168   2.801   6.886  2.0507  0.2553  0.1323
   66SAPC   C27 5459   1.177   2.598   6.971 -0.6000  0.0203  0.4579
   66SAPC   H7R 5460   1.124   2.501   6.962  0.8005 -0.8160  0.8506
   66SAPC   H7S 5461   1.141   2.639   7.068  0.6584 -2.3984  2.0781
   66SAPC   C28 5462   1.328   2.574   6.992  0.7694 -0.3603  0.2779
   66SAPC   H8R 5463   1.378   2.540   6.900 -1.4295 -0.1589 -1.0445
   66SAPC   C29 5464   1.399   2.571   7.106  0.4484  0.4837  0.2660
   66SAPC   H9R 5465   1.508   2.554   7.110  0.5253  1.1690  1.9708
   66SAPC  C210 5466   1.343   2.599   7.243  0.0424 -0.4022 -0.2170
   66SAPC  H10R 5467   1.278   2.689   7.243  0.1324 -0.3085 -1.6764
   66SAPC  H10S 5468   1.428   2.629   7.308 -0.4341 -0.3006  0.3651
   66SAPC  C211 5469   1.259   2.491   7.308 -0.0754 -0.1468 -0.3792
   66SAPC  H11R 5470   1.178   2.445   7.249  0.4871  1.1311 -2.2137
   66SAPC  C212 5471   1.281   2.421   7.426 -0.6919 -0.3956 -0.2537
   66SAPC  H12R 5472   1.203   2.347   7.453 -2.0024  0.7815 -0.6996
   66SAPC  C213 5473   1.392   2.441   7.529  0.1644  0.1623  0.2986
   66SAPC  H13R 5474   1.352   2.495   7.617 -0.3254 -1.2164  0.9627
   66SAPC  H13S 5475   1.469   2.510   7.488 -2.1977  2.2511 -0.8455
   66SAPC  C214 5476   1.452   2.311   7.579 -0.4874  0.3487 -0.5559
   66SAPC  H14R 5477   1.494   2.253   7.495  0.4782  0.9653 -0.5181
   66SAPC  C215 5478   1.456   2.269   7.707 -0.3431 -0.5014 -0.2334
   66SAPC  H15R 5479   1.494   2.166   7.718 -1.9623 -0.9728  1.3168
   66SAPC  C216 5480   1.414   2.341   7.832 -0.1215 -0.5053 -0.2719
   66SAPC  H16R 5481   1.353   2.264   7.883 -0.0904 -1.0174 -0.9900
   66SAPC  H16S 5482   1.354   2.435   7.822 -1.0289 -0.9379  0.8698
   66SAPC  C217 5483   1.541   2.348   7.918 -0.4865  0.4022 -0.1055
   66SAPC  H17R 5484   1.632   2.375   7.861  0.9661 -2.6493  0.5334
   66SAPC  H17S 5485   1.549   2.243   7.954  0.0510  0.3492 -0.3723
   66SAPC  C218 5486   1.528   2.426   8.050 -0.4933 -0.1757  0.6463
   66SAPC  H18R 5487   1.426   2.401   8.085 -1.9364 -0.8854 -3.4516
   66SAPC  H18S 5488   1.532   2.535   8.025  3.5445  0.0336  1.5348
   66SAPC  C219 5489   1.630   2.387   8.152 -0.7346  0.1430  0.0173
   66SAPC  H19R 5490   1.618   2.278   8.169 -0.6384  0.2752  1.0043
   66SAPC  H19S 5491   1.603   2.437   8.248  2.6670 -0.4016  1.3970
   66SAPC  C220 5492   1.777   2.405   8.105  0.6532 -0.6410 -0.0170
   66SAPC  H20R 5493   1.853   2.354   8.167 -0.2853 -0.7901  1.0437
   66SAPC  H20S 5494   1.811   2.511   8.106 -0.9431 -0.0826 -0.7445
   66SAPC  H20T 5495   1.779   2.371   7.999 -0.1226 -1.3273  0.1714
   66SAPC   C33 5496   1.682   2.618   6.756  0.6579 -0.1606  0.0217
   66SAPC   H3X 5497   1.571   2.613   6.746  0.4842  2.7258 -0.5369
   66SAPC   H3Y 5498   1.716   2.714   6.710  0.5694 -1.5294 -3.1285
   66SAPC   C34 5499   1.731   2.609   6.906 -0.4652  0.6676 -0.1726
   66SAPC   H4X 5500   1.710   2.505   6.941  0.4182  0.4886 -0.1612
   66SAPC   H4Y 5501   1.669   2.677   6.968  0.6961  2.4419 -0.9038
   66SAPC   C35 5502   1.875   2.635   6.928  0.2218 -0.3818 -0.6003
   66SAPC   H5X 5503   1.894   2.735   6.882 -1.9433  1.0688  1.4086
   66SAPC   H5Y 5504   1.940   2.561   6.877  1.4806  0.3456 -0.0829
   66SAPC   C36 5505   1.901   2.615   7.081 -0.3371 -0.2104  0.0524
   66SAPC   H6X 5506   2.010   2.621   7.100 -0.0801 -0.3072 -1.2863
   66SAPC   H6Y 5507   1.868   2.512   7.108  1.3548 -1.2583 -1.6788
   66SAPC   C37 5508   1.831   2.720   7.170  0.2952  0.0808  0.2157
   66SAPC   H7X 5509   1.723   2.696   7.156  0.3340 -0.3423  0.5972
   66SAPC   H7Y 5510   1.829   2.825   7.134 -2.1586 -0.4089 -1.3201
   66SAPC   C38 5511   1.856   2.709   7.320  0.1694 -0.1750 -0.1345
   66SAPC   H8X 5512   1.939   2.778   7.345  1.5109 -1.8741  0.2625
   66SAPC   H8Y 5513   1.901   2.611   7.346  1.6796  0.1910 -1.2048
   66SAPC   C39 5514   1.737   2.737   7.413  0.3145 -0.0974 -0.0356
   66SAPC   H9X 5515   1.661   2.659   7.392  1.0726 -0.7401 -0.4406
   66SAPC   H9Y 5516   1.692   2.835   7.386 -0.6342 -0.5818 -0.2531
   66SAPC  C310 5517   1.783   2.742   7.562  0.3990  0.5625 -0.7417
   66SAPC  H10X 5518   1.860   2.822   7.570  1.0186  0.0095 -1.1385
   66SAPC  H10Y 5519   1.838   2.649   7.587 -0.7801 -0.4530 -1.7938
   66SAPC  C311 5520   1.671   2.764   7.661 -0.4572 -0.0191 -0.3542
   66SAPC  H11X 5521   1.597   2.685   7.634 -0.0369 -0.4414 -0.2755
   66SAPC  H11Y 5522   1.629   2.867   7.652  2.6443  1.5948  1.7331
   66SAPC  C312 5523   1.709   2.743   7.799 -1.3395 -0.1849 -0.9135
   66SAPC  H12X 5524   1.764   2.649   7.822  1.8690  1.5129 -1.0661
   66SAPC  H12Y 5525   1.612   2.742   7.853 -0.1098 -1.9684  1.4630
   66SAPC  C313 5526   1.801   2.849   7.861  0.4422 -0.4377 -0.7229
   66SAPC  H13X 5527   1.752   2.949   7.866 -0.9212 -0.8748 -3.2973
   66SAPC  H13Y 5528   1.888   2.855   7.792  0.8827  1.3959 -0.0507
   66SAPC  C314 5529   1.859   2.801   7.993 -0.1114  0.4207 -0.1399
   66SAPC  H14X 5530   1.902   2.700   7.978 -0.6642  0.3486 -1.3473
   66SAPC  H14Y 5531   1.775   2.805   8.066 -0.7662 -2.2408 -0.6356
   66SAPC  C315 5532   1.962   2.904   8.040 -0.2741 -0.0722  0.2153
   66SAPC  H15X 5533   1.910   2.999   8.064 -0.2179  0.8639 -2.8848
   66SAPC  H15Y 5534   2.016   2.949   7.954 -1.3331  2.2491  0.6896
   66SAPC  C316 5535   2.052   2.841   8.144  0.1130 -0.4558  0.0203
   66SAPC  H16X 5536   2.091   2.740   8.121 -0.2334 -0.1932 -1.8485
   66SAPC  H16Y 5537   1.996   2.833   8.240  0.9106  1.1267  0.6538
   66SAPC  C317 5538   2.166   2.942   8.178 -0.2166 -0.0633  0.6707
   66SAPC  H17X 5539   2.127   3.042   8.207 -0.3958 -0.5435  2.1748
   66SAPC  H17Y 5540   2.225   2.964   8.086 -2.0997  1.0477 -0.3249
   66SAPC  C318 5541   2.262   2.885   8.280  0.3475  0.0372  0.6378
   66SAPC  H18X 5542   2.206   2.837   8.362  0.8070 -1.6706  0.0044
   66SAPC  H18Y 5543   2.334   2.958   8.322 -0.4160  2.1147 -1.4245
   66SAPC  H18Z 5544   2.309   2.791   8.243 -0.6026 -0.5553  0.9042
   67SAPC     N 5545   4.404   5.181   6.050  0.4829  0.1017  0.4327
   67SAPC   C12 5546   4.492   5.143   6.162 -0.1017  0.0411 -0.9871
   67SAPC  H12A 5547   4.588   5.135   6.114 -0.3885  0.5860 -1.6693
   67SAPC  H12B 5548   4.474   5.042   6.196 -1.3248  0.2304 -1.0016
   67SAPC   C13 5549   4.409   5.081   5.944  0.4006 -0.1582  0.3384
   67SAPC  H13A 5550   4.401   4.980   5.983  0.7353  0.0118  0.8537
   67SAPC  H13B 5551   4.317   5.094   5.888  0.2061  1.4562  0.9916
   67SAPC  H13C 5552   4.492   5.096   5.877 -0.7164 -0.8902 -1.2831
   67SAPC   C14 5553   4.260   5.197   6.091  0.3279  0.6597 -0.1112
   67SAPC  H14A 5554   4.202   5.238   6.011  0.7659  0.9489 -0.2880
   67SAPC  H14B 5555   4.214   5.103   6.118  0.3834  1.0814  1.5533
   67SAPC  H14C 5556   4.257   5.261   6.178  1.6203 -0.5547  0.8865
   67SAPC   C15 5557   4.457   5.306   5.994  1.2505 -0.2971  0.3663
   67SAPC  H15A 5558   4.417   5.330   5.896 -0.3291  0.1278  1.0905
   67SAPC  H15B 5559   4.434   5.396   6.049 -1.3556 -0.3733 -0.4514
   67SAPC  H15C 5560   4.561   5.293   5.966  0.5046 -0.9523 -2.4925
   67SAPC   C11 5561   4.514   5.234   6.281 -0.2687 -0.5176 -0.3887
   67SAPC  H11A 5562   4.527   5.338   6.244 -0.2759 -0.8041 -1.2003
   67SAPC  H11B 5563   4.610   5.193   6.319  0.4694  0.9973 -0.5182
   67SAPC     P 5564   4.376   5.095   6.455 -0.2573 -0.6657  0.3897
   67SAPC   O13 5565   4.236   5.069   6.426  0.0746 -0.1954 -0.0925
   67SAPC   O14 5566   4.477   4.989   6.430  0.4007 -0.0741 -1.2030
   67SAPC   O12 5567   4.411   5.227   6.377 -0.1694 -0.0403  0.3482
   67SAPC   O11 5568   4.396   5.155   6.599 -0.6401  0.1535 -0.1765
   67SAPC    C1 5569   4.517   5.222   6.631  0.1458 -0.0273 -0.9898
   67SAPC    HA 5570   4.604   5.186   6.572  0.8180  0.2612 -0.2044
   67SAPC    HB 5571   4.499   5.330   6.614  1.2458  1.0613  3.4097
   67SAPC    C2 5572   4.569   5.188   6.776  0.5853  0.5866  0.1003
   67SAPC    HS 5573   4.593   5.080   6.776  1.6186  0.8038 -0.2031
   67SAPC   O21 5574   4.464   5.218   6.869 -0.4826 -0.1005  0.1194
   67SAPC   C21 5575   4.463   5.133   6.973 -0.0467  0.0498 -0.3670
   67SAPC   O22 5576   4.520   5.026   6.975  0.0657  0.0586 -0.2415
   67SAPC   C22 5577   4.360   5.177   7.076 -0.9130  0.3138 -0.1744
   67SAPC   H2R 5578   4.336   5.286   7.070 -0.1497  0.6778  2.2655
   67SAPC   H2S 5579   4.276   5.105   7.066  0.9822 -2.1953  0.8737
   67SAPC    C3 5580   4.689   5.282   6.812 -0.1902  0.5021 -0.6806
   67SAPC    HX 5581   4.652   5.386   6.803 -1.5439 -0.0416 -1.7398
   67SAPC    HY 5582   4.768   5.256   6.738 -0.0907 -1.3617  0.0328
   67SAPC   O31 5583   4.736   5.262   6.949 -0.0318  0.3982  0.4438
   67SAPC   C31 5584   4.814   5.156   6.962  0.0475  0.0356 -0.0162
   67SAPC   O32 5585   4.843   5.079   6.877 -0.0057  0.2123 -0.3338
   67SAPC   C32 5586   4.878   5.146   7.104 -0.3318 -0.4337  0.1982
   67SAPC   H2X 5587   4.956   5.224   7.112  0.7255 -1.3263 -0.9136
   67SAPC   H2Y 5588   4.926   5.046   7.097 -1.7142 -1.0629 -1.1660
   67SAPC   C23 5589   4.402   5.165   7.226  0.6322  0.1298 -0.2060
   67SAPC   H3R 5590   4.485   5.232   7.259 -1.3586  3.8008 -2.0017
   67SAPC   H3S 5591   4.433   5.061   7.249  1.9249  0.9792  2.3687
   67SAPC   C24 5592   4.279   5.189   7.324  0.0818  0.7082 -0.3981
   67SAPC   H4R 5593   4.256   5.297   7.311 -3.0412  0.0988 -0.6807
   67SAPC   H4S 5594   4.321   5.162   7.423 -0.9244  0.1726 -0.1100
   67SAPC   C25 5595   4.151   5.116   7.292  0.1677  0.0210 -1.0541
   67SAPC   H5R 5596   4.115   5.125   7.188 -2.1225  0.0441 -0.3153
   67SAPC   C26 5597   4.066   5.061   7.381  0.4420  0.8683  0.8974
   67SAPC   H6R 5598   3.972   5.019   7.343  0.9634  0.3511  0.1694
   67SAPC   C27 5599   4.068   5.053   7.536 -0.0318  0.1060  0.3279
   67SAPC   H7R 5600   3.982   4.992   7.571 -0.9323  0.6108 -0.9330
   67SAPC   H7S 5601   4.036   5.154   7.569 -0.2226 -0.1115  0.8097
   67SAPC   C28 5602   4.180   4.987   7.618 -0.2935 -0.3262  0.3901
   67SAPC   H8R 5603   4.252   4.914   7.578  1.7648 -0.0407  3.3169
   67SAPC   C29 5604   4.210   5.000   7.750  0.1692  0.0996 -0.0611
   67SAPC   H9R 5605   4.299   4.943   7.782 -0.8487 -1.3231  0.3210
   67SAPC  C210 5606   4.140   5.087   7.850  0.2024  0.8252 -0.2009
   67SAPC  H10R 5607   4.117   5.189   7.813  0.1393  0.4268 -1.2931
   67SAPC  H10S 5608   4.190   5.083   7.950 -1.5401 -2.6189  0.7070
   67SAPC  C211 5609   4.002   5.028   7.877 -0.6735 -0.4294 -0.7125
   67SAPC  H11R 5610   3.941   5.013   7.787  0.5002 -1.7851 -1.3167
   67SAPC  C212 5611   3.949   4.985   7.995  0.5743  0.0179 -0.3077
   67SAPC  H12R 5612   3.844   4.955   7.983  0.6475 -0.3533 -0.0322
   67SAPC  C213 5613   4.009   4.990   8.130  0.3620  0.4616  0.6284
   67SAPC  H13R 5614   3.999   5.097   8.157  0.7155  0.5661  0.3520
   67SAPC  H13S 5615   4.119   4.972   8.124  0.0326 -2.0678  0.8747
   67SAPC  C214 5616   3.963   4.898   8.242  0.3418 -0.0360  0.6709
   67SAPC  H14R 5617   3.891   4.940   8.314  0.1615  1.9757 -0.5893
   67SAPC  C215 5618   4.009   4.772   8.266 -0.5196  0.3076  0.3941
   67SAPC  H15R 5619   3.960   4.717   8.348  0.9424 -0.8194  0.5533
   67SAPC  C216 5620   4.105   4.699   8.178 -0.1488 -0.0866  0.1800
   67SAPC  H16R 5621   4.207   4.735   8.201  0.2897  0.6057 -2.5291
   67SAPC  H16S 5622   4.095   4.723   8.070 -1.5202 -1.2407  0.0209
   67SAPC  C217 5623   4.097   4.546   8.187  0.5034  0.6712  0.1773
   67SAPC  H17R 5624   4.155   4.506   8.102 -1.4890  0.6377 -1.2493
   67SAPC  H17S 5625   3.991   4.514   8.170 -0.0997  3.1898 -1.2127
   67SAPC  C218 5626   4.153   4.496   8.324 -0.6706 -0.3864 -0.2631
   67SAPC  H18R 5627   4.098   4.537   8.412  0.1323  1.4834 -0.5820
   67SAPC  H18S 5628   4.253   4.541   8.340 -1.3873  0.7325  1.4921
   67SAPC  C219 5629   4.179   4.350   8.337  0.2568 -0.5149  0.2672
   67SAPC  H19R 5630   4.252   4.319   8.259 -1.2233 -2.2848 -0.4709
   67SAPC  H19S 5631   4.083   4.300   8.313  0.7168 -1.0943 -0.4107
   67SAPC  C220 5632   4.217   4.317   8.485 -0.0799  0.2159  1.1964
   67SAPC  H20R 5633   4.326   4.297   8.481 -0.1050  0.2762 -0.7291
   67SAPC  H20S 5634   4.159   4.228   8.517 -2.6626  0.9680 -0.9819
   67SAPC  H20T 5635   4.192   4.402   8.553  3.5468  1.4068  1.2635
   67SAPC   C33 5636   4.774   5.153   7.218 -0.1767 -0.3493  0.1284
   67SAPC   H3X 5637   4.701   5.070   7.229 -1.4691  1.0067  2.6673
   67SAPC   H3Y 5638   4.729   5.254   7.221  1.7525  0.5560 -0.0247
   67SAPC   C34 5639   4.844   5.151   7.351  0.3355  1.1106 -0.1823
   67SAPC   H4X 5640   4.891   5.052   7.371  0.7789  1.0666 -1.3705
   67SAPC   H4Y 5641   4.772   5.154   7.436  1.1039 -2.9790  0.8419
   67SAPC   C35 5642   4.957   5.246   7.384  0.0660  0.3409 -0.4213
   67SAPC   H5X 5643   5.038   5.235   7.310  1.1586  0.3564  0.7411
   67SAPC   H5Y 5644   4.988   5.220   7.488  1.4265  1.4068 -0.5438
   67SAPC   C36 5645   4.924   5.396   7.390  0.0871 -0.5202  0.6354
   67SAPC   H6X 5646   4.846   5.420   7.465  0.3761  1.1643  0.4406
   67SAPC   H6Y 5647   4.881   5.428   7.292 -0.4018  2.1289  1.6271
   67SAPC   C37 5648   5.051   5.479   7.416  0.3182  0.0741  0.1644
   67SAPC   H7X 5649   5.055   5.583   7.379  0.3584 -0.0637 -0.2252
   67SAPC   H7Y 5650   5.122   5.438   7.341  1.1004 -1.0053  1.4422
   67SAPC   C38 5651   5.123   5.454   7.551  0.2853 -0.2027 -0.5958
   67SAPC   H8X 5652   5.147   5.346   7.561 -0.1190 -0.4098 -1.7596
   67SAPC   H8Y 5653   5.055   5.487   7.633 -0.6877  1.1765 -1.9133
   67SAPC   C39 5654   5.257   5.530   7.573  0.4074  0.4662  0.6675
   67SAPC   H9X 5655   5.233   5.631   7.533  0.6183  0.3539  0.2555
   67SAPC   H9Y 5656   5.328   5.479   7.505  0.9178 -1.7303  2.7188
   67SAPC  C310 5657   5.303   5.531   7.721 -0.0168 -0.1532 -0.4119
   67SAPC  H10X 5658   5.241   5.604   7.778  2.5399  0.4601  1.7395
   67SAPC  H10Y 5659   5.407   5.568   7.716 -1.0105  2.7964 -1.3423
   67SAPC  C311 5660   5.313   5.397   7.790 -0.9215 -0.5383  0.0790
   67SAPC  H11X 5661   5.382   5.332   7.732  0.9262  1.8782 -0.6134
   67SAPC  H11Y 5662   5.216   5.344   7.785 -0.5723 -1.0983 -1.1856
   67SAPC  C312 5663   5.365   5.420   7.935 -0.1554  0.1056  0.3656
   67SAPC  H12X 5664   5.465   5.469   7.932 -0.5539  0.9055  0.0405
   67SAPC  H12Y 5665   5.370   5.322   7.987  0.0771 -0.4500 -0.6788
   67SAPC  C313 5666   5.255   5.497   8.014 -0.3591 -0.4200  0.3249
   67SAPC  H13X 5667   5.156   5.448   8.001 -0.9766  0.7577  0.4339
   67SAPC  H13Y 5668   5.251   5.602   7.976 -0.7079 -0.0550  1.3335
   67SAPC  C314 5669   5.290   5.492   8.165  0.8323  0.0977  0.5540
   67SAPC  H14X 5670   5.384   5.546   8.190  0.9715 -0.3688  1.0772
   67SAPC  H14Y 5671   5.317   5.390   8.201  1.2817 -0.0158 -0.0883
   67SAPC  C315 5672   5.161   5.534   8.243  0.5462 -0.0928 -0.2399
   67SAPC  H15X 5673   5.073   5.469   8.225 -0.1766  0.4042  1.3600
   67SAPC  H15Y 5674   5.128   5.632   8.203 -1.5274 -0.7968 -0.3629
   67SAPC  C316 5675   5.189   5.557   8.390 -0.0910  0.2183  0.0644
   67SAPC  H16X 5676   5.272   5.630   8.404  1.2937 -1.4780  1.1043
   67SAPC  H16Y 5677   5.223   5.466   8.443 -0.5881 -1.2925 -2.0776
   67SAPC  C317 5678   5.065   5.613   8.466 -0.7594 -0.5920 -0.5041
   67SAPC  H17X 5679   4.970   5.559   8.445 -1.1864  0.5427 -1.5730
   67SAPC  H17Y 5680   5.047   5.706   8.410  1.3380  0.0936 -0.1325
   67SAPC  C318 5681   5.083   5.641   8.614  0.1404 -0.3769 -0.3571
   67SAPC  H18X 5682   5.184   5.623   8.655  0.2386  1.9808  0.5640
   67SAPC  H18Y 5683   5.014   5.577   8.674  0.7710 -1.2146 -0.5066
   67SAPC  H18Z 5684   5.050   5.744   8.639 -1.3840 -1.7183  4.3366
   68SAPC     N 5685   2.418   3.619   5.834  0.4800  0.3891  0.2431
   68SAPC   C12 5686   2.521   3.641   5.949  0.5572  0.0665 -0.2045
   68SAPC  H12A 5687   2.498   3.736   5.995 -1.9885 -0.6469  0.1090
   68SAPC  H12B 5688   2.618   3.649   5.901  0.1809 -1.6441 -1.3406
   68SAPC   C13 5689   2.422   3.478   5.786 -0.4207  0.7040 -0.1372
   68SAPC  H13A 5690   2.521   3.446   5.756 -0.1601  0.8619  0.5479
   68SAPC  H13B 5691   2.398   3.404   5.862  3.4375  0.4385  1.0155
   68SAPC  H13C 5692   2.355   3.457   5.704 -2.5121 -0.9985  1.8738
   68SAPC   C14 5693   2.288   3.648   5.893  0.6573 -0.1117  0.2650
   68SAPC  H14A 5694   2.282   3.748   5.935 -0.3947  0.8350 -1.9831
   68SAPC  H14B 5695   2.202   3.641   5.829  1.0130  1.4924 -0.4443
   68SAPC  H14C 5696   2.267   3.591   5.982  0.1823 -0.6564 -0.1854
   68SAPC   C15 5697   2.445   3.712   5.715  0.8154 -0.3311 -0.1241
   68SAPC  H15A 5698   2.539   3.694   5.664  0.3479  0.5426 -1.3473
   68SAPC  H15B 5699   2.368   3.702   5.639 -0.0718 -0.2469  0.7533
   68SAPC  H15C 5700   2.446   3.815   5.748 -2.6437 -0.1610 -0.1816
   68SAPC   C11 5701   2.512   3.549   6.072 -0.9572 -0.0650  0.7234
   68SAPC  H11A 5702   2.576   3.587   6.154 -4.0581  0.5890  3.0131
   68SAPC  H11B 5703   2.552   3.447   6.052  0.7901  0.2748  2.2354
   68SAPC     P 5704   2.302   3.401   6.146  0.1443  0.0524 -0.2196
   68SAPC   O13 5705   2.187   3.402   6.062 -0.3165 -0.1196 -0.0300
   68SAPC   O14 5706   2.390   3.282   6.137 -0.1903  0.2443  0.2083
   68SAPC   O12 5707   2.382   3.537   6.125 -0.4865 -0.0818 -0.2836
   68SAPC   O11 5708   2.256   3.423   6.300 -0.3489 -0.4677 -0.0816
   68SAPC    C1 5709   2.364   3.425   6.400  0.3464  0.1330 -0.4029
   68SAPC    HA 5710   2.462   3.448   6.354  0.5933 -0.1257 -0.0165
   68SAPC    HB 5711   2.362   3.500   6.482 -1.0458 -0.6991  0.3857
   68SAPC    C2 5712   2.366   3.293   6.480  0.2080 -0.5814 -0.5120
   68SAPC    HS 5713   2.373   3.208   6.408 -0.9937 -0.4461 -0.8123
   68SAPC   O21 5714   2.236   3.299   6.548 -0.4494 -1.0945 -0.3450
   68SAPC   C21 5715   2.181   3.182   6.575 -0.5864 -0.4375 -0.2665
   68SAPC   O22 5716   2.232   3.074   6.537 -0.5473 -0.0830 -0.5859
   68SAPC   C22 5717   2.047   3.186   6.647  0.2051 -0.0802  0.5790
   68SAPC   H2R 5718   2.008   3.290   6.643  1.0367  0.3468  2.1960
   68SAPC   H2S 5719   1.976   3.117   6.598 -0.2736  1.1489 -0.4938
   68SAPC    C3 5720   2.487   3.279   6.581  0.3490 -0.2258 -0.3418
   68SAPC    HX 5721   2.578   3.278   6.517  0.9516 -0.3981  0.4949
   68SAPC    HY 5722   2.493   3.184   6.638 -1.3508 -1.8156 -2.6203
   68SAPC   O31 5723   2.499   3.400   6.657  0.0567  0.2923  0.7959
   68SAPC   C31 5724   2.435   3.407   6.775 -0.4381 -0.4453  0.6162
   68SAPC   O32 5725   2.347   3.333   6.810  0.0978 -0.5933  0.2675
   68SAPC   C32 5726   2.507   3.521   6.846 -0.0997  0.2821 -0.5346
   68SAPC   H2X 5727   2.437   3.585   6.904  1.5851  2.2738 -0.5869
   68SAPC   H2Y 5728   2.551   3.584   6.766 -1.3834  2.2747  0.2655
   68SAPC   C23 5729   2.055   3.146   6.799 -0.9154  0.3164 -0.3878
   68SAPC   H3R 5730   2.136   3.212   6.839 -0.6171 -0.8543  1.0140
   68SAPC   H3S 5731   2.096   3.043   6.798 -1.3189  0.0992  1.5087
   68SAPC   C24 5732   1.930   3.151   6.881 -0.8182  0.1128  0.0545
   68SAPC   H4R 5733   1.848   3.102   6.824 -0.9725 -1.6118  1.6725
   68SAPC   H4S 5734   1.898   3.257   6.890  0.2556  0.6160 -1.5301
   68SAPC   C25 5735   1.941   3.074   7.008 -0.8622  0.5002  0.5019
   68SAPC   H5R 5736   1.951   2.965   6.997 -0.6181  0.6102 -0.5058
   68SAPC   C26 5737   1.933   3.119   7.134 -0.1702  0.4070  0.2531
   68SAPC   H6R 5738   1.946   3.042   7.211 -0.7403 -0.2493 -0.2941
   68SAPC   C27 5739   1.931   3.264   7.185 -0.2834  0.1232  0.2368
   68SAPC   H7R 5740   1.824   3.271   7.214 -0.7215  2.2773 -1.5765
   68SAPC   H7S 5741   1.939   3.337   7.102 -1.6999 -0.6889 -0.6768
   68SAPC   C28 5742   2.045   3.282   7.286  0.0846  0.0492 -0.0422
   68SAPC   H8R 5743   2.149   3.287   7.250 -0.0229 -0.7058 -0.4949
   68SAPC   C29 5744   2.028   3.307   7.419 -0.0334 -0.3401 -0.4474
   68SAPC   H9R 5745   2.113   3.330   7.484 -2.1329  0.0123  2.3434
   68SAPC  C210 5746   1.898   3.319   7.489 -0.0715 -0.4997  0.4731
   68SAPC  H10R 5747   1.814   3.312   7.416 -1.5125  1.3790  1.8243
   68SAPC  H10S 5748   1.883   3.423   7.526  0.5519  0.1806 -1.0715
   68SAPC  C211 5749   1.876   3.218   7.598 -0.3823 -0.2636 -0.0759
   68SAPC  H11R 5750   1.812   3.130   7.580 -1.2577  0.4095 -0.3147
   68SAPC  C212 5751   1.921   3.240   7.724  0.0359  1.0006 -0.2359
   68SAPC  H12R 5752   1.894   3.165   7.800 -2.2297 -1.1448 -2.9257
   68SAPC  C213 5753   1.994   3.369   7.768 -0.2699  0.0743  0.0952
   68SAPC  H13R 5754   2.054   3.421   7.691 -0.1704  1.5622  1.1341
   68SAPC  H13S 5755   2.069   3.355   7.849  1.2020  0.5272 -1.1460
   68SAPC  C214 5756   1.885   3.463   7.819  0.5156  0.2188  0.0641
   68SAPC  H14R 5757   1.842   3.527   7.740  1.8412  0.2368 -0.6625
   68SAPC  C215 5758   1.838   3.472   7.946  0.1199 -0.1910 -0.2323
   68SAPC  H15R 5759   1.775   3.558   7.971  3.2630  1.5696  2.3045
   68SAPC  C216 5760   1.900   3.395   8.055 -0.1928 -0.6491  0.2507
   68SAPC  H16R 5761   2.010   3.411   8.052 -0.3288  0.2058 -0.2162
   68SAPC  H16S 5762   1.886   3.286   8.038  1.6845 -0.8865  0.0219
   68SAPC  C217 5763   1.842   3.441   8.185  0.5894  0.2105  0.2746
   68SAPC  H17R 5764   1.731   3.444   8.177  0.5302  1.5414  1.3178
   68SAPC  H17S 5765   1.876   3.544   8.210 -1.2450  0.5682  1.5146
   68SAPC  C218 5766   1.848   3.335   8.291  0.3450  0.3032 -0.5680
   68SAPC  H18R 5767   1.821   3.240   8.240 -1.9403 -0.1949  1.4053
   68SAPC  H18S 5768   1.788   3.359   8.381  0.6302  1.5027 -0.6883
   68SAPC  C219 5769   1.998   3.317   8.326  0.0255  0.4201  0.0559
   68SAPC  H19R 5770   2.033   3.419   8.352  0.0859  0.4150 -0.0034
   68SAPC  H19S 5771   2.058   3.286   8.237 -0.5277 -0.1309 -0.1333
   68SAPC  C220 5772   2.029   3.229   8.441  0.4550  0.1673 -1.0463
   68SAPC  H20R 5773   2.119   3.257   8.501  0.0988  0.8547 -0.8299
   68SAPC  H20S 5774   2.030   3.119   8.424 -1.8434 -0.3055  1.2791
   68SAPC  H20T 5775   1.944   3.236   8.511  2.0033  1.7649  0.8066
   68SAPC   C33 5776   2.627   3.469   6.934 -0.3556 -1.0334  0.0145
   68SAPC   H3X 5777   2.713   3.538   6.923 -1.2708  0.7632  2.9757
   68SAPC   H3Y 5778   2.667   3.369   6.905 -0.8060 -1.0593 -0.5184
   68SAPC   C34 5779   2.599   3.461   7.086 -0.0890 -0.3827  0.7168
   68SAPC   H4X 5780   2.562   3.559   7.124 -2.0844 -0.9050  0.2180
   68SAPC   H4Y 5781   2.693   3.435   7.140 -0.1697  0.7700  1.4540
   68SAPC   C35 5782   2.481   3.366   7.119  0.4092 -0.7157 -0.5717
   68SAPC   H5X 5783   2.499   3.269   7.068 -0.8546 -1.6796  0.7501
   68SAPC   H5Y 5784   2.379   3.399   7.089  0.2756  0.0164  0.6226
   68SAPC   C36 5785   2.473   3.319   7.268  0.2676  0.5167  0.2724
   68SAPC   H6X 5786   2.572   3.288   7.309  0.4317 -0.3411 -0.7407
   68SAPC   H6Y 5787   2.404   3.234   7.283 -1.1164  1.9726  2.7947
   68SAPC   C37 5788   2.420   3.422   7.364  0.6177 -0.9087 -0.0403
   68SAPC   H7X 5789   2.317   3.450   7.333  1.2434 -0.4832 -1.9143
   68SAPC   H7Y 5790   2.460   3.525   7.356 -0.4339 -0.6238 -2.8065
   68SAPC   C38 5791   2.419   3.370   7.500 -0.2182  0.1414  0.0204
   68SAPC   H8X 5792   2.513   3.317   7.526 -1.0560 -1.1415  0.5543
   68SAPC   H8Y 5793   2.341   3.290   7.504  0.6637 -0.7055  1.0345
   68SAPC   C39 5794   2.375   3.461   7.611  0.7529 -0.0285  0.4524
   68SAPC   H9X 5795   2.273   3.499   7.592  0.5851  0.0803  1.5145
   68SAPC   H9Y 5796   2.450   3.544   7.609  1.2303 -0.4190 -3.1947
   68SAPC  C310 5797   2.377   3.406   7.752  0.4007 -0.4025  0.4416
   68SAPC  H10X 5798   2.478   3.366   7.772 -0.4040 -1.4671  2.7652
   68SAPC  H10Y 5799   2.300   3.328   7.771  0.5140 -0.5607  0.2493
   68SAPC  C311 5800   2.376   3.528   7.857 -0.2120 -0.4277  0.5252
   68SAPC  H11X 5801   2.269   3.558   7.868 -0.6400 -2.1536  1.4194
   68SAPC  H11Y 5802   2.449   3.604   7.823 -0.5751 -0.2081  0.2184
   68SAPC  C312 5803   2.421   3.489   7.997 -0.7210 -0.0932  0.4613
   68SAPC  H12X 5804   2.428   3.578   8.062 -0.7310  0.1344  0.1510
   68SAPC  H12Y 5805   2.525   3.451   7.991 -0.5787 -0.1151  2.5871
   68SAPC  C313 5806   2.342   3.375   8.061 -0.6234  0.3178  0.6009
   68SAPC  H13X 5807   2.359   3.277   8.012  0.5630 -0.3981  2.3598
   68SAPC  H13Y 5808   2.235   3.403   8.059 -0.6498  0.2090  0.4450
   68SAPC  C314 5809   2.379   3.354   8.212  0.1775  0.2192 -0.5403
   68SAPC  H14X 5810   2.291   3.291   8.239 -1.6841  1.0952 -3.9296
   68SAPC  H14Y 5811   2.382   3.450   8.268  1.1842 -1.1096  1.8318
   68SAPC  C315 5812   2.513   3.279   8.247 -0.2375  0.3053 -0.2569
   68SAPC  H15X 5813   2.604   3.326   8.204  0.9376 -0.6476  1.0625
   68SAPC  H15Y 5814   2.516   3.182   8.193  1.3176  0.2800 -0.1734
   68SAPC  C316 5815   2.530   3.262   8.401 -0.1967  0.4891  0.0397
   68SAPC  H16X 5816   2.431   3.229   8.441  0.2948  0.5489  1.3751
   68SAPC  H16Y 5817   2.557   3.356   8.454 -1.2942  0.1337  1.2882
   68SAPC  C317 5818   2.635   3.156   8.437  0.0501  0.6935 -0.7344
   68SAPC  H17X 5819   2.738   3.172   8.397  1.3301 -1.1114  1.5580
   68SAPC  H17Y 5820   2.607   3.060   8.389 -2.0797  1.0294 -0.2281
   68SAPC  C318 5821   2.645   3.138   8.592  0.7244 -0.3886  0.0368
   68SAPC  H18X 5822   2.554   3.085   8.628 -2.5297  3.3839 -1.8166
   68SAPC  H18Y 5823   2.680   3.231   8.642  0.2961 -0.9688  1.4689
   68SAPC  H18Z 5824   2.724   3.070   8.628 -1.9888 -4.0599 -0.3730
   69SLPC     N 5825   5.897   0.291  11.293  0.1989 -0.1253 -0.1231
   69SLPC   C13 5826   5.772   0.343  11.369  0.4327 -0.4659  1.2003
   69SLPC  H13A 5827   5.788   0.449  11.364 -0.5908 -0.3514 -0.5967
   69SLPC  H13B 5828   5.685   0.308  11.315 -0.3423  2.2860  0.5090
   69SLPC  H13C 5829   5.763   0.319  11.474 -3.3564  0.2692  1.1853
   69SLPC   C14 5830   5.873   0.140  11.277  0.3530  0.2343  0.4801
   69SLPC  H14A 5831   5.955   0.099  11.220  1.5638  1.1286  1.5342
   69SLPC  H14B 5832   5.866   0.084  11.369  0.4338 -1.0248 -0.2516
   69SLPC  H14C 5833   5.778   0.127  11.226 -0.5411  1.2493  1.8341
   69SLPC   C15 5834   6.018   0.321  11.380  0.4262 -0.0120 -0.2780
   69SLPC  H15A 5835   6.029   0.426  11.404 -0.4319 -0.0848  0.4720
   69SLPC  H15B 5836   6.013   0.279  11.479  3.4625 -0.1087 -0.0841
   69SLPC  H15C 5837   6.114   0.286  11.343  0.4234 -1.1094  0.6892
   69SLPC   C12 5838   5.913   0.357  11.157 -0.0755  0.4023  0.1372
   69SLPC  H12A 5839   5.909   0.465  11.157  2.2339  0.7062 -3.8822
   69SLPC  H12B 5840   5.838   0.319  11.089  1.4226 -0.0843 -1.3214
   69SLPC   C11 5841   6.048   0.329  11.075 -0.2763  0.1771 -0.1981
   69SLPC  H11A 5842   6.025   0.340  10.967 -2.4006 -0.5575  0.1380
   69SLPC  H11B 5843   6.067   0.221  11.093 -1.9777 -0.0112  0.6111
   69SLPC     P 5844   6.219   0.537  11.040 -0.4533 -0.0252  0.0699
   69SLPC   O13 5845   6.125   0.646  11.028 -0.0112 -0.7355 -0.0193
   69SLPC   O14 5846   6.353   0.567  11.086  0.2978 -0.0450 -0.1826
   69SLPC   O12 5847   6.152   0.412  11.120 -0.1065 -0.3423 -0.2078
   69SLPC   O11 5848   6.238   0.475  10.895  0.2015 -0.1344  0.4250
   69SLPC    C1 5849   6.317   0.366  10.863 -0.3186  0.7504  1.0440
   69SLPC    HA 5850   6.423   0.393  10.845  0.7197 -2.8291  0.9750
   69SLPC    HB 5851   6.321   0.287  10.941  0.8975 -0.4808 -0.1982
   69SLPC    C2 5852   6.278   0.293  10.728 -0.0404  0.2491 -0.0155
   69SLPC    HS 5853   6.372   0.249  10.689 -0.1712  0.5061 -0.6314
   69SLPC   O21 5854   6.229   0.386  10.633 -0.2327 -0.3982  0.1578
   69SLPC   C21 5855   6.312   0.461  10.564 -0.0767  0.1792  0.0766
   69SLPC   O22 5856   6.431   0.472  10.590  0.3990 -0.1441 -0.4071
   69SLPC   C22 5857   6.232   0.536  10.447 -0.1247 -0.5850 -0.0295
   69SLPC   H2R 5858   6.123   0.536  10.470 -0.6607  0.1582 -2.2931
   69SLPC   H2S 5859   6.262   0.642  10.459 -1.6839 -0.3002  1.8495
   69SLPC    C3 5860   6.174   0.178  10.758 -0.2056  0.6224  0.3086
   69SLPC    HX 5861   6.075   0.216  10.790 -0.3444 -0.8139  1.6798
   69SLPC    HY 5862   6.212   0.116  10.842 -1.4499 -1.2981 -0.4699
   69SLPC   O31 5863   6.157   0.090  10.638 -0.1757  0.3581 -0.4704
   69SLPC   C31 5864   6.076   0.117  10.537  0.4600 -0.2635 -0.7073
   69SLPC   O32 5865   5.992   0.207  10.541 -0.3047 -0.1524  1.1311
   69SLPC   C32 5866   6.092   0.022  10.419  0.2322  0.0306  0.2683
   69SLPC   H2X 5867   6.021  -0.062  10.438  0.7889 -0.0050  2.4093
   69SLPC   H2Y 5868   6.195  -0.016  10.435  1.0751  2.9406  2.5721
   69SLPC   C23 5869   6.249   0.474  10.312 -0.5767 -0.5980  0.3896
   69SLPC   H3R 5870   6.156   0.494  10.254  0.3175 -0.8993 -1.2298
   69SLPC   H3S 5871   6.258   0.364  10.324 -2.3258 -0.6776  1.2598
   69SLPC   C24 5872   6.356   0.543  10.228  0.6975  0.0210 -0.8999
   69SLPC   H4R 5873   6.453   0.498  10.259 -0.1284 -0.2060  1.6381
   69SLPC   H4S 5874   6.359   0.650  10.258  0.3596 -0.3615  0.5758
   69SLPC   C25 5875   6.322   0.537  10.077 -0.3952 -0.2077  0.1646
   69SLPC   H5R 5876   6.225   0.584  10.049  0.2655  0.4685 -1.0772
   69SLPC   H5S 5877   6.315   0.432  10.042  0.7456 -0.3247  0.2399
   69SLPC   C26 5878   6.424   0.597   9.981 -0.1434  0.5200 -0.1730
   69SLPC   H6R 5879   6.512   0.530   9.986 -0.3577  0.2984  1.0645
   69SLPC   H6S 5880   6.437   0.698  10.025  2.2443  0.2193 -0.0747
   69SLPC   C27 5881   6.366   0.610   9.837  0.0940  0.4031 -0.0225
   69SLPC   H7R 5882   6.273   0.670   9.834 -0.4754 -0.2653  2.3696
   69SLPC   H7S 5883   6.328   0.508   9.813 -0.2131  0.5790 -0.2814
   69SLPC   C28 5884   6.475   0.628   9.733 -0.1211  0.1953  0.0006
   69SLPC   H8R 5885   6.453   0.581   9.635  3.2272 -0.3564 -0.6116
   69SLPC   H8S 5886   6.568   0.582   9.773 -1.2118 -1.7872  0.3914
   69SLPC   C29 5887   6.502   0.777   9.720  0.0012  0.2668  0.0111
   69SLPC   H9R 5888   6.514   0.835   9.813 -1.4502  0.6737 -0.0305
   69SLPC  C210 5889   6.502   0.841   9.598  0.6206  0.2448  0.2817
   69SLPC  H10R 5890   6.510   0.950   9.610  0.1419  0.2023  1.0878
   69SLPC  C211 5891   6.468   0.780   9.460 -0.4571  0.2630 -1.0612
   69SLPC  H11R 5892   6.377   0.835   9.426 -0.1081  0.5924 -1.4787
   69SLPC  H11S 5893   6.427   0.678   9.474  1.3704 -0.3932 -0.1388
   69SLPC  C212 5894   6.581   0.782   9.356 -0.2087 -0.0317 -0.2494
   69SLPC  H12R 5895   6.682   0.786   9.400 -0.1193  0.7689 -0.5084
   69SLPC  C213 5896   6.572   0.810   9.228 -0.0253 -0.2686  0.0203
   69SLPC  H13R 5897   6.661   0.787   9.168 -0.9162 -0.5302 -1.2410
   69SLPC  C214 5898   6.445   0.842   9.155  0.3151 -0.4466  0.3440
   69SLPC  H14R 5899   6.402   0.929   9.208  0.1001 -0.2170 -0.1956
   69SLPC  H14S 5900   6.377   0.754   9.162 -0.5387  0.1574 -0.1470
   69SLPC  C215 5901   6.460   0.866   9.001 -0.6770 -0.1915 -0.2130
   69SLPC  H15R 5902   6.515   0.780   8.958 -0.7583 -0.1866 -0.3292
   69SLPC  H15S 5903   6.519   0.958   8.982  0.4403 -0.1149  3.0827
   69SLPC  C216 5904   6.328   0.891   8.925  0.1182  0.2778 -0.8273
   69SLPC  H16R 5905   6.355   0.926   8.823  1.7096  0.3845 -0.3974
   69SLPC  H16S 5906   6.263   0.959   8.985  0.2401  0.1338 -0.5296
   69SLPC  C217 5907   6.242   0.759   8.916 -0.1467 -0.2655  0.5499
   69SLPC  H17R 5908   6.225   0.722   9.019  0.1038  1.1198  1.1059
   69SLPC  H17S 5909   6.301   0.681   8.863  1.0372  0.4476  0.7862
   69SLPC  C218 5910   6.100   0.778   8.860 -0.2894  0.0885  0.3395
   69SLPC  H18R 5911   6.032   0.811   8.941 -0.1466  1.3788 -0.0508
   69SLPC  H18S 5912   6.065   0.685   8.811  0.2873  0.4713 -0.8288
   69SLPC  H18T 5913   6.105   0.861   8.787  0.4505 -0.6240 -0.4462
   69SLPC   C33 5914   6.076   0.096  10.282  0.3014  0.4485 -0.4422
   69SLPC   H3X 5915   6.154   0.171  10.257  0.0838  1.5273  1.8460
   69SLPC   H3Y 5916   5.981   0.154  10.288  0.0877  0.2102 -1.3881
   69SLPC   C34 5917   6.058   0.003  10.162  0.4499 -0.1413 -0.4169
   69SLPC   H4X 5918   5.981  -0.076  10.180  2.1427 -2.0628 -1.1498
   69SLPC   H4Y 5919   6.152  -0.056  10.156 -1.2877 -3.0929 -0.9244
   69SLPC   C35 5920   6.030   0.085  10.039  0.4261  0.4601  0.4944
   69SLPC   H5X 5921   6.124   0.143  10.035  0.4112  0.8061  3.1848
   69SLPC   H5Y 5922   5.946   0.158  10.039  0.1075  0.1059  1.1300
   69SLPC   C36 5923   6.024   0.002   9.905  0.2643  0.5489 -0.0097
   69SLPC   H6X 5924   5.930  -0.057   9.900  0.7353 -0.1338 -1.7897
   69SLPC   H6Y 5925   6.105  -0.074   9.905 -0.3771 -0.1553 -0.3033
   69SLPC   C37 5926   6.046   0.090   9.786  0.1296 -0.4953  0.4530
   69SLPC   H7X 5927   6.143   0.143   9.797  1.3377 -1.7227 -2.9643
   69SLPC   H7Y 5928   5.970   0.169   9.766  1.7807  0.9511 -0.3790
   69SLPC   C38 5929   6.057   0.001   9.661  0.7379  0.4058  0.2819
   69SLPC   H8X 5930   5.954  -0.039   9.657  0.4001  1.2888 -0.1924
   69SLPC   H8Y 5931   6.135  -0.077   9.676 -0.7451 -1.1169  0.4024
   69SLPC   C39 5932   6.083   0.067   9.521 -0.0188 -0.4343  0.3285
   69SLPC   H9X 5933   6.190   0.094   9.510  0.1933  0.8467  3.9906
   69SLPC   H9Y 5934   6.020   0.158   9.511 -0.9888 -1.0323  0.8132
   69SLPC  C310 5935   6.036  -0.026   9.402  0.1906  0.2762  0.2781
   69SLPC  H10X 5936   5.929  -0.051   9.422  0.4757 -0.0744  1.5005
   69SLPC  H10Y 5937   6.085  -0.126   9.405  0.2395  0.0632 -3.4961
   69SLPC  C311 5938   6.093   0.017   9.263 -0.1505  0.1375 -0.0697
   69SLPC  H11X 5939   6.204   0.016   9.260 -0.1100  0.9830  0.6270
   69SLPC  H11Y 5940   6.061   0.118   9.231  0.4778  0.1190 -0.7688
   69SLPC  C312 5941   6.059  -0.081   9.151  0.1630  0.1022 -0.1468
   69SLPC  H12X 5942   5.954  -0.078   9.114  0.7444 -2.3794 -2.3472
   69SLPC  H12Y 5943   6.053  -0.184   9.193 -1.5664 -0.8337 -2.4695
   69SLPC  C313 5944   6.139  -0.062   9.025 -0.9077 -0.6039 -0.3757
   69SLPC  H13X 5945   6.236  -0.108   9.054 -0.6276 -0.0940 -0.4713
   69SLPC  H13Y 5946   6.160   0.045   9.004  0.2772 -1.2458 -2.7878
   69SLPC  C314 5947   6.089  -0.137   8.898 -0.0355  0.5310 -0.2011
   69SLPC  H14X 5948   6.065  -0.241   8.929  0.3760  0.3115 -0.5973
   69SLPC  H14Y 5949   6.177  -0.136   8.830 -0.1065  1.7108 -0.3002
   69SLPC  C315 5950   5.964  -0.082   8.835  0.1548 -0.0482 -0.3302
   69SLPC  H15X 5951   5.963   0.029   8.833 -2.0230 -0.0137 -0.3803
   69SLPC  H15Y 5952   5.879  -0.123   8.895  0.0871  0.2905 -0.1938
   69SLPC  C316 5953   5.938  -0.138   8.696  0.1261 -0.1665  0.5443
   69SLPC  H16X 5954   5.891  -0.238   8.694  1.0826 -0.6865  1.9123
   69SLPC  H16Y 5955   6.037  -0.144   8.646 -0.6573  0.3317 -1.1226
   69SLPC  C317 5956   5.857  -0.035   8.612 -0.7724  0.1609 -0.3400
   69SLPC  H17X 5957   5.906   0.064   8.606 -1.0242  0.3710  0.8487
   69SLPC  H17Y 5958   5.757  -0.031   8.660 -2.0093 -0.2887 -2.7217
   69SLPC  C318 5959   5.839  -0.084   8.463  0.1066 -0.3215  0.1204
   69SLPC  H18X 5960   5.849   0.010   8.406  1.3810  0.3627  1.4138
   69SLPC  H18Y 5961   5.741  -0.133   8.444  1.2045 -2.1096 -1.3079
   69SLPC  H18Z 5962   5.920  -0.157   8.442 -0.0956 -0.3501 -0.5810
   70SLPC     N 5963   1.426   4.046  10.870 -0.4573  0.3691  0.3610
   70SLPC   C13 5964   1.491   4.056  10.740 -0.1016 -0.0729  0.9622
   70SLPC  H13A 5965   1.571   3.986  10.720  0.3057  0.6300  0.0702
   70SLPC  H13B 5966   1.420   4.036  10.661 -0.8712  0.2644  1.5526
   70SLPC  H13C 5967   1.527   4.155  10.715 -2.4031  0.6070  0.0860
   70SLPC   C14 5968   1.533   4.080  10.969 -0.4221  0.4161 -0.2305
   70SLPC  H14A 5969   1.508   4.052  11.071 -0.9896  0.0800 -0.4569
   70SLPC  H14B 5970   1.627   4.031  10.944 -0.1349  1.5826 -1.5234
   70SLPC  H14C 5971   1.551   4.186  10.960 -1.8005  0.7674  0.7829
   70SLPC   C15 5972   1.393   3.903  10.898  0.0221  0.3039 -0.2374
   70SLPC  H15A 5973   1.350   3.908  10.997 -1.1623 -0.4100 -0.7015
   70SLPC  H15B 5974   1.316   3.857  10.838 -1.1573  0.7038  0.9214
   70SLPC  H15C 5975   1.478   3.837  10.893  0.6830  1.2513 -2.5478
   70SLPC   C12 5976   1.313   4.139  10.888  0.2999  0.1082 -0.1111
   70SLPC  H12A 5977   1.268   4.125  10.985 -1.0539  1.0063 -0.5740
   70SLPC  H12B 5978   1.240   4.120  10.811 -2.3105 -0.5459  2.3384
   70SLPC   C11 5979   1.349   4.287  10.874  0.0267 -0.8545 -0.8544
   70SLPC  H11A 5980   1.249   4.332  10.853  0.4058 -0.4272 -1.8018
   70SLPC  H11B 5981   1.412   4.298  10.783 -1.0123 -4.0683 -2.1204
   70SLPC     P 5982   1.388   4.496  11.024  0.0526 -0.3701 -0.3465
   70SLPC   O13 5983   1.261   4.495  11.098 -0.4027  0.7781  0.1932
   70SLPC   O14 5984   1.506   4.564  11.080  0.0856  0.1935  0.1420
   70SLPC   O12 5985   1.415   4.348  10.987  0.3273 -1.2639  0.1762
   70SLPC   O11 5986   1.364   4.560  10.884  0.3775 -0.6497 -0.7325
   70SLPC    C1 5987   1.249   4.647  10.860  0.3264 -0.1163  0.1770
   70SLPC    HA 5988   1.163   4.638  10.929 -1.5425 -0.0896 -2.0313
   70SLPC    HB 5989   1.278   4.754  10.872  0.1885 -0.2199  1.5536
   70SLPC    C2 5990   1.195   4.618  10.718  0.1578 -0.7336  0.2506
   70SLPC    HS 5991   1.166   4.511  10.715 -0.6541 -0.5174  0.1147
   70SLPC   O21 5992   1.290   4.664  10.620  0.1668 -0.4595 -0.2771
   70SLPC   C21 5993   1.317   4.593  10.508  0.4870  0.4205 -0.8454
   70SLPC   O22 5994   1.268   4.482  10.484 -0.1873 -0.3138 -0.1880
   70SLPC   C22 5995   1.438   4.657  10.430  0.6656 -0.0574  0.2952
   70SLPC   H2R 5996   1.495   4.723  10.499  1.8680 -0.6653 -0.0904
   70SLPC   H2S 5997   1.502   4.568  10.417  1.5236  0.7862 -1.6918
   70SLPC    C3 5998   1.067   4.707  10.688  0.3208  0.4700  0.2454
   70SLPC    HX 5999   1.107   4.811  10.690  0.9323  0.3152 -1.6966
   70SLPC    HY 6000   0.993   4.700  10.771  0.4239  0.3955  0.3310
   70SLPC   O31 6001   1.009   4.679  10.557 -0.3658 -0.6763 -0.2423
   70SLPC   C31 6002   0.954   4.562  10.553 -0.0472  0.1022 -0.4200
   70SLPC   O32 6003   0.966   4.476  10.635  0.0728 -0.3577  0.1340
   70SLPC   C32 6004   0.880   4.551  10.425 -0.8338  0.6027  0.5943
   70SLPC   H2X 6005   0.786   4.609  10.436 -0.3705  1.8126 -1.4031
   70SLPC   H2Y 6006   0.844   4.446  10.429 -1.5223  0.8182 -0.0176
   70SLPC   C23 6007   1.409   4.716  10.287 -0.2734  0.0798  0.4573
   70SLPC   H3R 6008   1.490   4.784  10.254 -1.9289  0.8410 -2.4094
   70SLPC   H3S 6009   1.316   4.776  10.301 -0.9679 -1.0912  1.0388
   70SLPC   C24 6010   1.385   4.604  10.185  0.0359 -0.4859 -1.2143
   70SLPC   H4R 6011   1.311   4.529  10.221 -1.1763  1.2434  0.0887
   70SLPC   H4S 6012   1.480   4.548  10.169  1.0135  0.0554  2.0323
   70SLPC   C25 6013   1.317   4.671  10.060 -0.5395 -0.6310  0.0448
   70SLPC   H5R 6014   1.357   4.774  10.057 -0.2404 -0.7514 -0.1382
   70SLPC   H5S 6015   1.206   4.671  10.067 -0.5409  0.6296  0.1288
   70SLPC   C26 6016   1.356   4.609   9.926  0.3433 -0.0110 -1.1931
   70SLPC   H6R 6017   1.338   4.501   9.948 -0.2024  0.4450  0.8506
   70SLPC   H6S 6018   1.465   4.619   9.907  0.8063 -0.1052  1.1853
   70SLPC   C27 6019   1.281   4.672   9.814  0.3956 -0.3489  0.6296
   70SLPC   H7R 6020   1.309   4.779   9.819 -0.7305  0.0861 -1.1920
   70SLPC   H7S 6021   1.171   4.654   9.823  0.4747 -1.1006  0.1857
   70SLPC   C28 6022   1.328   4.622   9.679  0.1207  0.0393  0.2988
   70SLPC   H8R 6023   1.439   4.618   9.681  0.1713  1.2028  1.1161
   70SLPC   H8S 6024   1.320   4.697   9.599  1.3702 -0.7670 -0.6228
   70SLPC   C29 6025   1.255   4.489   9.637  0.5720 -0.0272 -0.8345
   70SLPC   H9R 6026   1.197   4.447   9.721  1.5000  0.0776 -0.1242
   70SLPC  C210 6027   1.247   4.453   9.511  0.5819  0.2267  0.1062
   70SLPC  H10R 6028   1.186   4.363   9.492  1.6022 -0.4233 -0.1682
   70SLPC  C211 6029   1.319   4.517   9.390 -0.6513  0.7499 -0.1091
   70SLPC  H11R 6030   1.342   4.435   9.319  2.2050  0.6630  0.8074
   70SLPC  H11S 6031   1.420   4.559   9.407 -0.8426  0.5790  1.6404
   70SLPC  C212 6032   1.226   4.607   9.315 -0.0295  0.1173  0.2596
   70SLPC  H12R 6033   1.146   4.652   9.375  1.8119  1.8874  1.5050
   70SLPC  C213 6034   1.246   4.655   9.191  0.2583  0.6278 -0.0004
   70SLPC  H13R 6035   1.164   4.708   9.141 -0.0056 -2.1843 -2.9530
   70SLPC  C214 6036   1.371   4.627   9.113  0.3601 -0.7700 -0.5873
   70SLPC  H14R 6037   1.424   4.532   9.135 -1.4886 -1.4810  1.0574
   70SLPC  H14S 6038   1.440   4.712   9.131  0.3934 -0.4693 -2.0186
   70SLPC  C215 6039   1.341   4.649   8.957  0.5762  0.8342  0.0288
   70SLPC  H15R 6040   1.255   4.585   8.929  0.1128 -0.0100  2.9824
   70SLPC  H15S 6041   1.427   4.614   8.896 -0.2383  2.0746 -1.9265
   70SLPC  C216 6042   1.301   4.781   8.903 -0.1129 -0.1106 -0.4988
   70SLPC  H16R 6043   1.363   4.866   8.940 -0.5528  0.9387 -2.0769
   70SLPC  H16S 6044   1.201   4.803   8.947 -0.4943  1.2771 -1.9408
   70SLPC  C217 6045   1.287   4.798   8.753  0.6931  0.2576 -0.3186
   70SLPC  H17R 6046   1.228   4.709   8.721 -2.2036  2.1746 -0.6787
   70SLPC  H17S 6047   1.386   4.794   8.704  0.1406  0.0556 -1.4623
   70SLPC  C218 6048   1.205   4.925   8.713  0.4361 -0.0681 -0.1231
   70SLPC  H18R 6049   1.238   4.965   8.615  0.2140  1.4280  0.3971
   70SLPC  H18S 6050   1.222   4.996   8.797 -1.0147  1.0721 -0.7480
   70SLPC  H18T 6051   1.095   4.911   8.718  0.4096 -0.0105 -0.5100
   70SLPC   C33 6052   0.947   4.593  10.294  0.0541  0.7598 -0.0646
   70SLPC   H3X 6053   1.034   4.524  10.281 -0.0055  0.5158  0.7531
   70SLPC   H3Y 6054   0.983   4.698  10.295  2.1164  0.1031  0.3703
   70SLPC   C34 6055   0.849   4.569  10.181  0.2298  0.5135 -0.8776
   70SLPC   H4X 6056   0.775   4.651  10.185 -1.2301 -0.7877  1.5830
   70SLPC   H4Y 6057   0.785   4.480  10.200  0.7356 -0.0095 -1.5643
   70SLPC   C35 6058   0.914   4.569  10.043  0.1978 -0.7829  0.5269
   70SLPC   H5X 6059   0.991   4.492  10.019 -0.0623 -0.1268 -2.7249
   70SLPC   H5Y 6060   0.968   4.663  10.020  1.4692 -1.7428 -0.5617
   70SLPC   C36 6061   0.810   4.550   9.933  0.2008  0.3709 -0.1023
   70SLPC   H6X 6062   0.754   4.646   9.923  0.2701  0.2570 -1.8801
   70SLPC   H6Y 6063   0.740   4.467   9.956  0.5480 -0.6495 -2.4972
   70SLPC   C37 6064   0.879   4.534   9.796 -0.2935 -0.4524 -0.2461
   70SLPC   H7X 6065   0.963   4.463   9.811  1.0139  1.3779  1.7457
   70SLPC   H7Y 6066   0.924   4.631   9.768  1.3271 -1.1193 -0.0702
   70SLPC   C38 6067   0.784   4.479   9.686  0.2795 -0.2277 -0.2842
   70SLPC   H8X 6068   0.694   4.545   9.696  1.2696  1.0787  0.3014
   70SLPC   H8Y 6069   0.757   4.376   9.717  1.6458 -0.2963  0.7481
   70SLPC   C39 6070   0.838   4.480   9.544  0.3572  0.3336  0.6995
   70SLPC   H9X 6071   0.937   4.434   9.529 -0.4618 -2.1164  2.3087
   70SLPC   H9Y 6072   0.843   4.585   9.507  0.2696  0.0269 -0.2124
   70SLPC  C310 6073   0.751   4.416   9.436 -0.0917 -0.1543  0.2426
   70SLPC  H10X 6074   0.648   4.456   9.440  0.1969  0.5147  1.5294
   70SLPC  H10Y 6075   0.742   4.308   9.461  1.3073 -0.3490  0.0218
   70SLPC  C311 6076   0.806   4.425   9.291 -0.7297 -0.1245 -0.5534
   70SLPC  H11X 6077   0.904   4.373   9.286  0.1757  1.2130  1.8030
   70SLPC  H11Y 6078   0.826   4.529   9.258 -0.1483  0.3491  1.2214
   70SLPC  C312 6079   0.701   4.380   9.193 -0.2197  0.2077  0.4849
   70SLPC  H12X 6080   0.627   4.463   9.188  1.6074  1.9916  1.8761
   70SLPC  H12Y 6081   0.663   4.282   9.228  2.8426 -2.0137 -1.8667
   70SLPC  C313 6082   0.756   4.359   9.047  0.3710  0.3765  0.1199
   70SLPC  H13X 6083   0.674   4.308   8.991  0.2212 -0.4668  1.0634
   70SLPC  H13Y 6084   0.844   4.291   9.049 -0.1949 -0.4181 -0.9507
   70SLPC  C314 6085   0.783   4.491   8.975 -0.1240  0.4042 -0.2538
   70SLPC  H14X 6086   0.843   4.548   9.048 -1.8612 -0.1511  1.6840
   70SLPC  H14Y 6087   0.685   4.542   8.969  0.2156  1.1358  0.3148
   70SLPC  C315 6088   0.835   4.482   8.832  0.2029 -0.5196 -0.2317
   70SLPC  H15X 6089   0.794   4.559   8.763  0.0855 -0.2771  0.1103
   70SLPC  H15Y 6090   0.807   4.379   8.801 -2.6093 -0.6616  2.3026
   70SLPC  C316 6091   0.988   4.488   8.835  0.4262 -0.7100 -0.1242
   70SLPC  H16X 6092   1.027   4.418   8.913  1.9859  1.0300  0.7413
   70SLPC  H16Y 6093   1.015   4.594   8.855 -0.3834 -0.2880 -1.1833
   70SLPC  C317 6094   1.058   4.447   8.704 -0.1571  0.3371 -0.2657
   70SLPC  H17X 6095   1.065   4.336   8.698  1.4338  0.2337  2.1024
   70SLPC  H17Y 6096   1.165   4.475   8.716 -0.5101  1.2243  0.9797
   70SLPC  C318 6097   1.004   4.498   8.569 -0.4713 -0.1570  0.3443
   70SLPC  H18X 6098   0.915   4.449   8.525 -0.7339  0.9634 -0.4316
   70SLPC  H18Y 6099   1.082   4.489   8.490  0.1453  1.9111  0.6558
   70SLPC  H18Z 6100   0.984   4.607   8.574  0.1571 -0.0374  0.3556
   71SLPC     N 6101   0.046   4.060  11.011 -0.0666  0.3637  1.2440
   71SLPC   C13 6102   0.148   4.060  11.123 -0.2657 -0.4938  0.6673
   71SLPC  H13A 6103   0.104   4.075  11.221 -0.4059 -0.3739  0.5865
   71SLPC  H13B 6104   0.195   3.963  11.133  0.3481 -0.4651 -1.4155
   71SLPC  H13C 6105   0.219   4.140  11.111 -2.3685  1.1742 -1.5681
   71SLPC   C14 6106  -0.035   4.183  11.025  0.7094 -0.2799  0.1651
   71SLPC  H14A 6107  -0.085   4.183  11.121  1.9565 -0.7219  0.8307
   71SLPC  H14B 6108   0.031   4.268  11.022  1.7225 -1.0575 -0.1723
   71SLPC  H14C 6109  -0.108   4.194  10.946 -1.5368 -4.7640  1.2521
   71SLPC   C15 6110  -0.041   3.937  11.022 -0.6494  0.0506  0.6873
   71SLPC  H15A 6111  -0.093   3.922  11.115  0.9672  0.8394  1.7730
   71SLPC  H15B 6112  -0.114   3.934  10.943  1.2294  0.0779 -1.1638
   71SLPC  H15C 6113   0.022   3.849  11.017 -0.7909 -0.0777  1.1733
   71SLPC   C12 6114   0.128   4.058  10.886 -0.1345 -0.6522 -0.1044
   71SLPC  H12A 6115   0.199   3.977  10.893  1.0665  0.2724 -1.1001
   71SLPC  H12B 6116   0.186   4.149  10.888 -2.4659  0.9263 -0.4638
   71SLPC   C11 6117   0.063   4.047  10.740  0.5873 -0.5106 -0.3310
   71SLPC  H11A 6118   0.144   4.051  10.664  0.2317 -1.5068 -0.7812
   71SLPC  H11B 6119  -0.010   4.130  10.730  1.0903  0.0001  0.1835
   71SLPC     P 6120   0.094   3.793  10.689 -0.0980 -0.1239  0.2052
   71SLPC   O13 6121   0.199   3.779  10.792 -0.1681 -0.7847 -0.5748
   71SLPC   O14 6122  -0.003   3.679  10.681 -0.1701 -0.4684  0.3455
   71SLPC   O12 6123   0.002   3.921  10.713  0.7606 -0.4601 -1.2560
   71SLPC   O11 6124   0.169   3.818  10.560 -0.3464  0.0667 -0.1780
   71SLPC    C1 6125   0.091   3.842  10.437  0.1372 -0.5931 -0.3118
   71SLPC    HA 6126  -0.008   3.792  10.433  0.2679 -0.8726 -0.0413
   71SLPC    HB 6127   0.060   3.949  10.428  0.3939 -0.4026  0.9373
   71SLPC    C2 6128   0.163   3.796  10.310  0.5003 -0.3388 -0.3730
   71SLPC    HS 6129   0.263   3.844  10.320  0.7557 -0.8392 -0.4677
   71SLPC   O21 6130   0.090   3.833  10.193  0.7613  0.1558 -0.0136
   71SLPC   C21 6131   0.120   3.945  10.136  0.2083  0.2565 -0.3238
   71SLPC   O22 6132   0.206   4.026  10.168  0.1867 -0.7996 -0.1810
   71SLPC   C22 6133   0.021   3.970  10.025 -0.3120 -0.5079 -0.2311
   71SLPC   H2R 6134   0.041   3.904   9.938 -0.0054  0.0772 -0.6097
   71SLPC   H2S 6135  -0.074   3.926  10.065 -0.3494  0.6765  1.0889
   71SLPC    C3 6136   0.183   3.636  10.304 -0.0642 -1.2327 -0.3600
   71SLPC    HX 6137   0.087   3.580  10.312  1.1515 -3.2396  1.2335
   71SLPC    HY 6138   0.232   3.607  10.399  0.2004 -0.3094 -0.2027
   71SLPC   O31 6139   0.262   3.600  10.185  0.6230  0.3137 -0.3472
   71SLPC   C31 6140   0.388   3.645  10.178 -0.1559 -0.4740  0.0935
   71SLPC   O32 6141   0.445   3.706  10.268 -0.3109 -0.4100  0.2822
   71SLPC   C32 6142   0.443   3.622  10.039 -0.1895  0.2383 -0.0783
   71SLPC   H2X 6143   0.355   3.613   9.972 -0.3357  0.6232  0.0639
   71SLPC   H2Y 6144   0.514   3.537  10.032  0.6888  0.7820  1.5641
   71SLPC   C23 6145   0.005   4.119   9.994  0.2388  0.2581  0.5138
   71SLPC   H3R 6146   0.091   4.152   9.932 -1.1637 -1.0653 -2.3297
   71SLPC   H3S 6147   0.008   4.181  10.086  0.5045  0.4918  0.3499
   71SLPC   C24 6148  -0.127   4.159   9.932 -0.1689  0.2386 -0.3843
   71SLPC   H4R 6149  -0.158   4.265   9.944 -1.0309 -0.1117  0.6203
   71SLPC   H4S 6150  -0.208   4.120   9.997  0.3603 -1.7061 -0.8248
   71SLPC   C25 6151  -0.150   4.112   9.792 -0.7333 -0.0807  0.6332
   71SLPC   H5R 6152  -0.251   4.071   9.772 -0.6216  0.3742 -1.0346
   71SLPC   H5S 6153  -0.075   4.032   9.771  2.3828  3.2592 -2.3817
   71SLPC   C26 6154  -0.122   4.218   9.685 -0.1515 -0.0601  0.3452
   71SLPC   H6R 6155  -0.014   4.244   9.693 -0.2777  1.1235 -1.3055
   71SLPC   H6S 6156  -0.182   4.310   9.693 -0.7621 -0.4445  0.2411
   71SLPC   C27 6157  -0.149   4.170   9.538 -0.3460 -0.4174  0.9404
   71SLPC   H7R 6158  -0.255   4.201   9.521  0.5780  4.2066  2.2574
   71SLPC   H7S 6159  -0.146   4.060   9.520 -2.2546 -0.3067 -0.4461
   71SLPC   C28 6160  -0.043   4.225   9.441  1.0052 -0.0499 -0.1258
   71SLPC   H8R 6161   0.055   4.174   9.450  2.1295  1.7122 -1.5168
   71SLPC   H8S 6162  -0.024   4.334   9.452  0.7617 -0.0549  0.3760
   71SLPC   C29 6163  -0.082   4.197   9.294  0.2658  0.1325  0.5045
   71SLPC   H9R 6164  -0.089   4.090   9.270 -1.2176  0.5412 -1.0724
   71SLPC  C210 6165  -0.135   4.279   9.200 -0.2230  0.1901 -0.5519
   71SLPC  H10R 6166  -0.152   4.243   9.097 -2.8278  1.3890 -0.6240
   71SLPC  C211 6167  -0.154   4.432   9.225  0.4092  0.2626 -0.4657
   71SLPC  H11R 6168  -0.073   4.463   9.294 -0.2890  1.1179 -0.0041
   71SLPC  H11S 6169  -0.250   4.438   9.279 -0.3139 -0.3546 -1.6374
   71SLPC  C212 6170  -0.154   4.519   9.097  0.0146 -0.8245 -0.0108
   71SLPC  H12R 6171  -0.061   4.569   9.065 -0.4275 -1.2921 -2.1186
   71SLPC  C213 6172  -0.260   4.537   9.014 -0.0244  0.1587  0.2497
   71SLPC  H13R 6173  -0.247   4.585   8.916  0.7247 -0.2030  0.1662
   71SLPC  C214 6174  -0.393   4.474   9.021 -0.1532 -0.5221 -0.5361
   71SLPC  H14R 6175  -0.471   4.552   9.031 -0.6286 -1.0654  0.0912
   71SLPC  H14S 6176  -0.393   4.416   9.116  4.1443  0.7012  0.4298
   71SLPC  C215 6177  -0.438   4.384   8.901 -0.3691  0.4272 -0.7756
   71SLPC  H15R 6178  -0.529   4.325   8.924 -0.2120 -0.2268 -1.7696
   71SLPC  H15S 6179  -0.366   4.307   8.867  0.5902  0.3833  1.2202
   71SLPC  C216 6180  -0.473   4.471   8.785 -0.0559 -0.8841  0.5053
   71SLPC  H16R 6181  -0.384   4.528   8.753 -0.6621  0.7833  1.6618
   71SLPC  H16S 6182  -0.558   4.540   8.804 -1.5964 -2.6248  0.2111
   71SLPC  C217 6183  -0.519   4.399   8.659 -0.0708 -0.4237  0.0208
   71SLPC  H17R 6184  -0.607   4.340   8.692  0.8443 -2.3890 -0.9037
   71SLPC  H17S 6185  -0.442   4.327   8.625 -0.8379 -0.9988 -0.5404
   71SLPC  C218 6186  -0.537   4.496   8.543  0.1884  0.4067 -0.7154
   71SLPC  H18R 6187  -0.439   4.546   8.526  0.6119  1.1122  2.9030
   71SLPC  H18S 6188  -0.613   4.572   8.569  1.1695  0.4007  2.5912
   71SLPC  H18T 6189  -0.567   4.436   8.455  1.3510  1.8685 -2.1677
   71SLPC   C33 6190   0.511   3.754   9.993  0.4078  0.4051 -1.0259
   71SLPC   H3X 6191   0.620   3.737  10.000  0.1636 -0.6730  1.1246
   71SLPC   H3Y 6192   0.488   3.848  10.047  1.2404 -0.7447  1.4922
   71SLPC   C34 6193   0.509   3.786   9.838 -0.5783 -0.1480  0.1273
   71SLPC   H4X 6194   0.571   3.877   9.829 -0.1575 -0.5662 -1.5582
   71SLPC   H4Y 6195   0.404   3.812   9.813 -0.8663 -0.6422  0.7810
   71SLPC   C35 6196   0.574   3.680   9.743 -0.1765 -0.9697 -0.3419
   71SLPC   H5X 6197   0.513   3.587   9.745  0.1628 -1.1860  0.5310
   71SLPC   H5Y 6198   0.677   3.652   9.773  0.6194  2.0426  0.0569
   71SLPC   C36 6199   0.578   3.730   9.600 -0.0508  0.4579 -0.3108
   71SLPC   H6X 6200   0.618   3.830   9.574  0.8290 -0.1405 -1.3863
   71SLPC   H6Y 6201   0.473   3.732   9.564 -1.2571  0.1297  2.8702
   71SLPC   C37 6202   0.656   3.632   9.509 -0.6368 -0.1505  0.0311
   71SLPC   H7X 6203   0.606   3.534   9.527 -0.5599 -0.1737  0.1160
   71SLPC   H7Y 6204   0.763   3.635   9.537 -0.2832 -2.0772 -0.9216
   71SLPC   C38 6205   0.634   3.649   9.355  0.8874  0.4112 -0.9784
   71SLPC   H8X 6206   0.638   3.759   9.336 -1.6227  1.1133  1.7811
   71SLPC   H8Y 6207   0.532   3.607   9.343  1.0558 -0.6563  0.9312
   71SLPC   C39 6208   0.734   3.572   9.275 -0.3388  1.0105 -0.5029
   71SLPC   H9X 6209   0.731   3.463   9.297 -0.3776  0.9959 -0.5785
   71SLPC   H9Y 6210   0.837   3.599   9.305 -0.8605  2.4808  0.0102
   71SLPC  C310 6211   0.712   3.582   9.129 -0.4232  0.4607  0.0081
   71SLPC  H10X 6212   0.724   3.691   9.111 -1.7711  0.6793  0.3054
   71SLPC  H10Y 6213   0.613   3.548   9.092 -1.2262  2.4949  0.1405
   71SLPC  C311 6214   0.834   3.519   9.051  0.1470 -0.4047  0.1044
   71SLPC  H11X 6215   0.933   3.540   9.097  0.4830  1.7699 -1.4494
   71SLPC  H11Y 6216   0.833   3.566   8.951 -0.1174 -1.4609 -0.4034
   71SLPC  C312 6217   0.800   3.372   9.022  0.4265  0.3824 -0.0898
   71SLPC  H12X 6218   0.764   3.326   9.116  0.8713 -0.0083 -0.1077
   71SLPC  H12Y 6219   0.888   3.314   8.987 -1.5224 -3.0227  0.2703
   71SLPC  C313 6220   0.678   3.347   8.924 -0.3675  0.1429 -0.7146
   71SLPC  H13X 6221   0.695   3.403   8.830  0.2715  0.1394 -0.6056
   71SLPC  H13Y 6222   0.583   3.389   8.962 -0.5024  2.4255 -3.2704
   71SLPC  C314 6223   0.653   3.195   8.906 -0.2079  0.3858  0.0113
   71SLPC  H14X 6224   0.624   3.149   9.002  0.6941 -1.3355 -0.4903
   71SLPC  H14Y 6225   0.747   3.159   8.859  0.2891 -0.8492  1.8527
   71SLPC  C315 6226   0.529   3.166   8.817  0.2844 -0.3668  0.0667
   71SLPC  H15X 6227   0.536   3.215   8.717  2.5865 -3.3839 -1.4072
   71SLPC  H15Y 6228   0.442   3.203   8.875  0.2326 -0.3354 -0.0305
   71SLPC  C316 6229   0.531   3.014   8.792 -1.0883  0.1451 -0.6449
   71SLPC  H16X 6230   0.519   2.967   8.892 -0.3777  1.0162 -0.1373
   71SLPC  H16Y 6231   0.627   2.979   8.750 -1.2479 -0.7394 -0.3112
   71SLPC  C317 6232   0.420   2.965   8.706 -0.8454  0.3340 -0.1296
   71SLPC  H17X 6233   0.414   3.027   8.613  0.6992  0.8830  0.1182
   71SLPC  H17Y 6234   0.322   2.960   8.758 -0.5141  0.0327  0.4705
   71SLPC  C318 6235   0.456   2.824   8.665  0.4949  0.0490 -0.8196
   71SLPC  H18X 6236   0.370   2.776   8.613 -2.2833  1.8351  1.7719
   71SLPC  H18Y 6237   0.481   2.756   8.749 -2.2246 -0.7305 -0.5388
   71SLPC  H18Z 6238   0.546   2.823   8.600  1.2226 -0.9306  0.1641
   72SLPC     N 6239   0.786   1.308  11.292 -0.3033 -0.6289  0.0755
   72SLPC   C13 6240   0.745   1.206  11.402  0.2708  0.3713 -0.4334
   72SLPC  H13A 6241   0.786   1.109  11.382  0.2025  0.2013  0.2233
   72SLPC  H13B 6242   0.755   1.232  11.507 -0.8678 -0.8083 -0.0072
   72SLPC  H13C 6243   0.639   1.186  11.392 -0.1995  1.8717  0.9054
   72SLPC   C14 6244   0.929   1.323  11.284 -0.0388 -0.5627  0.8083
   72SLPC  H14A 6245   0.968   1.381  11.367  2.3261 -2.0093  0.7917
   72SLPC  H14B 6246   0.993   1.236  11.286  3.0312  1.4046 -1.4934
   72SLPC  H14C 6247   0.970   1.371  11.196  2.7080 -1.2645  1.6342
   72SLPC   C15 6248   0.738   1.444  11.325  0.4522 -0.0944  0.2128
   72SLPC  H15A 6249   0.757   1.481  11.425 -2.2318  0.4506  0.6070
   72SLPC  H15B 6250   0.784   1.520  11.265 -2.4064  0.6397 -1.2387
   72SLPC  H15C 6251   0.634   1.463  11.303  0.4714 -0.0331  0.1735
   72SLPC   C12 6252   0.734   1.275  11.153 -0.6319 -0.8526  0.0503
   72SLPC  H12A 6253   0.761   1.172  11.130  0.4057 -0.0927 -2.5390
   72SLPC  H12B 6254   0.777   1.340  11.078  2.8146 -1.2345  1.4872
   72SLPC   C11 6255   0.581   1.300  11.118  0.4247  0.2338 -0.2072
   72SLPC  H11A 6256   0.513   1.254  11.193 -1.9320  1.2974 -1.5857
   72SLPC  H11B 6257   0.570   1.251  11.019 -0.4130  0.2096 -0.1020
   72SLPC     P 6258   0.596   1.531  10.997 -0.1368  0.0358 -0.0429
   72SLPC   O13 6259   0.568   1.668  11.043 -0.0475  0.2018 -0.3678
   72SLPC   O14 6260   0.738   1.488  10.968 -0.5409 -0.2285 -0.6531
   72SLPC   O12 6261   0.535   1.432  11.103  0.0208  0.7155 -0.4122
   72SLPC   O11 6262   0.507   1.503  10.870 -0.7356 -0.4073  0.2884
   72SLPC    C1 6263   0.555   1.393  10.782  0.4156 -0.0759  0.1238
   72SLPC    HA 6264   0.623   1.320  10.831  1.4044  0.9098  0.2719
   72SLPC    HB 6265   0.466   1.331  10.759 -0.7167  0.5690  2.4639
   72SLPC    C2 6266   0.617   1.447  10.647  0.2639  0.3835 -0.4192
   72SLPC    HS 6267   0.695   1.522  10.676  0.9027 -0.0130 -1.0702
   72SLPC   O21 6268   0.521   1.500  10.561  0.5279  0.0157  0.1340
   72SLPC   C21 6269   0.537   1.621  10.511 -0.6060 -0.6508 -0.5605
   72SLPC   O22 6270   0.629   1.698  10.537  0.0166 -0.1314  0.3360
   72SLPC   C22 6271   0.411   1.655  10.436  0.9352 -1.1250 -0.0813
   72SLPC   H2R 6272   0.328   1.625  10.504  0.6364 -1.4909 -0.6079
   72SLPC   H2S 6273   0.404   1.766  10.434 -0.5674 -1.1651  0.8524
   72SLPC    C3 6274   0.692   1.340  10.572 -0.4867  0.0659 -0.5113
   72SLPC    HX 6275   0.636   1.244  10.563 -2.1071  1.0726 -1.6923
   72SLPC    HY 6276   0.778   1.313  10.637 -0.8192  1.3000  0.4924
   72SLPC   O31 6277   0.745   1.380  10.447  0.0973  0.4541  0.1916
   72SLPC   C31 6278   0.746   1.299  10.343 -0.2788  0.3251  0.8697
   72SLPC   O32 6279   0.687   1.191  10.337 -0.0629 -0.4612  0.3953
   72SLPC   C32 6280   0.834   1.350  10.226 -0.2159  0.3577  0.2139
   72SLPC   H2X 6281   0.943   1.342  10.247 -0.3663 -4.3377  0.2291
   72SLPC   H2Y 6282   0.814   1.458  10.208 -0.7290 -0.1279 -2.4629
   72SLPC   C23 6283   0.395   1.585  10.300 -0.0148 -0.2574 -0.6124
   72SLPC   H3R 6284   0.291   1.596  10.261  1.0257  0.5073 -3.4745
   72SLPC   H3S 6285   0.415   1.477  10.307  1.3909 -0.2752 -3.4767
   72SLPC   C24 6286   0.482   1.646  10.190 -0.3652 -0.2280  0.0864
   72SLPC   H4R 6287   0.592   1.629  10.198 -0.4468 -0.3359  1.1404
   72SLPC   H4S 6288   0.485   1.756  10.181  4.1146 -0.3128 -2.3230
   72SLPC   C25 6289   0.451   1.587  10.049  0.1462  0.5586  0.0983
   72SLPC   H5R 6290   0.473   1.478  10.050  2.2814  0.8740 -1.9137
   72SLPC   H5S 6291   0.524   1.632   9.978  0.8916  0.1876  0.6240
   72SLPC   C26 6292   0.313   1.623   9.996  0.6490  0.8825 -0.2766
   72SLPC   H6R 6293   0.309   1.731   9.967 -0.7532  0.4904 -1.6792
   72SLPC   H6S 6294   0.236   1.611  10.075  0.9176  0.6781 -0.0409
   72SLPC   C27 6295   0.280   1.539   9.867 -0.1827 -0.6807  0.6102
   72SLPC   H7R 6296   0.247   1.441   9.907 -3.2555 -0.1960 -0.5399
   72SLPC   H7S 6297   0.376   1.532   9.810 -0.8929  1.4731 -0.9587
   72SLPC   C28 6298   0.163   1.589   9.777 -0.3152  0.7675  0.1144
   72SLPC   H8R 6299   0.074   1.620   9.835  0.2304  0.0256  1.3992
   72SLPC   H8S 6300   0.138   1.495   9.723 -0.8635  0.8037  0.3015
   72SLPC   C29 6301   0.202   1.700   9.691 -0.4991 -0.5861  0.3055
   72SLPC   H9R 6302   0.210   1.797   9.743  0.7352  0.1397 -1.1582
   72SLPC  C210 6303   0.210   1.701   9.554 -0.5875  0.4388 -0.4284
   72SLPC  H10R 6304   0.256   1.790   9.509 -0.5015 -0.2344 -1.7305
   72SLPC  C211 6305   0.201   1.579   9.463 -0.2280 -0.7345 -0.8236
   72SLPC  H11R 6306   0.184   1.485   9.520  0.8779 -1.3337 -1.4526
   72SLPC  H11S 6307   0.304   1.554   9.431 -0.6458 -1.5013 -1.6077
   72SLPC  C212 6308   0.097   1.584   9.351 -0.3115  0.0411 -0.2239
   72SLPC  H12R 6309   0.008   1.529   9.385  0.4021  0.3426  2.3185
   72SLPC  C213 6310   0.111   1.636   9.230  0.4128 -0.1058  0.8321
   72SLPC  H13R 6311   0.020   1.638   9.168 -1.0023  1.4908  2.7978
   72SLPC  C214 6312   0.239   1.706   9.174  0.0507  0.8213 -0.3295
   72SLPC  H14R 6313   0.313   1.687   9.255 -1.6829 -0.0033  1.1281
   72SLPC  H14S 6314   0.230   1.816   9.163 -0.9366  1.0828  2.3767
   72SLPC  C215 6315   0.289   1.657   9.036 -0.1416  0.4767  0.8816
   72SLPC  H15R 6316   0.329   1.553   9.043 -1.3196  0.0283  1.2628
   72SLPC  H15S 6317   0.378   1.715   9.005 -0.1989 -0.5429 -1.4044
   72SLPC  C216 6318   0.189   1.668   8.917 -0.1987  0.8057 -0.1075
   72SLPC  H16R 6319   0.153   1.773   8.910 -1.0084  0.6634  1.4590
   72SLPC  H16S 6320   0.101   1.602   8.932  1.4497 -1.4301  0.2817
   72SLPC  C217 6321   0.250   1.611   8.788  0.0763 -0.0351 -0.3465
   72SLPC  H17R 6322   0.280   1.505   8.800 -0.4091  0.1433  4.0646
   72SLPC  H17S 6323   0.340   1.669   8.761  0.5685 -0.9721 -0.7841
   72SLPC  C218 6324   0.151   1.628   8.675  0.1542  0.0371  0.8836
   72SLPC  H18R 6325   0.116   1.732   8.658 -1.5737 -0.8166 -1.2622
   72SLPC  H18S 6326   0.064   1.563   8.696  0.3003 -0.8008 -0.9459
   72SLPC  H18T 6327   0.204   1.601   8.581 -0.1666  0.7499  0.4893
   72SLPC   C33 6328   0.798   1.279  10.091  0.3571  0.6756 -0.0863
   72SLPC   H3X 6329   0.690   1.280  10.068  0.4592 -0.7402 -0.7432
   72SLPC   H3Y 6330   0.837   1.176  10.102  0.7802  0.7386 -0.8867
   72SLPC   C34 6331   0.877   1.337   9.976 -0.0992  0.6929 -0.1683
   72SLPC   H4X 6332   0.899   1.255   9.904  0.6861  0.3214  0.4837
   72SLPC   H4Y 6333   0.975   1.373  10.014 -0.2048 -0.2272  1.0383
   72SLPC   C35 6334   0.818   1.461   9.913 -0.0984 -0.4061 -0.8348
   72SLPC   H5X 6335   0.781   1.527   9.994  2.3303 -0.9410  0.8232
   72SLPC   H5Y 6336   0.733   1.438   9.845 -1.5304 -0.9066  1.0585
   72SLPC   C36 6337   0.921   1.545   9.838  0.1330 -0.0591  0.4868
   72SLPC   H6X 6338   1.014   1.558   9.897  1.1178 -1.3833 -0.6989
   72SLPC   H6Y 6339   0.883   1.647   9.815  2.5657  1.1898  1.6721
   72SLPC   C37 6340   0.962   1.488   9.700  0.0107 -0.1709 -0.6339
   72SLPC   H7X 6341   0.899   1.524   9.615  0.8630 -0.0482 -1.2225
   72SLPC   H7Y 6342   0.938   1.380   9.711 -0.9988 -0.0433 -1.4164
   72SLPC   C38 6343   1.113   1.505   9.681 -0.4861  0.1835  0.3111
   72SLPC   H8X 6344   1.152   1.440   9.762  0.0860  1.8599  1.4190
   72SLPC   H8Y 6345   1.159   1.606   9.686  1.8907 -0.8751  1.4116
   72SLPC   C39 6346   1.159   1.460   9.542 -0.2258  0.3948  0.2475
   72SLPC   H9X 6347   1.258   1.502   9.516 -0.2228 -0.7535 -1.9029
   72SLPC   H9Y 6348   1.092   1.502   9.464  1.6735  1.9588 -0.6234
   72SLPC  C310 6349   1.163   1.311   9.519 -0.6291  0.2591  0.2137
   72SLPC  H10X 6350   1.058   1.273   9.518 -0.1843 -1.1095  1.5731
   72SLPC  H10Y 6351   1.213   1.255   9.601  1.5909  1.1817 -0.4466
   72SLPC  C311 6352   1.223   1.286   9.381 -0.5380 -0.6293 -0.4177
   72SLPC  H11X 6353   1.251   1.179   9.393 -0.9635 -0.8361 -1.2159
   72SLPC  H11Y 6354   1.316   1.345   9.365 -0.8600  0.6256  1.9348
   72SLPC  C312 6355   1.125   1.302   9.271  0.5187  0.4030  0.3595
   72SLPC  H12X 6356   1.108   1.410   9.252  3.2377  0.7034 -0.8227
   72SLPC  H12Y 6357   1.024   1.258   9.289  0.4797 -0.6019 -1.8750
   72SLPC  C313 6358   1.174   1.235   9.141 -0.3306  0.0036 -0.6889
   72SLPC  H13X 6359   1.171   1.125   9.150  1.0584 -0.2179 -2.2671
   72SLPC  H13Y 6360   1.281   1.264   9.130  0.3189 -0.5930  2.8191
   72SLPC  C314 6361   1.100   1.274   9.010 -0.1188 -0.4830  0.5784
   72SLPC  H14X 6362   1.102   1.385   8.999 -1.5669 -0.6241 -2.1219
   72SLPC  H14Y 6363   0.992   1.258   9.032 -0.7713  2.8869  0.3261
   72SLPC  C315 6364   1.143   1.204   8.886 -0.5214  0.1659 -0.5043
   72SLPC  H15X 6365   1.173   1.098   8.901 -2.3839 -0.0092  2.9278
   72SLPC  H15Y 6366   1.230   1.255   8.840 -0.1235 -0.4591 -0.4624
   72SLPC  C316 6367   1.027   1.206   8.784  0.1355 -0.5969 -0.1150
   72SLPC  H16X 6368   1.003   1.313   8.768  1.9731  0.1654  1.7110
   72SLPC  H16Y 6369   0.945   1.150   8.832 -2.8025  1.9277 -1.7985
   72SLPC  C317 6370   1.057   1.143   8.643  0.2221  0.7675  0.2991
   72SLPC  H17X 6371   1.116   1.052   8.664  0.9023  1.7768  3.2995
   72SLPC  H17Y 6372   1.126   1.216   8.594  2.2645 -1.9745 -1.1806
   72SLPC  C318 6373   0.937   1.127   8.551  0.3326  0.4496 -0.2767
   72SLPC  H18X 6374   0.858   1.062   8.594  0.4058 -0.1309 -0.9978
   72SLPC  H18Y 6375   0.967   1.062   8.466 -0.6250 -0.6236  0.1814
   72SLPC  H18Z 6376   0.904   1.226   8.514  0.3927 -0.2883 -2.4011
   73SLPC     N 6377   1.517   0.978  11.312 -0.2049  0.6010  0.0733
   73SLPC   C13 6378   1.641   0.908  11.269  0.7113  0.0996 -0.3026
   73SLPC  H13A 6379   1.624   0.802  11.257 -1.0776  0.3385 -0.0798
   73SLPC  H13B 6380   1.679   0.949  11.177  1.1533 -1.1485 -0.7075
   73SLPC  H13C 6381   1.707   0.911  11.355 -0.4742  0.8996  0.6032
   73SLPC   C14 6382   1.547   1.113  11.360  0.3984 -0.1972  0.1881
   73SLPC  H14A 6383   1.610   1.112  11.448 -1.6653  3.0342  1.9264
   73SLPC  H14B 6384   1.590   1.169  11.279 -1.8770 -0.6887 -1.4586
   73SLPC  H14C 6385   1.456   1.165  11.384  0.2692  0.7177 -2.0830
   73SLPC   C15 6386   1.452   0.902  11.420 -0.4140 -0.1228 -0.3516
   73SLPC  H15A 6387   1.442   0.799  11.389  1.1642 -0.8089  1.2104
   73SLPC  H15B 6388   1.501   0.893  11.516 -0.4560  0.4095 -0.2770
   73SLPC  H15C 6389   1.350   0.934  11.435 -0.8431 -0.4461 -2.2757
   73SLPC   C12 6390   1.428   0.964  11.185  0.5680 -0.2134 -0.6330
   73SLPC  H12A 6391   1.331   1.005  11.206  0.1502 -1.6082  0.3079
   73SLPC  H12B 6392   1.403   0.861  11.163  2.6131 -0.2017 -3.5922
   73SLPC   C11 6393   1.479   1.025  11.046  0.1092  0.3189 -0.0225
   73SLPC  H11A 6394   1.501   1.133  11.061 -1.4382  0.7100 -0.4361
   73SLPC  H11B 6395   1.391   1.022  10.980 -1.3861  1.9185  1.7831
   73SLPC     P 6396   1.574   0.810  10.930  0.0030 -0.5833 -0.0003
   73SLPC   O13 6397   1.705   0.741  10.927  0.1410 -0.3388 -0.0303
   73SLPC   O14 6398   1.449   0.746  10.968  0.2176 -0.1285  0.8637
   73SLPC   O12 6399   1.595   0.950  10.995  0.9759 -0.6007 -0.4563
   73SLPC   O11 6400   1.556   0.862  10.781 -0.1968  0.0869 -0.5416
   73SLPC    C1 6401   1.643   0.962  10.720 -0.4411 -0.9076 -0.3358
   73SLPC    HA 6402   1.619   1.066  10.749  1.7157 -0.7707  1.1879
   73SLPC    HB 6403   1.752   0.946  10.739 -0.4463 -1.1270 -0.4839
   73SLPC    C2 6404   1.627   0.974  10.566  0.0637 -0.0194  0.6149
   73SLPC    HS 6405   1.523   0.973  10.529 -0.0041  2.3801  0.5650
   73SLPC   O21 6406   1.712   0.871  10.502 -0.5735 -0.3852 -0.1287
   73SLPC   C21 6407   1.649   0.762  10.467  0.2210 -0.4813 -1.0707
   73SLPC   O22 6408   1.526   0.746  10.472  0.2500  0.5173 -0.2043
   73SLPC   C22 6409   1.750   0.650  10.428 -0.4291 -0.2896  0.0582
   73SLPC   H2R 6410   1.825   0.643  10.510  1.3455 -1.7021 -1.5662
   73SLPC   H2S 6411   1.704   0.550  10.442  0.3528 -0.8448 -1.1387
   73SLPC    C3 6412   1.681   1.114  10.529  0.5409 -0.1679  0.6819
   73SLPC    HX 6413   1.784   1.126  10.568 -0.3442 -0.2046  3.2185
   73SLPC    HY 6414   1.609   1.187  10.572 -2.6308 -1.7955 -1.3982
   73SLPC   O31 6415   1.664   1.141  10.383  0.1666 -0.1424  0.0153
   73SLPC   C31 6416   1.768   1.160  10.303  0.0263  0.0881  0.0403
   73SLPC   O32 6417   1.886   1.160  10.342  0.2386  0.3166  0.0103
   73SLPC   C32 6418   1.706   1.187  10.164  0.1240 -0.5188  0.2263
   73SLPC   H2X 6419   1.775   1.249  10.103  0.2413 -1.0260 -0.1705
   73SLPC   H2Y 6420   1.620   1.256  10.177 -0.2606 -1.1012  0.8354
   73SLPC   C23 6421   1.823   0.678  10.299 -0.9082  0.0432  0.1738
   73SLPC   H3R 6422   1.846   0.786  10.314 -1.2140 -0.1112  1.9859
   73SLPC   H3S 6423   1.753   0.680  10.212  0.5190 -0.6852 -1.0389
   73SLPC   C24 6424   1.949   0.592  10.262  0.4075 -0.0384  0.1964
   73SLPC   H4R 6425   1.924   0.485  10.281  0.4205 -0.4610 -1.9060
   73SLPC   H4S 6426   2.033   0.620  10.329 -1.1963  1.4678  1.6449
   73SLPC   C25 6427   1.993   0.597  10.113  0.2707  0.0273 -0.1768
   73SLPC   H5R 6428   2.086   0.536  10.104 -0.1543 -0.4345 -1.6037
   73SLPC   H5S 6429   2.007   0.702  10.082  0.9391 -0.0640 -0.1954
   73SLPC   C26 6430   1.906   0.517  10.016  0.1254 -0.2527 -0.8643
   73SLPC   H6R 6431   1.939   0.505   9.910 -0.7423  0.7652 -1.2710
   73SLPC   H6S 6432   1.815   0.581  10.005 -0.1358  0.0394  2.1410
   73SLPC   C27 6433   1.852   0.380  10.066 -0.2536  0.4682  0.2061
   73SLPC   H7R 6434   1.790   0.397  10.157  2.9432  1.1596  2.3851
   73SLPC   H7S 6435   1.941   0.324  10.102  0.1683  0.7485 -0.3949
   73SLPC   C28 6436   1.765   0.307   9.966  0.0893 -0.7522  0.4214
   73SLPC   H8R 6437   1.717   0.391   9.911  2.3634 -0.3269 -1.0563
   73SLPC   H8S 6438   1.692   0.244  10.021 -0.1856 -0.7728  0.0369
   73SLPC   C29 6439   1.839   0.233   9.856 -0.1005  1.0572 -0.0430
   73SLPC   H9R 6440   1.946   0.214   9.873 -0.4350 -0.2219  0.8259
   73SLPC  C210 6441   1.788   0.202   9.737  0.0287  0.8338 -0.0554
   73SLPC  H10R 6442   1.862   0.166   9.665  0.2273  0.4690  0.3281
   73SLPC  C211 6443   1.649   0.220   9.686  0.5596  0.3784  0.1073
   73SLPC  H11R 6444   1.640   0.312   9.624 -2.1592  0.8141  1.0017
   73SLPC  H11S 6445   1.578   0.241   9.769 -0.0794 -0.8576 -0.0902
   73SLPC  C212 6446   1.599   0.105   9.603  0.8471 -0.0701  0.4199
   73SLPC  H12R 6447   1.637   0.004   9.628  1.0399  0.0655  0.6758
   73SLPC  C213 6448   1.540   0.108   9.476 -0.2648 -0.1459  0.2289
   73SLPC  H13R 6449   1.517   0.014   9.424  3.5091 -1.9652  1.4741
   73SLPC  C214 6450   1.497   0.239   9.407 -0.0874 -0.7304 -0.7210
   73SLPC  H14R 6451   1.470   0.324   9.473 -1.4109 -1.0091 -0.8874
   73SLPC  H14S 6452   1.397   0.225   9.361 -0.2078  0.9066 -1.0109
   73SLPC  C215 6453   1.602   0.306   9.314 -0.0845 -0.6403 -0.5252
   73SLPC  H15R 6454   1.695   0.314   9.374  0.0446  0.4645 -0.8544
   73SLPC  H15S 6455   1.572   0.404   9.272 -0.2251 -0.4720 -0.0331
   73SLPC  C216 6456   1.644   0.225   9.191 -0.0950  0.0399 -0.4538
   73SLPC  H16R 6457   1.565   0.216   9.114 -1.6687 -0.2518  1.1141
   73SLPC  H16S 6458   1.676   0.121   9.213 -0.9467 -0.8564 -3.1267
   73SLPC  C217 6459   1.764   0.297   9.126 -0.2791 -0.1577 -0.2594
   73SLPC  H17R 6460   1.837   0.326   9.206 -0.8435 -0.0815  0.2335
   73SLPC  H17S 6461   1.726   0.391   9.080  0.7056  0.6677  0.5322
   73SLPC  C218 6462   1.828   0.209   9.010 -0.3263 -0.1527  0.0467
   73SLPC  H18R 6463   1.737   0.176   8.955 -1.4876  1.4839  0.8828
   73SLPC  H18S 6464   1.903   0.132   9.036  1.4608  0.3861 -3.0312
   73SLPC  H18T 6465   1.883   0.278   8.943  0.7304  1.1102  2.1067
   73SLPC   C33 6466   1.653   1.058  10.099  0.2121 -0.0520  0.0852
   73SLPC   H3X 6467   1.566   1.079  10.033 -0.6927 -0.7385  1.0249
   73SLPC   H3Y 6468   1.611   0.984  10.171 -0.0854  1.8989  2.0190
   73SLPC   C34 6469   1.757   0.994  10.004  0.4588  0.4684  0.1145
   73SLPC   H4X 6470   1.843   0.943  10.053  2.0761  2.1321 -0.8771
   73SLPC   H4Y 6471   1.798   1.077   9.943  2.2812 -0.5467 -0.1374
   73SLPC   C35 6472   1.687   0.882   9.913 -0.0232  0.5287 -0.0544
   73SLPC   H5X 6473   1.585   0.916   9.885 -0.0970 -0.4795 -1.0601
   73SLPC   H5Y 6474   1.689   0.796   9.984 -3.3718 -0.9954 -1.5983
   73SLPC   C36 6475   1.775   0.845   9.792 -0.1364 -0.6367 -0.2690
   73SLPC   H6X 6476   1.875   0.811   9.828 -0.9411 -1.1740  1.6362
   73SLPC   H6Y 6477   1.793   0.935   9.731  1.2143 -0.4461  0.3631
   73SLPC   C37 6478   1.700   0.748   9.704 -0.4416 -0.2359 -0.5946
   73SLPC   H7X 6479   1.606   0.807   9.695  0.6482  1.7665  0.2586
   73SLPC   H7Y 6480   1.677   0.660   9.767  2.5001  0.3602  1.5293
   73SLPC   C38 6481   1.765   0.709   9.572  0.2102  0.2007  0.4935
   73SLPC   H8X 6482   1.763   0.807   9.521  2.3779 -0.0969 -0.2695
   73SLPC   H8Y 6483   1.698   0.641   9.515 -1.3405  1.2975  0.9304
   73SLPC   C39 6484   1.914   0.660   9.576  0.2337 -0.0013 -0.3423
   73SLPC   H9X 6485   1.924   0.583   9.654  3.3452  2.3410  1.8070
   73SLPC   H9Y 6486   1.978   0.743   9.613  1.5695 -1.4038  0.6038
   73SLPC  C310 6487   1.955   0.629   9.437 -0.1593 -0.0720  0.0154
   73SLPC  H10X 6488   1.923   0.703   9.361  0.7154  0.3668  0.0670
   73SLPC  H10Y 6489   1.924   0.524   9.418  2.5090 -0.8048 -0.6940
   73SLPC  C311 6490   2.111   0.617   9.428 -0.2548 -0.2784  0.0200
   73SLPC  H11X 6491   2.137   0.544   9.507  1.7577  0.8794  0.5009
   73SLPC  H11Y 6492   2.147   0.721   9.444  0.3025 -0.3963 -0.4397
   73SLPC  C312 6493   2.144   0.570   9.283 -0.5481  0.3949 -0.1797
   73SLPC  H12X 6494   2.079   0.485   9.256  0.2928 -0.8601  1.5484
   73SLPC  H12Y 6495   2.244   0.524   9.281 -0.0652  1.1834  2.1434
   73SLPC  C313 6496   2.147   0.687   9.192 -0.6447 -0.6476  0.4568
   73SLPC  H13X 6497   2.237   0.738   9.233 -2.0596  0.2427  2.6054
   73SLPC  H13Y 6498   2.066   0.762   9.205 -0.3572 -0.1067 -0.7565
   73SLPC  C314 6499   2.174   0.660   9.044  0.0797 -0.1174  0.4167
   73SLPC  H14X 6500   2.230   0.568   9.019 -0.8185  0.0242 -2.5526
   73SLPC  H14Y 6501   2.230   0.748   9.007  1.6648 -1.9018 -1.6855
   73SLPC  C315 6502   2.044   0.640   8.969 -0.8056 -0.6714  0.1918
   73SLPC  H15X 6503   1.971   0.711   9.012  0.3295  0.5276  0.2173
   73SLPC  H15Y 6504   2.009   0.535   8.968  3.4250 -2.2741  0.6546
   73SLPC  C316 6505   2.058   0.684   8.827 -0.0855  0.0075 -0.0999
   73SLPC  H16X 6506   2.109   0.782   8.826 -1.0906  0.5461  0.4681
   73SLPC  H16Y 6507   1.953   0.702   8.797 -0.0985 -0.2225 -0.1936
   73SLPC  C317 6508   2.135   0.588   8.727  0.8433 -0.6864 -0.3788
   73SLPC  H17X 6509   2.234   0.566   8.771  0.4540 -1.1337  0.2969
   73SLPC  H17Y 6510   2.158   0.643   8.634 -0.0458 -0.1334 -0.2871
   73SLPC  C318 6511   2.061   0.457   8.709 -1.0653  0.5599  0.0963
   73SLPC  H18X 6512   1.962   0.480   8.664  0.0981  3.3012 -1.2632
   73SLPC  H18Y 6513   2.043   0.399   8.802  0.2049 -2.6836 -1.5304
   73SLPC  H18Z 6514   2.114   0.386   8.642 -1.1409  2.0315 -1.5825
   74SLPC     N 6515   1.183   2.845  10.699  0.3492  0.1320 -0.4363
   74SLPC   C13 6516   1.112   2.722  10.733 -0.8495 -1.0720  0.2021
   74SLPC  H13A 6517   1.073   2.727  10.834 -0.6742  0.1846  0.2262
   74SLPC  H13B 6518   1.024   2.697  10.675 -1.8581  1.2354  0.6180
   74SLPC  H13C 6519   1.176   2.636  10.718 -0.2753 -0.2010 -3.0873
   74SLPC   C14 6520   1.298   2.867  10.800 -0.6630  0.7555  0.2591
   74SLPC  H14A 6521   1.341   2.965  10.786  0.2619  0.3223 -0.0763
   74SLPC  H14B 6522   1.254   2.870  10.898  0.4942  3.3864  0.7681
   74SLPC  H14C 6523   1.372   2.787  10.794  1.3288  2.5820 -1.3969
   74SLPC   C15 6524   1.078   2.949  10.728  0.3537 -0.0942  0.3522
   74SLPC  H15A 6525   1.052   2.948  10.833  0.1908  0.7983  0.3276
   74SLPC  H15B 6526   1.125   3.045  10.713  2.3615 -1.1729 -0.6531
   74SLPC  H15C 6527   0.988   2.938  10.670 -0.8570 -2.0989  2.4632
   74SLPC   C12 6528   1.237   2.850  10.558 -0.2182  0.0492 -0.5176
   74SLPC  H12A 6529   1.284   2.946  10.542  1.1704 -0.7483 -1.4068
   74SLPC  H12B 6530   1.148   2.832  10.500 -0.9916  0.9534  0.3446
   74SLPC   C11 6531   1.339   2.737  10.523  0.0347 -0.1528 -0.4189
   74SLPC  H11A 6532   1.330   2.723  10.413  0.5260  1.2649 -0.6528
   74SLPC  H11B 6533   1.308   2.643  10.574 -1.0454 -0.2885 -1.2923
   74SLPC     P 6534   1.563   2.872  10.505  0.1948 -0.3717  0.0302
   74SLPC   O13 6535   1.496   3.004  10.502  0.2622 -0.2656 -0.0819
   74SLPC   O14 6536   1.692   2.855  10.569 -0.0115  0.1003 -0.2262
   74SLPC   O12 6537   1.473   2.768  10.579 -0.4831  0.1153 -0.0641
   74SLPC   O11 6538   1.579   2.824  10.362 -0.1714 -0.5521  0.5066
   74SLPC    C1 6539   1.626   2.692  10.322 -0.3988  0.0337  0.1412
   74SLPC    HA 6540   1.712   2.672  10.390  0.0334  3.2448  0.7202
   74SLPC    HB 6541   1.548   2.614  10.327  0.6816 -1.0633  0.3553
   74SLPC    C2 6542   1.671   2.692  10.167 -0.1216 -0.5270 -0.2779
   74SLPC    HS 6543   1.695   2.587  10.140 -0.0620 -0.8455  0.9340
   74SLPC   O21 6544   1.778   2.781  10.128 -0.1540 -0.4900  0.2721
   74SLPC   C21 6545   1.888   2.754  10.189 -0.2554 -0.0212 -0.3608
   74SLPC   O22 6546   1.906   2.652  10.254 -0.6404  0.5397  0.1831
   74SLPC   C22 6547   1.992   2.864  10.164  0.3989 -0.6586 -0.3437
   74SLPC   H2R 6548   1.983   2.936  10.247  0.1339  0.7591 -1.5658
   74SLPC   H2S 6549   2.086   2.807  10.179 -0.1529 -1.2425  1.0738
   74SLPC    C3 6550   1.551   2.724  10.073  0.0550 -1.1250 -0.1300
   74SLPC    HX 6551   1.531   2.833  10.072 -0.0606 -1.1513 -0.6489
   74SLPC    HY 6552   1.456   2.671  10.097 -0.5914 -0.0061 -0.1386
   74SLPC   O31 6553   1.576   2.709   9.936 -0.0252  0.1550  0.0047
   74SLPC   C31 6554   1.581   2.585   9.884 -0.1555 -0.1992  0.6052
   74SLPC   O32 6555   1.557   2.479   9.934 -0.2700 -0.9076 -0.0134
   74SLPC   C32 6556   1.644   2.605   9.747 -0.0920 -0.3351  0.5178
   74SLPC   H2X 6557   1.753   2.623   9.759 -0.1093  0.1519 -0.0262
   74SLPC   H2Y 6558   1.589   2.689   9.700 -1.5020 -0.3297  2.0864
   74SLPC   C23 6559   1.996   2.928  10.021 -0.1208  0.3404  0.4626
   74SLPC   H3R 6560   2.078   3.004  10.022  0.2530 -0.0240 -1.0319
   74SLPC   H3S 6561   1.902   2.985  10.011 -0.8212 -1.0052 -0.8641
   74SLPC   C24 6562   2.020   2.819   9.918 -0.6940 -0.8353  0.3940
   74SLPC   H4R 6563   1.931   2.752   9.924 -0.1732 -1.6095 -0.2804
   74SLPC   H4S 6564   2.109   2.758   9.946 -1.0605 -1.0063  1.2329
   74SLPC   C25 6565   2.043   2.872   9.780  0.3470  0.2944  0.2121
   74SLPC   H5R 6566   2.142   2.922   9.772  0.4798 -0.1055 -0.6635
   74SLPC   H5S 6567   1.958   2.939   9.756  0.1069 -0.1607 -0.2351
   74SLPC   C26 6568   2.040   2.745   9.686 -0.4945  0.0704  0.2390
   74SLPC   H6R 6569   1.940   2.696   9.688  0.1415 -1.3063  2.0297
   74SLPC   H6S 6570   2.112   2.671   9.728 -1.8821 -0.6119  1.5268
   74SLPC   C27 6571   2.082   2.780   9.541 -0.2134  0.3324  0.2812
   74SLPC   H7R 6572   2.098   2.888   9.561  1.2005 -0.2410  2.6969
   74SLPC   H7S 6573   1.992   2.767   9.477  0.1824  2.7340 -0.8805
   74SLPC   C28 6574   2.203   2.722   9.480 -0.6106  0.2967 -0.4445
   74SLPC   H8R 6575   2.286   2.726   9.554 -0.6374 -0.5372 -0.3593
   74SLPC   H8S 6576   2.236   2.789   9.397  2.6251 -2.2536 -1.4023
   74SLPC   C29 6577   2.181   2.583   9.424  0.3852 -0.1287 -0.3074
   74SLPC   H9R 6578   2.186   2.507   9.504 -1.2705 -0.9782 -0.9585
   74SLPC  C210 6579   2.180   2.531   9.301 -0.0469 -0.0815  0.3700
   74SLPC  H10R 6580   2.166   2.423   9.293 -1.7069 -0.1774  3.2713
   74SLPC  C211 6581   2.192   2.614   9.174  0.2325 -0.1542  0.1840
   74SLPC  H11R 6582   2.281   2.680   9.184  1.2945 -1.4404 -0.4144
   74SLPC  H11S 6583   2.111   2.690   9.174 -0.1636 -0.5261  2.3516
   74SLPC  C212 6584   2.204   2.534   9.047 -0.0364  0.1683 -1.1567
   74SLPC  H12R 6585   2.278   2.456   9.069 -0.5703  0.3815  2.0041
   74SLPC  C213 6586   2.128   2.540   8.942  0.2514 -0.4322  0.0588
   74SLPC  H13R 6587   2.141   2.459   8.869  0.6912  0.3797 -0.8019
   74SLPC  C214 6588   2.009   2.641   8.923 -0.1022  0.1234  0.2676
   74SLPC  H14R 6589   1.989   2.711   9.007 -0.5415  1.0359 -0.5731
   74SLPC  H14S 6590   1.919   2.578   8.910  0.7051 -0.9248 -0.4183
   74SLPC  C215 6591   2.014   2.709   8.785  0.1725  0.1550 -0.6237
   74SLPC  H15R 6592   2.111   2.763   8.779 -0.1191  0.7731  0.0548
   74SLPC  H15S 6593   1.934   2.786   8.785  1.3683  1.4521 -1.1117
   74SLPC  C216 6594   1.989   2.621   8.668  0.3447 -0.0636  0.8239
   74SLPC  H16R 6595   1.914   2.543   8.695 -1.4494  1.6774  1.0473
   74SLPC  H16S 6596   2.086   2.573   8.643  0.4060  0.1496  0.6576
   74SLPC  C217 6597   1.946   2.702   8.537 -0.0397  0.3040  0.1505
   74SLPC  H17R 6598   2.034   2.764   8.507 -0.3270 -0.1141 -1.6316
   74SLPC  H17S 6599   1.859   2.765   8.564 -1.7687 -1.8385 -0.1751
   74SLPC  C218 6600   1.902   2.612   8.431 -0.0285  0.7637  0.5028
   74SLPC  H18R 6601   1.978   2.539   8.397 -2.8843 -2.2295 -0.0259
   74SLPC  H18S 6602   1.884   2.673   8.340 -0.8436 -0.2280 -0.0323
   74SLPC  H18T 6603   1.804   2.564   8.453  0.2480  0.1968  0.5120
   74SLPC   C33 6604   1.626   2.470   9.670 -0.0194  0.2672  0.2249
   74SLPC   H3X 6605   1.517   2.462   9.648  0.2082 -1.0088 -0.5051
   74SLPC   H3Y 6606   1.645   2.376   9.726  0.9741  0.0249 -0.4942
   74SLPC   C34 6607   1.715   2.474   9.548 -0.9748  0.7809 -0.1125
   74SLPC   H4X 6608   1.752   2.373   9.520 -1.3334  0.5481  0.2414
   74SLPC   H4Y 6609   1.810   2.527   9.573 -0.4644  0.1482 -0.6555
   74SLPC   C35 6610   1.644   2.516   9.431 -0.2745 -0.1119  0.4621
   74SLPC   H5X 6611   1.592   2.613   9.445  0.2191  0.2654 -0.2881
   74SLPC   H5Y 6612   1.558   2.448   9.413 -2.0802  2.2958 -0.6084
   74SLPC   C36 6613   1.720   2.526   9.301 -0.0541  0.3458  0.1999
   74SLPC   H6X 6614   1.796   2.607   9.311  0.0192  0.0957  2.0604
   74SLPC   H6Y 6615   1.644   2.557   9.225 -0.5786 -3.1366 -0.8618
   74SLPC   C37 6616   1.786   2.390   9.259  0.3931 -0.1666  0.6473
   74SLPC   H7X 6617   1.723   2.311   9.306 -2.2599  2.1593  1.3004
   74SLPC   H7Y 6618   1.886   2.381   9.305  1.0001 -0.8899 -0.7653
   74SLPC   C38 6619   1.817   2.371   9.112  0.9953 -0.2857 -0.3806
   74SLPC   H8X 6620   1.896   2.292   9.107  1.2165 -0.1491  0.7707
   74SLPC   H8Y 6621   1.873   2.464   9.088 -1.6761  1.6018  0.2933
   74SLPC   C39 6622   1.698   2.373   9.016  0.2486 -0.4400  1.1791
   74SLPC   H9X 6623   1.753   2.373   8.920  0.7127  1.9733  1.3674
   74SLPC   H9Y 6624   1.642   2.467   9.035 -0.5934 -1.0993  2.0428
   74SLPC  C310 6625   1.601   2.249   9.029  0.0720 -0.3441  0.7770
   74SLPC  H10X 6626   1.559   2.230   9.130 -0.4387 -1.6242  0.3338
   74SLPC  H10Y 6627   1.664   2.163   8.998  0.3315 -0.0990  0.6168
   74SLPC  C311 6628   1.486   2.234   8.931  0.7816 -0.3648 -0.3375
   74SLPC  H11X 6629   1.408   2.313   8.943  1.6595  0.5238 -0.3282
   74SLPC  H11Y 6630   1.433   2.140   8.957 -1.9980  1.2029  0.0526
   74SLPC  C312 6631   1.534   2.249   8.782 -0.0817 -0.0751  0.1946
   74SLPC  H12X 6632   1.643   2.269   8.786  0.0095 -0.4832 -0.1567
   74SLPC  H12Y 6633   1.478   2.339   8.748 -0.6147 -0.4682  0.0278
   74SLPC  C313 6634   1.502   2.116   8.702 -0.2120  0.1507 -0.7707
   74SLPC  H13X 6635   1.392   2.109   8.714 -0.2894  0.3258 -1.3663
   74SLPC  H13Y 6636   1.546   2.033   8.761 -1.4172 -1.3849 -1.9288
   74SLPC  C314 6637   1.539   2.118   8.548  0.2836 -0.1511 -0.1826
   74SLPC  H14X 6638   1.640   2.072   8.535 -0.6878 -2.0954 -1.4090
   74SLPC  H14Y 6639   1.539   2.226   8.525 -2.1983  0.4669  2.2518
   74SLPC  C315 6640   1.436   2.035   8.461 -0.5225 -0.1964  0.2791
   74SLPC  H15X 6641   1.336   2.039   8.509 -1.8566 -0.0740 -2.3358
   74SLPC  H15Y 6642   1.478   1.932   8.460 -1.6874 -0.7488 -2.4132
   74SLPC  C316 6643   1.436   2.084   8.314 -0.0640 -0.6059  0.0721
   74SLPC  H16X 6644   1.507   2.029   8.249 -0.5249 -1.3720  0.2006
   74SLPC  H16Y 6645   1.460   2.192   8.320 -0.2281 -0.6393  2.3627
   74SLPC  C317 6646   1.294   2.080   8.257 -0.6697  0.1872  0.6060
   74SLPC  H17X 6647   1.226   2.144   8.317  2.0061  1.6500  2.2414
   74SLPC  H17Y 6648   1.252   1.977   8.269  0.7733 -0.4421  0.4328
   74SLPC  C318 6649   1.280   2.122   8.109 -0.3958 -0.7549  0.5113
   74SLPC  H18X 6650   1.181   2.094   8.065 -0.0149 -0.7160 -0.3844
   74SLPC  H18Y 6651   1.367   2.084   8.052 -1.3162 -0.9292 -0.8429
   74SLPC  H18Z 6652   1.296   2.231   8.103 -1.3200 -0.6079  0.5026
   75SLPC     N 6653   0.079   5.189   6.322 -0.4957 -0.5014  0.4806
   75SLPC   C13 6654   0.036   5.223   6.184 -0.1294 -0.5751 -0.0611
   75SLPC  H13A 6655   0.103   5.189   6.107  2.2554 -1.4434  2.2631
   75SLPC  H13B 6656  -0.064   5.186   6.166  0.2498 -0.7412 -2.0667
   75SLPC  H13C 6657   0.048   5.330   6.177  1.0297 -0.7365 -0.6935
   75SLPC   C14 6658   0.233   5.198   6.341 -1.0954 -0.0852  0.8703
   75SLPC  H14A 6659   0.267   5.171   6.440  2.0042  1.6375  0.4167
   75SLPC  H14B 6660   0.278   5.125   6.275 -0.8390  0.1385  0.7957
   75SLPC  H14C 6661   0.277   5.294   6.316 -0.3574 -0.9985 -1.6261
   75SLPC   C15 6662   0.047   5.050   6.353  0.3248  0.1200  0.3916
   75SLPC  H15A 6663  -0.055   5.022   6.335  0.2548  1.2532 -1.2569
   75SLPC  H15B 6664   0.099   4.988   6.281 -1.1383  0.9533 -1.4728
   75SLPC  H15C 6665   0.065   5.014   6.453 -1.1480  1.4737  1.1834
   75SLPC   C12 6666   0.020   5.285   6.424  0.2152 -0.4368  0.3872
   75SLPC  H12A 6667   0.070   5.380   6.412  0.0689 -0.4693 -0.6224
   75SLPC  H12B 6668   0.056   5.252   6.520 -0.4829  0.2352  0.8899
   75SLPC   C11 6669  -0.132   5.297   6.422  0.3405  0.7018 -0.0871
   75SLPC  H11A 6670  -0.176   5.198   6.448  0.3154  0.5923 -0.5385
   75SLPC  H11B 6671  -0.156   5.335   6.320  0.3479 -0.3127 -0.4749
   75SLPC     P 6672  -0.324   5.397   6.567  0.1649  0.1796  0.0373
   75SLPC   O13 6673  -0.332   5.502   6.667  0.6220 -0.8259 -0.1288
   75SLPC   O14 6674  -0.413   5.413   6.450  0.9147  0.0537 -0.0932
   75SLPC   O12 6675  -0.168   5.388   6.523  0.1657 -0.8887 -0.4282
   75SLPC   O11 6676  -0.356   5.264   6.644  0.6443 -0.4037  0.2825
   75SLPC    C1 6677  -0.254   5.176   6.693  0.7321  0.7731 -1.2361
   75SLPC    HA 6678  -0.264   5.084   6.631  0.9526 -0.4687  0.5065
   75SLPC    HB 6679  -0.152   5.219   6.689  0.5842  1.2934 -0.0393
   75SLPC    C2 6680  -0.284   5.141   6.843 -0.5783 -0.1315  0.0975
   75SLPC    HS 6681  -0.197   5.090   6.890 -1.3552  0.6551  2.4921
   75SLPC   O21 6682  -0.395   5.051   6.841 -0.1166  0.1109 -0.3185
   75SLPC   C21 6683  -0.387   4.923   6.812  0.3011 -0.0599  0.5197
   75SLPC   O22 6684  -0.283   4.868   6.769 -0.1042  0.2626 -0.4391
   75SLPC   C22 6685  -0.525   4.849   6.839 -0.1067 -0.1854  0.1104
   75SLPC   H2R 6686  -0.605   4.926   6.845  1.1950  1.4221 -2.0226
   75SLPC   H2S 6687  -0.535   4.777   6.755  1.2738 -1.8299  1.2835
   75SLPC    C3 6688  -0.322   5.271   6.919 -0.1149  0.2946  0.3540
   75SLPC    HX 6689  -0.409   5.320   6.872 -0.5228 -1.9980 -1.4184
   75SLPC    HY 6690  -0.242   5.346   6.900  0.1665 -0.5975 -2.3415
   75SLPC   O31 6691  -0.345   5.246   7.058 -0.3797  0.1978  0.5426
   75SLPC   C31 6692  -0.469   5.249   7.101 -0.5478 -1.0758  0.6930
   75SLPC   O32 6693  -0.568   5.279   7.038 -0.7078  0.1989  0.0081
   75SLPC   C32 6694  -0.471   5.184   7.236  0.9547 -1.2413 -0.1834
   75SLPC   H2X 6695  -0.398   5.102   7.249  0.9385 -1.4223 -1.1922
   75SLPC   H2Y 6696  -0.572   5.146   7.265  0.4783 -1.3514 -1.8929
   75SLPC   C23 6697  -0.528   4.757   6.963  0.0747 -0.2491  0.2109
   75SLPC   H3R 6698  -0.440   4.689   6.958  0.7236  0.5555  0.4278
   75SLPC   H3S 6699  -0.624   4.702   6.948  1.3804 -2.5333 -0.2541
   75SLPC   C24 6700  -0.518   4.831   7.092 -0.5175 -0.8888 -0.1435
   75SLPC   H4R 6701  -0.581   4.923   7.096  1.6732  0.6610  3.2981
   75SLPC   H4S 6702  -0.415   4.871   7.085 -0.2581 -1.8689 -4.1261
   75SLPC   C25 6703  -0.534   4.742   7.211 -0.4687  0.4869 -0.9939
   75SLPC   H5R 6704  -0.461   4.660   7.193  2.0344  1.5854  2.9005
   75SLPC   H5S 6705  -0.637   4.701   7.214 -0.1821 -0.2210 -0.0649
   75SLPC   C26 6706  -0.507   4.813   7.341  0.4034  0.1855 -0.4322
   75SLPC   H6R 6707  -0.582   4.893   7.358 -0.6118 -0.7484 -0.3585
   75SLPC   H6S 6708  -0.409   4.864   7.343  0.9165 -0.7532  1.6868
   75SLPC   C27 6709  -0.523   4.719   7.464  0.3561  0.0198  0.5193
   75SLPC   H7R 6710  -0.468   4.625   7.445  1.8851  0.8731  0.5189
   75SLPC   H7S 6711  -0.632   4.706   7.480  0.3958 -0.2358  0.5722
   75SLPC   C28 6712  -0.442   4.791   7.580  0.7505  0.3673  0.4703
   75SLPC   H8R 6713  -0.491   4.890   7.569  0.5610 -0.0289 -3.9419
   75SLPC   H8S 6714  -0.335   4.813   7.561  1.0300  0.9178  2.4823
   75SLPC   C29 6715  -0.441   4.736   7.708 -0.2111  0.1770 -0.6723
   75SLPC   H9R 6716  -0.404   4.633   7.724 -1.0419 -0.4024 -2.2557
   75SLPC  C210 6717  -0.512   4.782   7.809 -0.4865  0.2256 -0.2946
   75SLPC  H10R 6718  -0.517   4.709   7.891  1.1386 -1.1948 -1.3698
   75SLPC  C211 6719  -0.586   4.909   7.810 -0.3741 -0.3566 -0.6119
   75SLPC  H11R 6720  -0.690   4.890   7.775 -0.1630  1.1076 -2.1871
   75SLPC  H11S 6721  -0.535   4.980   7.741 -0.1938  1.0675  0.9387
   75SLPC  C212 6722  -0.607   4.978   7.947  0.8440  0.3404 -1.4564
   75SLPC  H12R 6723  -0.556   5.074   7.961  0.4799  0.3207  0.2022
   75SLPC  C213 6724  -0.697   4.944   8.040 -0.2723 -0.4491  0.1329
   75SLPC  H13R 6725  -0.706   5.010   8.128 -0.4529 -1.7650  1.1361
   75SLPC  C214 6726  -0.779   4.821   8.024  0.3862  0.3605 -0.9943
   75SLPC  H14R 6727  -0.714   4.734   8.000  0.2784  0.2978 -1.0606
   75SLPC  H14S 6728  -0.869   4.843   7.962 -1.8269  0.3552  1.9837
   75SLPC  C215 6729  -0.846   4.787   8.159  0.0656 -0.2616  0.3191
   75SLPC  H15R 6730  -0.862   4.882   8.214 -2.6217 -0.8050  0.6186
   75SLPC  H15S 6731  -0.780   4.717   8.215 -0.2442 -0.2671  0.6783
   75SLPC  C216 6732  -0.968   4.699   8.147 -0.0413  0.4237 -0.6220
   75SLPC  H16R 6733  -0.947   4.599   8.104  1.4506  0.6225 -0.4379
   75SLPC  H16S 6734  -1.045   4.737   8.077 -1.2522 -1.3347 -0.3111
   75SLPC  C217 6735  -1.037   4.686   8.287  1.0450 -0.3577  0.0921
   75SLPC  H17R 6736  -1.090   4.778   8.322 -2.2348 -2.0897  0.1245
   75SLPC  H17S 6737  -0.952   4.665   8.355  1.7136  0.5419 -0.4377
   75SLPC  C218 6738  -1.141   4.574   8.294 -0.2077  0.9776  0.4051
   75SLPC  H18R 6739  -1.100   4.471   8.298 -1.5206  0.4530  1.0609
   75SLPC  H18S 6740  -1.217   4.569   8.213 -0.2597 -0.0643  0.5008
   75SLPC  H18T 6741  -1.189   4.578   8.395 -1.3293  1.4919 -0.1311
   75SLPC   C33 6742  -0.430   5.294   7.347  0.0154  0.2431 -0.0631
   75SLPC   H3X 6743  -0.336   5.344   7.313  1.0338  0.0696  2.2933
   75SLPC   H3Y 6744  -0.506   5.375   7.354 -0.4417 -0.2430  0.7133
   75SLPC   C34 6745  -0.405   5.233   7.481  0.2818 -0.3152  0.1899
   75SLPC   H4X 6746  -0.333   5.149   7.474 -0.7910 -1.1738 -1.1605
   75SLPC   H4Y 6747  -0.505   5.194   7.512 -0.7676  0.8061 -1.5836
   75SLPC   C35 6748  -0.362   5.328   7.592  0.3863 -0.4767  0.0342
   75SLPC   H5X 6749  -0.444   5.402   7.596  1.2908  0.5659 -0.3052
   75SLPC   H5Y 6750  -0.262   5.369   7.567  0.7562 -1.9253 -1.0772
   75SLPC   C36 6751  -0.370   5.253   7.732 -0.2757 -0.0822 -0.1880
   75SLPC   H6X 6752  -0.308   5.162   7.721  0.5849  0.6890 -2.4939
   75SLPC   H6Y 6753  -0.472   5.217   7.756  0.0647 -1.2585 -0.4494
   75SLPC   C37 6754  -0.311   5.322   7.848 -0.5014 -0.3338 -0.2750
   75SLPC   H7X 6755  -0.363   5.417   7.871  1.8371  0.8315  0.5111
   75SLPC   H7Y 6756  -0.211   5.356   7.816 -1.9387  1.3543 -3.3433
   75SLPC   C38 6757  -0.297   5.248   7.984 -0.1724 -0.5974  0.0357
   75SLPC   H8X 6758  -0.212   5.177   7.987  1.2783  1.0791 -0.1557
   75SLPC   H8Y 6759  -0.397   5.203   8.003 -1.4557  0.5235 -3.2379
   75SLPC   C39 6760  -0.273   5.348   8.096 -0.2928  0.3204 -0.9827
   75SLPC   H9X 6761  -0.357   5.420   8.102 -1.5902 -1.2402  0.9078
   75SLPC   H9Y 6762  -0.175   5.393   8.068 -0.7803  2.0188 -0.1244
   75SLPC  C310 6763  -0.262   5.277   8.235 -0.4344  0.1173  0.2135
   75SLPC  H10X 6764  -0.190   5.192   8.229 -1.2144 -0.4795 -1.0964
   75SLPC  H10Y 6765  -0.360   5.234   8.266 -0.2077 -0.1075  0.6203
   75SLPC  C311 6766  -0.213   5.371   8.350  0.4946 -0.0171  0.4596
   75SLPC  H11X 6767  -0.304   5.430   8.375  0.0477  0.0072 -1.1246
   75SLPC  H11Y 6768  -0.141   5.446   8.312  1.8016 -0.5732  1.7500
   75SLPC  C312 6769  -0.160   5.293   8.469  0.7777  0.2094 -0.3855
   75SLPC  H12X 6770  -0.063   5.243   8.448  0.4374 -0.4775 -0.3328
   75SLPC  H12Y 6771  -0.232   5.215   8.502  2.0907 -1.2722 -0.9405
   75SLPC  C313 6772  -0.134   5.378   8.595  0.3487  0.2537 -0.0136
   75SLPC  H13X 6773  -0.090   5.312   8.672  1.1505  0.0783 -0.6092
   75SLPC  H13Y 6774  -0.233   5.407   8.637  0.6935 -0.7249  1.5203
   75SLPC  C314 6775  -0.053   5.505   8.575  0.0268  0.1069 -1.0077
   75SLPC  H14X 6776  -0.036   5.547   8.677 -0.6978  1.9718 -1.6117
   75SLPC  H14Y 6777  -0.104   5.589   8.524  2.2728  1.2018 -1.5391
   75SLPC  C315 6778   0.084   5.483   8.513 -0.1081 -0.0091 -0.4170
   75SLPC  H15X 6779   0.103   5.501   8.405  1.6152  0.5690 -0.0534
   75SLPC  H15Y 6780   0.097   5.374   8.531 -0.6478 -0.0213 -0.0729
   75SLPC  C316 6781   0.193   5.559   8.591 -0.1963  0.6381 -0.3019
   75SLPC  H16X 6782   0.172   5.573   8.699 -1.2671 -0.8114 -0.2951
   75SLPC  H16Y 6783   0.195   5.662   8.548 -3.8678  0.2083 -1.8284
   75SLPC  C317 6784   0.335   5.499   8.582  0.1412  0.6699 -0.4750
   75SLPC  H17X 6785   0.362   5.515   8.475 -0.9577  1.8390 -0.6072
   75SLPC  H17Y 6786   0.331   5.394   8.618 -0.5185  0.2383 -1.7385
   75SLPC  C318 6787   0.428   5.577   8.670  0.0895  0.3429  0.2861
   75SLPC  H18X 6788   0.528   5.533   8.689  0.0153  0.8879  2.0565
   75SLPC  H18Y 6789   0.389   5.600   8.771 -0.4626 -0.2689  0.2227
   75SLPC  H18Z 6790   0.443   5.676   8.621 -1.6263 -0.6384 -2.4948
   76SLPC     N 6791   2.476   3.891   6.409 -0.7316  0.4431 -0.6240
   76SLPC   C13 6792   2.603   3.879   6.481 -0.3019 -0.1744  0.7685
   76SLPC  H13A 6793   2.600   3.956   6.557 -0.4425  1.7301 -1.0880
   76SLPC  H13B 6794   2.623   3.787   6.535  1.9472 -0.2041  0.0061
   76SLPC  H13C 6795   2.686   3.898   6.415  0.6213  0.5101  2.0720
   76SLPC   C14 6796   2.360   3.884   6.504  0.8488 -0.1056  0.3136
   76SLPC  H14A 6797   2.350   3.979   6.555 -0.3583  0.9062 -1.6598
   76SLPC  H14B 6798   2.267   3.856   6.457  0.7695 -1.3068  1.1558
   76SLPC  H14C 6799   2.378   3.805   6.575  1.2659 -0.3962 -0.1130
   76SLPC   C15 6800   2.469   3.780   6.304 -0.3720 -0.5766 -1.0095
   76SLPC  H15A 6801   2.466   3.680   6.347  0.7453 -0.1715  0.0576
   76SLPC  H15B 6802   2.372   3.795   6.259 -1.3936 -1.2313  0.8636
   76SLPC  H15C 6803   2.539   3.790   6.223  0.0547  3.8646 -0.3134
   76SLPC   C12 6804   2.472   4.025   6.334 -0.5667  0.0054  0.2210
   76SLPC  H12A 6805   2.532   4.018   6.244 -0.5656  1.5247  0.0763
   76SLPC  H12B 6806   2.526   4.092   6.399  0.4703 -0.8593  0.2822
   76SLPC   C11 6807   2.330   4.083   6.283 -0.3179  0.3898  0.2830
   76SLPC  H11A 6808   2.365   4.183   6.247 -1.4501  1.0961  1.0594
   76SLPC  H11B 6809   2.260   4.102   6.367 -1.1777  0.7449 -0.4979
   76SLPC     P 6810   2.131   3.946   6.188 -0.5036 -0.1639  0.2078
   76SLPC   O13 6811   2.048   4.064   6.217 -0.2462  0.1978 -0.0021
   76SLPC   O14 6812   2.098   3.885   6.057  0.2070 -0.8074  0.6309
   76SLPC   O12 6813   2.277   3.998   6.181  0.0797  0.0193  0.3449
   76SLPC   O11 6814   2.121   3.837   6.297  0.2122 -0.0677  0.0746
   76SLPC    C1 6815   2.030   3.729   6.291  0.0839 -0.5153 -0.2293
   76SLPC    HA 6816   1.941   3.743   6.227 -0.7986 -2.5172  0.4951
   76SLPC    HB 6817   2.079   3.640   6.247 -0.3602 -0.2675 -1.2569
   76SLPC    C2 6818   1.978   3.690   6.434  0.1864  0.4378  0.1149
   76SLPC    HS 6819   1.888   3.628   6.414  0.1619  0.4690  0.1283
   76SLPC   O21 6820   1.953   3.810   6.521 -0.4594  1.0569  0.8173
   76SLPC   C21 6821   1.835   3.860   6.509  0.0245 -0.2298 -0.6975
   76SLPC   O22 6822   1.744   3.815   6.441  0.1455  0.0202 -0.6683
   76SLPC   C22 6823   1.828   3.987   6.594  0.5079  0.2052  0.5057
   76SLPC   H2R 6824   1.924   4.001   6.649  0.4198  0.4006  0.6151
   76SLPC   H2S 6825   1.818   4.069   6.519 -0.8669 -0.8956 -0.5583
   76SLPC    C3 6826   2.088   3.607   6.507 -0.3598 -0.5542  1.3648
   76SLPC    HX 6827   2.187   3.655   6.493 -1.0550  0.4808 -0.2430
   76SLPC    HY 6828   2.090   3.510   6.452 -1.5283 -0.3840  1.0006
   76SLPC   O31 6829   2.050   3.582   6.635  0.2557  0.3481 -0.3412
   76SLPC   C31 6830   2.140   3.608   6.740 -0.1308  0.4516  0.5402
   76SLPC   O32 6831   2.245   3.667   6.722 -0.4410 -0.1923  0.7122
   76SLPC   C32 6832   2.103   3.558   6.878  0.0015 -0.5352 -0.0871
   76SLPC   H2X 6833   2.140   3.454   6.889  2.7928  0.1817 -1.7116
   76SLPC   H2Y 6834   1.992   3.560   6.887 -0.0569 -2.2128 -0.0670
   76SLPC   C23 6835   1.705   4.009   6.681 -0.1612  0.3006 -0.3159
   76SLPC   H3R 6836   1.615   3.972   6.627  1.9131 -0.6324 -3.4380
   76SLPC   H3S 6837   1.679   4.117   6.683 -1.0409  0.0944  1.9976
   76SLPC   C24 6838   1.711   3.956   6.823  0.0391  0.2500  0.5249
   76SLPC   H4R 6839   1.797   4.006   6.872  2.1519 -0.5768 -2.0396
   76SLPC   H4S 6840   1.753   3.853   6.825  2.5126  1.1938  1.7712
   76SLPC   C25 6841   1.582   3.977   6.902  0.2925  0.1360 -0.5786
   76SLPC   H5R 6842   1.505   3.907   6.864  0.3463  0.1072 -0.6333
   76SLPC   H5S 6843   1.558   4.085   6.897  2.5771  0.7887  0.8277
   76SLPC   C26 6844   1.609   3.939   7.051  0.2977 -0.0189  0.7253
   76SLPC   H6R 6845   1.676   3.850   7.048  2.7143  1.7017 -0.0940
   76SLPC   H6S 6846   1.512   3.907   7.093  1.1061 -2.2555  1.0814
   76SLPC   C27 6847   1.665   4.042   7.137  0.0180 -0.5859 -0.3332
   76SLPC   H7R 6848   1.595   4.129   7.139  2.3919  1.4270  0.6032
   76SLPC   H7S 6849   1.762   4.081   7.098 -0.8198  4.0856  1.5432
   76SLPC   C28 6850   1.700   3.988   7.278 -0.7591 -0.2777  0.1266
   76SLPC   H8R 6851   1.608   3.951   7.329 -1.5600  3.1584  1.4764
   76SLPC   H8S 6852   1.765   3.898   7.271 -0.9943 -0.4264 -0.1738
   76SLPC   C29 6853   1.779   4.076   7.370  0.1636 -0.1147  0.6323
   76SLPC   H9R 6854   1.869   4.116   7.323  0.1017  3.1816  2.9621
   76SLPC  C210 6855   1.767   4.112   7.502 -0.5242  0.3751  0.3561
   76SLPC  H10R 6856   1.853   4.159   7.551  1.8120 -2.6433 -0.5694
   76SLPC  C211 6857   1.653   4.084   7.596 -0.3020  0.2355 -0.5214
   76SLPC  H11R 6858   1.573   4.022   7.550 -0.7861  0.2109  0.3353
   76SLPC  H11S 6859   1.599   4.179   7.617  1.9386  1.0815  1.8488
   76SLPC  C212 6860   1.698   4.026   7.729  0.2674 -0.6359  0.6946
   76SLPC  H12R 6861   1.763   3.938   7.722  1.2696  0.2032 -1.3997
   76SLPC  C213 6862   1.671   4.084   7.846 -0.2559  0.8381 -0.3718
   76SLPC  H13R 6863   1.724   4.050   7.936  1.4552  0.6043 -1.4068
   76SLPC  C214 6864   1.581   4.204   7.859  0.5586  0.1458 -0.2851
   76SLPC  H14R 6865   1.485   4.188   7.804  0.0145  0.4833  0.5490
   76SLPC  H14S 6866   1.631   4.296   7.823 -1.1218  0.9074 -0.7570
   76SLPC  C215 6867   1.552   4.216   8.013  0.0571 -0.2745 -0.4653
   76SLPC  H15R 6868   1.515   4.118   8.051 -0.8546  0.5777  0.9535
   76SLPC  H15S 6869   1.458   4.276   8.022 -2.5844 -4.0254 -0.5383
   76SLPC  C216 6870   1.673   4.273   8.088  0.0980  0.8940 -0.7011
   76SLPC  H16R 6871   1.725   4.350   8.026  0.6582  0.8987 -0.2328
   76SLPC  H16S 6872   1.749   4.193   8.100 -1.0135  0.1251  1.6266
   76SLPC  C217 6873   1.649   4.321   8.230  0.1963 -0.3681 -0.0551
   76SLPC  H17R 6874   1.540   4.338   8.238 -0.0029 -1.5460 -0.1074
   76SLPC  H17S 6875   1.702   4.419   8.228 -0.8507  0.2067 -1.5158
   76SLPC  C218 6876   1.693   4.238   8.348  0.4618 -0.3538  0.2535
   76SLPC  H18R 6877   1.681   4.290   8.445  2.1302 -1.1603  0.9365
   76SLPC  H18S 6878   1.803   4.219   8.342  0.7419  1.1381  0.2850
   76SLPC  H18T 6879   1.645   4.138   8.358 -1.8490  0.5859 -0.7008
   76SLPC   C33 6880   2.162   3.645   6.987  0.0229 -0.2006  0.0946
   76SLPC   H3X 6881   2.183   3.752   6.963  2.4368 -0.6387 -0.0035
   76SLPC   H3Y 6882   2.254   3.597   7.026  0.6780  1.1836  0.3440
   76SLPC   C34 6883   2.070   3.641   7.114  0.5189  0.1431  0.3761
   76SLPC   H4X 6884   2.059   3.532   7.133 -0.7053  0.0509 -0.7282
   76SLPC   H4Y 6885   1.967   3.680   7.101  1.3023  2.5503  0.7603
   76SLPC   C35 6886   2.136   3.709   7.236 -0.0764 -0.2611  0.3013
   76SLPC   H5X 6887   2.143   3.817   7.212 -0.1260 -0.4636 -0.6839
   76SLPC   H5Y 6888   2.230   3.658   7.267 -0.5547 -0.1424  2.0788
   76SLPC   C36 6889   2.049   3.701   7.365  0.3842 -0.5363  0.1320
   76SLPC   H6X 6890   2.032   3.594   7.388  0.4257 -0.7861 -0.9225
   76SLPC   H6Y 6891   1.951   3.746   7.338 -0.7780 -2.5412  0.7946
   76SLPC   C37 6892   2.120   3.756   7.489  0.0117  0.5779  0.2890
   76SLPC   H7X 6893   2.163   3.850   7.448 -1.2672  1.9690  1.9665
   76SLPC   H7Y 6894   2.205   3.691   7.518 -0.8804  0.6577  3.4531
   76SLPC   C38 6895   2.027   3.797   7.607  0.6520  0.5886  0.4789
   76SLPC   H8X 6896   1.976   3.712   7.658  0.0058  0.1605 -0.8348
   76SLPC   H8Y 6897   1.944   3.865   7.575  0.9534  0.4344 -0.6559
   76SLPC   C39 6898   2.108   3.871   7.711 -0.2680  0.0170 -0.0017
   76SLPC   H9X 6899   2.133   3.970   7.668  0.7165 -0.0096  0.4987
   76SLPC   H9Y 6900   2.201   3.810   7.712 -1.7888 -2.4879 -1.2054
   76SLPC  C310 6901   2.023   3.885   7.836 -0.2848 -0.0853 -1.0068
   76SLPC  H10X 6902   1.931   3.826   7.817  0.1287 -0.1610 -2.9258
   76SLPC  H10Y 6903   1.990   3.989   7.852 -2.2389 -0.9316  0.9620
   76SLPC  C311 6904   2.094   3.844   7.973  0.0193 -0.2332 -0.6820
   76SLPC  H11X 6905   2.175   3.917   7.992  0.1656 -0.7949  1.0203
   76SLPC  H11Y 6906   2.139   3.743   7.959  0.5946  0.1044 -1.3703
   76SLPC  C312 6907   1.988   3.850   8.082  0.0223  0.0147  0.4547
   76SLPC  H12X 6908   1.906   3.786   8.043  1.2919 -2.2407  1.2783
   76SLPC  H12Y 6909   1.955   3.956   8.087  1.7384  0.6972 -1.3922
   76SLPC  C313 6910   2.043   3.796   8.211  0.0249  0.0110  0.3220
   76SLPC  H13X 6911   2.083   3.693   8.198 -1.5677 -0.8514  1.8323
   76SLPC  H13Y 6912   1.957   3.776   8.279 -0.0353  0.5440  0.4045
   76SLPC  C314 6913   2.143   3.883   8.288  0.3751 -0.0925  0.2877
   76SLPC  H14X 6914   2.079   3.945   8.354 -1.9242 -2.7581  0.7871
   76SLPC  H14Y 6915   2.204   3.954   8.229  0.8447 -1.5912 -1.1255
   76SLPC  C315 6916   2.241   3.803   8.379  0.6110  0.0061  0.1517
   76SLPC  H15X 6917   2.334   3.763   8.332 -0.0676 -0.9815 -0.4100
   76SLPC  H15Y 6918   2.187   3.716   8.423  1.7245 -0.8919 -0.2052
   76SLPC  C316 6919   2.288   3.873   8.512  0.1152 -0.3210 -0.0913
   76SLPC  H16X 6920   2.200   3.919   8.561 -0.1634 -0.2718 -0.6326
   76SLPC  H16Y 6921   2.344   3.953   8.458 -0.5289 -0.9708 -1.7798
   76SLPC  C317 6922   2.373   3.792   8.605  0.5856  0.4081 -0.4726
   76SLPC  H17X 6923   2.345   3.684   8.605  1.0943  0.2379 -2.3872
   76SLPC  H17Y 6924   2.362   3.827   8.709 -1.9355 -1.2021 -0.1044
   76SLPC  C318 6925   2.523   3.799   8.583  0.9527  0.2492 -0.2291
   76SLPC  H18X 6926   2.577   3.883   8.633  0.7462 -1.0344  2.3613
   76SLPC  H18Y 6927   2.554   3.813   8.478  2.6195  0.6405  0.2778
   76SLPC  H18Z 6928   2.571   3.703   8.613  1.7703  0.8177  0.3274
   77SLPC     N 6929   3.314   3.918   6.200  0.1648 -0.5477 -0.7459
   77SLPC   C13 6930   3.164   3.935   6.179 -0.2451 -0.4451  0.3217
   77SLPC  H13A 6931   3.113   3.954   6.272  2.2315  2.5536  1.2348
   77SLPC  H13B 6932   3.134   4.026   6.129  0.8848 -0.3823 -0.2725
   77SLPC  H13C 6933   3.121   3.851   6.126  1.4280 -0.7804 -0.6039
   77SLPC   C14 6934   3.377   3.902   6.063 -0.8216 -0.4288 -0.5185
   77SLPC  H14A 6935   3.364   3.983   5.992  1.9892  0.1069 -0.5311
   77SLPC  H14B 6936   3.481   3.874   6.065 -1.1417 -1.7860  2.0392
   77SLPC  H14C 6937   3.321   3.823   6.016 -2.8620  0.4820  0.2345
   77SLPC   C15 6938   3.339   3.801   6.285 -0.0256  0.2372  0.6732
   77SLPC  H15A 6939   3.281   3.802   6.376  2.7960 -0.1967  2.6107
   77SLPC  H15B 6940   3.308   3.720   6.221  1.5865  1.1518 -1.3963
   77SLPC  H15C 6941   3.444   3.793   6.310  0.4857  2.2771 -0.5805
   77SLPC   C12 6942   3.359   4.045   6.274 -0.2988 -0.6548  0.0920
   77SLPC  H12A 6943   3.293   4.057   6.359 -1.2381  1.8109 -0.9023
   77SLPC  H12B 6944   3.346   4.137   6.220  1.1029  0.2674  1.2373
   77SLPC   C11 6945   3.512   4.046   6.313 -0.1621 -0.6788 -0.3426
   77SLPC  H11A 6946   3.531   4.145   6.361 -2.4177 -0.5508  0.4402
   77SLPC  H11B 6947   3.580   4.041   6.226  1.9724  0.1612  1.1793
   77SLPC     P 6948   3.508   3.944   6.549  0.3025 -0.7009 -0.2329
   77SLPC   O13 6949   3.389   4.030   6.567 -0.6234 -0.4965  0.2666
   77SLPC   O14 6950   3.500   3.810   6.605 -0.5985  0.8293 -0.0076
   77SLPC   O12 6951   3.547   3.940   6.397  0.0902  0.0789 -0.1314
   77SLPC   O11 6952   3.626   4.028   6.615 -0.3728 -0.1850 -0.2520
   77SLPC    C1 6953   3.756   4.030   6.558  0.0310 -0.0292  1.0790
   77SLPC    HA 6954   3.767   4.011   6.449 -0.0019  3.0191  0.4517
   77SLPC    HB 6955   3.793   4.134   6.568 -2.1048  1.0263 -1.0119
   77SLPC    C2 6956   3.845   3.932   6.631 -0.5091 -0.3167 -0.0423
   77SLPC    HS 6957   3.787   3.837   6.626  0.8995 -1.2301  0.5498
   77SLPC   O21 6958   3.871   3.981   6.764 -0.2193  0.4962 -0.8726
   77SLPC   C21 6959   3.799   3.936   6.865 -0.4652  0.3287 -0.1220
   77SLPC   O22 6960   3.710   3.851   6.858  0.3128 -0.1839  0.4181
   77SLPC   C22 6961   3.827   4.013   6.992  0.2736  0.0871  0.3446
   77SLPC   H2R 6962   3.923   3.975   7.032  0.1925  0.2746  0.7218
   77SLPC   H2S 6963   3.830   4.118   6.957 -0.4559 -0.1778 -0.5700
   77SLPC    C3 6964   3.982   3.910   6.554 -0.2248  0.1813  0.4649
   77SLPC    HX 6965   4.029   4.008   6.577 -1.3512  0.0889  3.6857
   77SLPC    HY 6966   3.975   3.890   6.445 -3.0209 -0.3849  0.6842
   77SLPC   O31 6967   4.066   3.803   6.620  0.0581 -0.4208  0.0966
   77SLPC   C31 6968   4.146   3.841   6.724 -0.2312 -0.5362 -0.5798
   77SLPC   O32 6969   4.174   3.956   6.751 -0.0477  0.5480  0.5979
   77SLPC   C32 6970   4.191   3.715   6.795 -0.4065  0.3780 -0.2787
   77SLPC   H2X 6971   4.292   3.729   6.839 -1.0662  0.8305  1.1816
   77SLPC   H2Y 6972   4.181   3.637   6.717 -1.3853  1.5628 -1.3813
   77SLPC   C23 6973   3.722   4.027   7.102 -0.3411  0.1414 -0.2037
   77SLPC   H3R 6974   3.672   3.930   7.125  0.6523  0.2367  2.7976
   77SLPC   H3S 6975   3.643   4.099   7.070 -0.0422 -0.1554 -1.7107
   77SLPC   C24 6976   3.781   4.083   7.237 -0.1863 -0.1680  0.3020
   77SLPC   H4R 6977   3.823   4.184   7.217  0.8172 -0.8426 -1.2055
   77SLPC   H4S 6978   3.868   4.021   7.268 -0.0330  0.6195  1.4817
   77SLPC   C25 6979   3.675   4.096   7.344  0.4766  0.5327 -0.4576
   77SLPC   H5R 6980   3.624   3.998   7.361  0.7664  0.5784  0.7720
   77SLPC   H5S 6981   3.611   4.183   7.316  1.9237  1.5429 -0.7573
   77SLPC   C26 6982   3.742   4.126   7.478 -0.2359 -0.1269 -0.9765
   77SLPC   H6R 6983   3.804   4.037   7.500 -3.1619 -1.7680  1.2742
   77SLPC   H6S 6984   3.662   4.120   7.555 -0.1352 -3.1162 -0.9957
   77SLPC   C27 6985   3.817   4.252   7.494 -0.3534  0.0005 -0.0976
   77SLPC   H7R 6986   3.753   4.341   7.478  2.0196  1.6694 -0.7962
   77SLPC   H7S 6987   3.881   4.263   7.404 -1.8530 -1.9006 -1.4839
   77SLPC   C28 6988   3.892   4.258   7.632  0.3738 -0.1122  0.0990
   77SLPC   H8R 6989   3.940   4.159   7.652 -2.7029 -2.0134 -1.2194
   77SLPC   H8S 6990   3.808   4.256   7.705  1.4122 -2.8637  1.3630
   77SLPC   C29 6991   3.991   4.372   7.636 -0.5262 -0.4992  0.5925
   77SLPC   H9R 6992   4.063   4.361   7.553 -1.8136 -1.1681 -0.4757
   77SLPC  C210 6993   3.989   4.479   7.720 -0.1585  0.1116  0.0400
   77SLPC  H10R 6994   4.060   4.562   7.707 -1.4643  1.2046 -0.3824
   77SLPC  C211 6995   3.886   4.515   7.827 -0.2169 -0.2206 -0.8027
   77SLPC  H11R 6996   3.934   4.590   7.894 -2.6540  0.5835  0.1842
   77SLPC  H11S 6997   3.856   4.425   7.885 -1.6875  0.3930 -0.5458
   77SLPC  C212 6998   3.758   4.594   7.794 -0.2545  1.4198 -0.5476
   77SLPC  H12R 6999   3.742   4.617   7.688 -0.4497 -1.1342 -1.1144
   77SLPC  C213 7000   3.689   4.661   7.883  0.4116  0.2960 -0.5481
   77SLPC  H13R 7001   3.592   4.701   7.851 -0.4324 -2.5056 -1.8664
   77SLPC  C214 7002   3.723   4.661   8.033 -0.5445  0.0231  0.2983
   77SLPC  H14R 7003   3.817   4.717   8.056 -1.5824  1.7154  0.6201
   77SLPC  H14S 7004   3.747   4.556   8.062  0.0070 -0.3500 -1.4001
   77SLPC  C215 7005   3.621   4.711   8.127 -0.0076 -1.0021 -0.1379
   77SLPC  H15R 7006   3.600   4.817   8.100 -0.3081 -1.2485 -0.9155
   77SLPC  H15S 7007   3.649   4.686   8.231 -0.0986 -2.1578 -0.3825
   77SLPC  C216 7008   3.489   4.645   8.109  0.8496 -0.2067 -0.1799
   77SLPC  H16R 7009   3.497   4.534   8.111  1.3576 -0.1635  1.0556
   77SLPC  H16S 7010   3.441   4.674   8.013 -0.1306 -2.5656 -0.4748
   77SLPC  C217 7011   3.388   4.676   8.223 -0.1036 -0.6565 -0.0351
   77SLPC  H17R 7012   3.284   4.671   8.186  0.4219  1.1109 -1.9622
   77SLPC  H17S 7013   3.389   4.785   8.247 -1.2343  0.1771 -3.2381
   77SLPC  C218 7014   3.413   4.576   8.339  0.1645  0.3686 -0.0145
   77SLPC  H18R 7015   3.496   4.618   8.401  0.0511 -1.3924  1.4289
   77SLPC  H18S 7016   3.437   4.472   8.310  1.7543  0.2815  1.4480
   77SLPC  H18T 7017   3.327   4.567   8.409  1.3990  1.3567  1.7511
   77SLPC   C33 7018   4.109   3.669   6.913  0.0661 -0.4062 -0.5372
   77SLPC   H3X 7019   4.121   3.560   6.929  0.8854 -0.2126  0.2061
   77SLPC   H3Y 7020   4.000   3.685   6.898  0.1520  1.4830  0.5388
   77SLPC   C34 7021   4.152   3.744   7.034  0.5098 -0.7122 -0.7016
   77SLPC   H4X 7022   4.165   3.850   7.002 -1.6817  0.0035  0.5927
   77SLPC   H4Y 7023   4.256   3.709   7.051  0.8858  0.2360 -0.9883
   77SLPC   C35 7024   4.048   3.731   7.155  0.1412  0.0842  0.0944
   77SLPC   H5X 7025   4.035   3.623   7.178 -1.6731 -0.0924 -1.5227
   77SLPC   H5Y 7026   3.946   3.764   7.125  0.9527  2.1312 -0.6008
   77SLPC   C36 7027   4.087   3.802   7.290 -0.4539  0.3672  0.2970
   77SLPC   H6X 7028   4.067   3.910   7.273 -3.4912 -0.3135 -1.1508
   77SLPC   H6Y 7029   4.190   3.780   7.324 -0.6081  1.2368  1.4019
   77SLPC   C37 7030   3.996   3.761   7.402  0.3401  0.1512 -0.4796
   77SLPC   H7X 7031   4.008   3.651   7.418  1.0428  0.3185  0.1925
   77SLPC   H7Y 7032   3.889   3.788   7.388 -0.1130  0.7029  3.1914
   77SLPC   C38 7033   4.041   3.818   7.538 -0.1823 -0.0009 -0.3567
   77SLPC   H8X 7034   4.044   3.929   7.535 -2.1240  0.1304  0.7908
   77SLPC   H8Y 7035   4.134   3.767   7.571 -0.7836 -0.2251  1.0596
   77SLPC   C39 7036   3.942   3.786   7.653 -0.7380 -0.4241  0.2244
   77SLPC   H9X 7037   3.922   3.678   7.639  1.9122 -1.1248  1.4027
   77SLPC   H9Y 7038   3.849   3.836   7.618 -0.9338 -0.3229  0.8763
   77SLPC  C310 7039   3.977   3.852   7.791 -0.7705 -0.6564  1.1120
   77SLPC  H10X 7040   4.011   3.956   7.772 -0.0730 -1.0206  0.2850
   77SLPC  H10Y 7041   4.071   3.804   7.826 -0.9066 -0.1501  2.2166
   77SLPC  C311 7042   3.871   3.838   7.895  0.0876 -1.0527  0.0592
   77SLPC  H11X 7043   3.778   3.886   7.857  1.0851  0.6794 -0.3474
   77SLPC  H11Y 7044   3.903   3.906   7.977 -3.5463 -0.1852  0.9352
   77SLPC  C312 7045   3.866   3.703   7.959  0.3038 -0.0463  0.4809
   77SLPC  H12X 7046   3.969   3.671   7.982  1.4617  0.5319 -3.2661
   77SLPC  H12Y 7047   3.821   3.623   7.897  3.7552 -0.8014 -1.2460
   77SLPC  C313 7048   3.780   3.708   8.084  0.0955  0.4645 -1.0463
   77SLPC  H13X 7049   3.823   3.785   8.153  0.2031  1.0252 -1.7343
   77SLPC  H13Y 7050   3.795   3.607   8.128 -0.9955  0.7709  0.0931
   77SLPC  C314 7051   3.631   3.739   8.056 -0.8707  0.3162 -0.0801
   77SLPC  H14X 7052   3.577   3.645   8.032  0.3952 -1.4572  3.2843
   77SLPC  H14Y 7053   3.621   3.816   7.976 -3.3215  1.1750  0.9849
   77SLPC  C315 7054   3.549   3.795   8.177 -0.5159  0.0304  1.0753
   77SLPC  H15X 7055   3.588   3.894   8.209 -1.1815 -0.3390  3.1294
   77SLPC  H15Y 7056   3.559   3.723   8.261 -0.0933 -1.9865 -0.5986
   77SLPC  C316 7057   3.401   3.820   8.141  0.0492 -0.0509 -0.2039
   77SLPC  H16X 7058   3.375   3.737   8.072  1.7364 -1.0862  0.3472
   77SLPC  H16Y 7059   3.389   3.911   8.078  0.6751 -0.4417 -0.9075
   77SLPC  C317 7060   3.318   3.833   8.266  0.1758 -0.1302 -0.4697
   77SLPC  H17X 7061   3.375   3.882   8.349  0.6614 -0.1808 -0.7671
   77SLPC  H17Y 7062   3.305   3.733   8.313  1.3503  0.0681  0.3208
   77SLPC  C318 7063   3.187   3.897   8.245  0.3546  0.0659  0.2625
   77SLPC  H18X 7064   3.203   4.001   8.209 -1.1222  0.4240  0.5773
   77SLPC  H18Y 7065   3.120   3.883   8.332  0.0306  0.6999  0.1195
   77SLPC  H18Z 7066   3.137   3.839   8.163  1.0523 -0.5462  0.2611
   78SLPC     N 7067   1.039   4.623   6.365  0.4215 -0.2130 -0.1986
   78SLPC   C13 7068   0.988   4.606   6.225  0.1058 -0.3469  0.4945
   78SLPC  H13A 7069   0.968   4.501   6.210 -1.1050 -0.4576  2.6236
   78SLPC  H13B 7070   0.898   4.662   6.205 -0.9302 -1.9406  0.5813
   78SLPC  H13C 7071   1.064   4.635   6.153 -0.8380 -2.0228 -1.2670
   78SLPC   C14 7072   1.081   4.767   6.377 -0.0829 -0.0850  0.0868
   78SLPC  H14A 7073   1.164   4.795   6.314 -0.6516  0.2221 -0.5411
   78SLPC  H14B 7074   1.007   4.837   6.339  2.5867  2.0801 -1.4731
   78SLPC  H14C 7075   1.093   4.806   6.477 -0.7251 -0.7795  0.4413
   78SLPC   C15 7076   1.157   4.525   6.376  0.8316  0.4740  0.3198
   78SLPC  H15A 7077   1.115   4.428   6.351  1.0140  0.8257 -1.5372
   78SLPC  H15B 7078   1.238   4.544   6.307  1.4417  0.8616  1.1333
   78SLPC  H15C 7079   1.200   4.523   6.475 -0.2742  1.5562  0.8610
   78SLPC   C12 7080   0.935   4.588   6.467 -0.0754  0.2646 -0.0317
   78SLPC  H12A 7081   0.870   4.674   6.476  1.3311  1.2329  1.5598
   78SLPC  H12B 7082   0.982   4.583   6.565  0.5487 -1.9066 -0.3954
   78SLPC   C11 7083   0.861   4.465   6.440  0.0411 -0.0594 -0.5990
   78SLPC  H11A 7084   0.816   4.463   6.339 -1.8765  0.3966  0.2100
   78SLPC  H11B 7085   0.782   4.464   6.518  2.2734  0.7364  1.8646
   78SLPC     P 7086   0.912   4.213   6.416  0.0989  0.1456 -0.5134
   78SLPC   O13 7087   0.825   4.210   6.299  0.2076  0.0778 -0.1756
   78SLPC   O14 7088   1.029   4.121   6.412  0.2385  0.2253 -0.6284
   78SLPC   O12 7089   0.955   4.351   6.464  0.8856 -0.3799  0.2452
   78SLPC   O11 7090   0.824   4.164   6.534  0.8047 -0.3270 -0.4060
   78SLPC    C1 7091   0.869   4.121   6.659 -0.4792 -0.1553  0.3845
   78SLPC    HA 7092   0.809   4.031   6.687  0.6440 -0.6236  1.3723
   78SLPC    HB 7093   0.972   4.080   6.660 -0.5575 -0.3547  0.4902
   78SLPC    C2 7094   0.848   4.226   6.773 -0.4176  0.3647 -0.3999
   78SLPC    HS 7095   0.911   4.312   6.743 -1.5288  0.9132 -1.2236
   78SLPC   O21 7096   0.878   4.170   6.907 -0.1689  0.5598 -0.7105
   78SLPC   C21 7097   0.999   4.142   6.928  0.2978 -0.1916  1.2174
   78SLPC   O22 7098   1.093   4.188   6.864 -0.2815  0.1474 -0.4943
   78SLPC   C22 7099   1.011   4.052   7.044 -0.1530  0.2269  0.7308
   78SLPC   H2R 7100   0.984   4.101   7.139  0.2867  0.5988  0.6629
   78SLPC   H2S 7101   0.938   3.968   7.038  0.1243  0.0369 -0.2404
   78SLPC    C3 7102   0.698   4.274   6.776  0.1712 -0.4830 -0.0808
   78SLPC    HX 7103   0.631   4.186   6.766 -1.0465  0.6525 -3.4799
   78SLPC    HY 7104   0.679   4.336   6.686 -1.0729 -2.2018 -1.0571
   78SLPC   O31 7105   0.669   4.347   6.897  0.1558  0.2195 -0.2868
   78SLPC   C31 7106   0.718   4.465   6.898 -0.2389 -0.7012  0.2524
   78SLPC   O32 7107   0.787   4.513   6.809  0.3625 -0.4840 -1.3363
   78SLPC   C32 7108   0.672   4.540   7.028  0.3622 -0.8811 -0.2559
   78SLPC   H2X 7109   0.764   4.592   7.065 -0.4531 -0.0757  0.6798
   78SLPC   H2Y 7110   0.638   4.467   7.104 -0.2498 -0.2226  0.1153
   78SLPC   C23 7111   1.156   4.004   7.046 -0.6950 -0.1001 -0.4840
   78SLPC   H3R 7112   1.231   4.085   7.033  0.9590 -1.4193  0.4479
   78SLPC   H3S 7113   1.157   3.931   6.962 -1.8422 -2.3452  1.3573
   78SLPC   C24 7114   1.193   3.936   7.179 -0.2491  0.0712 -0.1407
   78SLPC   H4R 7115   1.265   3.854   7.159  2.6723  2.7297 -1.2446
   78SLPC   H4S 7116   1.098   3.892   7.218 -0.1882  0.5555  0.5687
   78SLPC   C25 7117   1.253   4.026   7.283  0.3070  0.1615  0.5769
   78SLPC   H5R 7118   1.186   4.114   7.282  0.2465  0.1222  1.0302
   78SLPC   H5S 7119   1.347   4.068   7.243  0.3176  2.2105  2.6032
   78SLPC   C26 7120   1.275   3.977   7.428  0.3324 -0.1658  0.1031
   78SLPC   H6R 7121   1.304   4.068   7.486  0.1678 -1.5806  2.5661
   78SLPC   H6S 7122   1.355   3.899   7.430 -1.8426 -2.5565 -0.8884
   78SLPC   C27 7123   1.153   3.905   7.492 -0.7649  0.2656 -0.7677
   78SLPC   H7R 7124   1.120   3.816   7.434  0.2446 -1.8638  1.7695
   78SLPC   H7S 7125   1.066   3.975   7.495  0.4516  1.8485  2.5303
   78SLPC   C28 7126   1.188   3.870   7.638  0.5049  0.2243 -0.0381
   78SLPC   H8R 7127   1.274   3.800   7.634 -0.2177 -0.6124 -3.1423
   78SLPC   H8S 7128   1.100   3.819   7.682 -0.3212  1.4410 -0.2100
   78SLPC   C29 7129   1.240   3.978   7.729  0.5806  0.4827 -0.2747
   78SLPC   H9R 7130   1.345   4.008   7.729  0.7870 -0.1614  1.2843
   78SLPC  C210 7131   1.158   4.039   7.820 -0.7069 -0.2024 -0.2961
   78SLPC  H10R 7132   1.197   4.114   7.891 -0.3443  1.7907 -2.4847
   78SLPC  C211 7133   1.015   4.000   7.860 -0.6144  0.0604  0.2136
   78SLPC  H11R 7134   0.942   3.959   7.787  1.3110  1.1245 -2.4582
   78SLPC  H11S 7135   0.979   4.102   7.886 -1.5483  0.4715 -2.3703
   78SLPC  C212 7136   1.023   3.911   7.979  0.2944 -0.1732  0.1921
   78SLPC  H12R 7137   1.042   3.809   7.943  1.9715  0.7182 -1.6258
   78SLPC  C213 7138   1.027   3.938   8.113 -0.2660  0.5856  0.4499
   78SLPC  H13R 7139   1.044   3.852   8.179 -0.7817 -2.1171 -2.7084
   78SLPC  C214 7140   1.022   4.069   8.187 -0.3179  0.1500  0.2408
   78SLPC  H14R 7141   0.928   4.082   8.243  0.5000  1.3790  1.3784
   78SLPC  H14S 7142   1.022   4.151   8.112 -0.2452 -0.6593 -0.6751
   78SLPC  C215 7143   1.135   4.091   8.288 -0.1219  0.1658  0.1514
   78SLPC  H15R 7144   1.229   4.064   8.234 -0.4793 -1.3254  0.2484
   78SLPC  H15S 7145   1.127   4.016   8.369  0.0365 -0.3726 -0.3223
   78SLPC  C216 7146   1.128   4.238   8.343  0.2895 -0.7880 -0.6048
   78SLPC  H16R 7147   1.059   4.237   8.431  1.7511 -2.5638  0.6178
   78SLPC  H16S 7148   1.077   4.309   8.275 -0.0277  1.0249  1.4049
   78SLPC  C217 7149   1.266   4.287   8.381  0.6985  0.7481  0.1716
   78SLPC  H17R 7150   1.249   4.393   8.411 -1.3410  0.5391 -0.1244
   78SLPC  H17S 7151   1.336   4.281   8.295 -0.2491 -0.0656 -0.5520
   78SLPC  C218 7152   1.325   4.201   8.498  0.1252  0.3489 -0.0575
   78SLPC  H18R 7153   1.390   4.249   8.575  1.4878  0.1672 -1.0721
   78SLPC  H18S 7154   1.387   4.120   8.455 -0.4413 -0.2202  0.1803
   78SLPC  H18T 7155   1.244   4.147   8.552  1.4143 -1.1135  0.4582
   78SLPC   C33 7156   0.580   4.657   6.990 -0.2500  0.1281 -0.1261
   78SLPC   H3X 7157   0.480   4.617   6.961 -0.0406 -1.5825  1.2915
   78SLPC   H3Y 7158   0.622   4.723   6.912 -1.3807  0.3666 -0.5470
   78SLPC   C34 7159   0.552   4.732   7.124 -0.7973 -0.2356  0.1084
   78SLPC   H4X 7160   0.647   4.780   7.154 -0.7427 -0.0104 -0.4134
   78SLPC   H4Y 7161   0.514   4.662   7.201 -1.2358  0.3668  0.4483
   78SLPC   C35 7162   0.443   4.835   7.093 -0.7784 -0.1294  0.0727
   78SLPC   H5X 7163   0.347   4.781   7.110  0.3446 -2.5136 -0.7479
   78SLPC   H5Y 7164   0.448   4.851   6.983  0.4728 -0.0744  0.1234
   78SLPC   C36 7165   0.458   4.961   7.183 -0.5717  0.2811 -0.5129
   78SLPC   H6X 7166   0.394   5.046   7.153  1.3397  1.4195 -1.5675
   78SLPC   H6Y 7167   0.565   4.984   7.164 -0.2406 -0.9755 -0.2346
   78SLPC   C37 7168   0.448   4.923   7.335  0.3344 -0.0167 -0.8629
   78SLPC   H7X 7169   0.546   4.884   7.370 -1.9857 -3.0595  2.9931
   78SLPC   H7Y 7170   0.384   4.832   7.333 -0.3610  0.4263  0.6018
   78SLPC   C38 7171   0.394   5.030   7.430  0.0653 -0.3220  0.8338
   78SLPC   H8X 7172   0.304   5.076   7.382  1.3174  1.3286 -0.0099
   78SLPC   H8Y 7173   0.470   5.110   7.436  1.1432 -1.1631 -0.9343
   78SLPC   C39 7174   0.380   4.993   7.576  0.7856 -0.2276  0.1127
   78SLPC   H9X 7175   0.315   4.904   7.586  0.8526 -0.2580  0.2652
   78SLPC   H9Y 7176   0.336   5.077   7.633  3.9817  0.2563  2.1031
   78SLPC  C310 7177   0.510   4.977   7.654  0.3059  0.1916  0.0532
   78SLPC  H10X 7178   0.581   5.059   7.632 -0.6329  0.7407 -0.9807
   78SLPC  H10Y 7179   0.561   4.881   7.631 -2.0423 -1.6981  2.1303
   78SLPC  C311 7180   0.496   4.983   7.812  0.6883  0.6010  0.0976
   78SLPC  H11X 7181   0.462   5.086   7.835 -0.7943  0.1496  0.0652
   78SLPC  H11Y 7182   0.593   4.966   7.863  0.0146 -0.4400  1.0753
   78SLPC  C312 7183   0.388   4.883   7.875 -0.0553 -0.6287  0.8252
   78SLPC  H12X 7184   0.401   4.785   7.825 -1.5895  0.1229 -1.1668
   78SLPC  H12Y 7185   0.284   4.920   7.862  0.7091  0.9984 -1.4063
   78SLPC  C313 7186   0.405   4.866   8.025  0.3803 -0.3649 -0.0187
   78SLPC  H13X 7187   0.322   4.803   8.063  1.3957 -1.4786  0.4184
   78SLPC  H13Y 7188   0.393   4.970   8.063 -0.2853  0.4671 -2.3432
   78SLPC  C314 7189   0.535   4.793   8.055 -0.1448  0.1390  0.4872
   78SLPC  H14X 7190   0.632   4.847   8.048 -0.6688  0.9990 -0.4607
   78SLPC  H14Y 7191   0.553   4.699   8.000  0.7354  0.5853 -0.0107
   78SLPC  C315 7192   0.539   4.734   8.195  0.3448 -0.0438 -0.7707
   78SLPC  H15X 7193   0.632   4.675   8.204 -1.2571 -2.7021 -0.5634
   78SLPC  H15Y 7194   0.444   4.678   8.208 -0.6869  1.6789 -0.4991
   78SLPC  C316 7195   0.537   4.847   8.301 -0.2622  0.7027  0.1726
   78SLPC  H16X 7196   0.486   4.941   8.269 -0.9219  0.3846  0.2610
   78SLPC  H16Y 7197   0.643   4.871   8.323 -0.6222  1.5163  1.0845
   78SLPC  C317 7198   0.492   4.812   8.443  0.6680  0.5506  0.2150
   78SLPC  H17X 7199   0.383   4.791   8.440  0.6495  0.7751 -1.9710
   78SLPC  H17Y 7200   0.516   4.897   8.510  1.2343  0.5261  0.0531
   78SLPC  C318 7201   0.551   4.683   8.503 -0.6319  0.4020  0.2847
   78SLPC  H18X 7202   0.505   4.608   8.434 -0.0687  1.5609 -1.3991
   78SLPC  H18Y 7203   0.511   4.669   8.605 -0.6213  0.2707  0.2717
   78SLPC  H18Z 7204   0.661   4.673   8.499 -0.7572 -1.4053  0.4555
   79SLPC     N 7205   3.631   6.631   6.071  0.0988  0.4475  0.3674
   79SLPC   C13 7206   3.618   6.491   6.015 -0.4032  0.2742  0.8562
   79SLPC  H13A 7207   3.517   6.455   5.998 -0.1547 -0.4950  0.9779
   79SLPC  H13B 7208   3.666   6.475   5.920  0.9467  1.4343  1.3042
   79SLPC  H13C 7209   3.653   6.415   6.082 -0.7122 -0.4806  0.1774
   79SLPC   C14 7210   3.563   6.731   5.983  0.6050 -0.2276  0.2952
   79SLPC  H14A 7211   3.582   6.833   6.015  1.0933 -0.2925  0.2198
   79SLPC  H14B 7212   3.607   6.724   5.884 -0.6780  2.0435 -0.5140
   79SLPC  H14C 7213   3.457   6.711   5.972 -0.2797  2.8170  2.1169
   79SLPC   C15 7214   3.775   6.676   6.080  0.9171  0.6863 -0.0808
   79SLPC  H15A 7215   3.816   6.670   5.980  1.4201  2.1763  0.0159
   79SLPC  H15B 7216   3.776   6.776   6.119  0.0672 -0.4843  3.2232
   79SLPC  H15C 7217   3.838   6.607   6.134 -1.2831 -3.1540 -1.9033
   79SLPC   C12 7218   3.580   6.636   6.212 -0.7875  0.6503  0.4510
   79SLPC  H12A 7219   3.606   6.733   6.250 -1.3653  0.7583  0.5850
   79SLPC  H12B 7220   3.640   6.567   6.269 -1.1382 -0.9869 -1.0554
   79SLPC   C11 7221   3.430   6.609   6.257 -0.6623 -0.2896 -0.0823
   79SLPC  H11A 7222   3.432   6.606   6.368 -2.4624  0.0399 -0.0158
   79SLPC  H11B 7223   3.389   6.510   6.227 -0.5559 -0.3083 -0.1699
   79SLPC     P 7224   3.358   6.858   6.274 -0.0630 -0.2332  0.2807
   79SLPC   O13 7225   3.499   6.890   6.297  0.2504 -0.0935 -0.3966
   79SLPC   O14 7226   3.264   6.950   6.201 -0.6577 -0.1642 -0.1047
   79SLPC   O12 7227   3.352   6.718   6.209  0.0071  0.3055 -0.0170
   79SLPC   O11 7228   3.289   6.841   6.417 -0.0282 -0.6133 -0.1815
   79SLPC    C1 7229   3.155   6.793   6.424  0.4874  0.5333 -0.3484
   79SLPC    HA 7230   3.104   6.774   6.327  1.2420 -1.4198 -0.4044
   79SLPC    HB 7231   3.168   6.693   6.470 -2.1717  0.7246  1.0266
   79SLPC    C2 7232   3.054   6.881   6.504  0.4439  0.1931  0.6033
   79SLPC    HS 7233   3.025   6.964   6.435 -1.9340 -1.9866 -1.1893
   79SLPC   O21 7234   3.113   6.912   6.633  0.4136  0.6574 -0.2733
   79SLPC   C21 7235   3.086   7.036   6.690  0.4261  0.4002  0.0667
   79SLPC   O22 7236   3.018   7.119   6.635  0.8986 -0.2643 -0.0526
   79SLPC   C22 7237   3.136   7.041   6.831  0.2635  0.7357 -0.7108
   79SLPC   H2R 7238   3.247   7.039   6.837  0.3046  0.6396 -1.4251
   79SLPC   H2S 7239   3.089   7.133   6.871  0.3469 -1.0679  4.2291
   79SLPC    C3 7240   2.917   6.804   6.522 -0.1731  0.2535 -0.6061
   79SLPC    HX 7241   2.930   6.697   6.550 -0.7054  0.1870 -0.6098
   79SLPC    HY 7242   2.883   6.805   6.417 -0.0454  3.1573 -0.6974
   79SLPC   O31 7243   2.810   6.866   6.594  0.0489 -0.2762 -1.1333
   79SLPC   C31 7244   2.707   6.786   6.629  0.2432 -0.6159 -0.0162
   79SLPC   O32 7245   2.709   6.666   6.630  0.3708 -0.0016 -0.0347
   79SLPC   C32 7246   2.585   6.873   6.656 -0.6486 -0.0641 -0.5508
   79SLPC   H2X 7247   2.502   6.810   6.695  0.1112  0.4756  2.1250
   79SLPC   H2Y 7248   2.560   6.931   6.565  1.4916  0.3758 -0.9082
   79SLPC   C23 7249   3.084   6.919   6.912 -0.4076 -0.1211 -0.3269
   79SLPC   H3R 7250   3.147   6.829   6.895  0.8614  0.6194  0.3198
   79SLPC   H3S 7251   2.982   6.889   6.879 -1.5835  1.2037  1.8918
   79SLPC   C24 7252   3.060   6.943   7.070 -0.2943  0.5554  0.0546
   79SLPC   H4R 7253   3.012   6.847   7.101  0.8023 -0.2427 -0.6492
   79SLPC   H4S 7254   2.980   7.019   7.079 -1.0816 -0.3055  0.5716
   79SLPC   C25 7255   3.193   6.981   7.144  0.1256 -0.1704  0.2303
   79SLPC   H5R 7256   3.229   7.086   7.128  1.3709 -0.2831  1.9955
   79SLPC   H5S 7257   3.275   6.924   7.095  1.4282  0.8259  1.1688
   79SLPC   C26 7258   3.207   6.946   7.282  0.1849 -0.4041 -0.6174
   79SLPC   H6R 7259   3.311   6.956   7.319 -0.5865 -3.1120  2.7708
   79SLPC   H6S 7260   3.168   6.845   7.307  0.6537 -1.2186 -2.9068
   79SLPC   C27 7261   3.140   7.050   7.376  0.2085 -0.3946  0.1902
   79SLPC   H7R 7262   3.036   7.053   7.335  0.8058  0.4855 -1.3421
   79SLPC   H7S 7263   3.191   7.148   7.367  0.1050 -0.1934  1.5168
   79SLPC   C28 7264   3.152   7.000   7.519  0.2335  0.0671 -0.1064
   79SLPC   H8R 7265   3.260   6.992   7.544 -0.0625  0.1633  1.2930
   79SLPC   H8S 7266   3.091   6.907   7.520 -0.0611  0.1957 -2.0349
   79SLPC   C29 7267   3.092   7.095   7.617  0.0780 -0.0959  0.0337
   79SLPC   H9R 7268   3.001   7.141   7.574  0.4719  0.2978 -0.3826
   79SLPC  C210 7269   3.156   7.147   7.726  0.3024 -0.3599  0.1372
   79SLPC  H10R 7270   3.118   7.231   7.786  3.5627  2.5051 -1.5155
   79SLPC  C211 7271   3.300   7.109   7.780 -0.2772  0.0116  0.2773
   79SLPC  H11R 7272   3.372   7.147   7.705 -1.0941 -2.4418 -1.8750
   79SLPC  H11S 7273   3.316   7.000   7.789  0.0125  0.1134  1.0701
   79SLPC  C212 7274   3.333   7.169   7.919 -0.0881  0.1647  0.1913
   79SLPC  H12R 7275   3.374   7.271   7.907 -2.0175  1.0426  0.6870
   79SLPC  C213 7276   3.325   7.110   8.039  0.1953  0.4489  0.3670
   79SLPC  H13R 7277   3.344   7.167   8.131 -2.1885  1.7169  0.1435
   79SLPC  C214 7278   3.289   6.970   8.071 -0.0937  0.2382 -0.3372
   79SLPC  H14R 7279   3.382   6.909   8.076  0.1841  0.5381 -1.6802
   79SLPC  H14S 7280   3.230   6.931   7.986 -1.4451  2.6131 -0.5852
   79SLPC  C215 7281   3.231   6.964   8.216 -0.2821 -0.4670  0.2848
   79SLPC  H15R 7282   3.304   6.990   8.296 -0.6324  3.2017 -0.4268
   79SLPC  H15S 7283   3.209   6.855   8.230  3.4930 -1.6377 -1.6091
   79SLPC  C216 7284   3.106   7.043   8.249  0.2953 -0.6682  0.6620
   79SLPC  H16R 7285   3.040   7.030   8.160  0.5759  1.1925  0.1463
   79SLPC  H16S 7286   3.122   7.152   8.259 -3.2569 -0.1089  1.4693
   79SLPC  C217 7287   3.029   6.985   8.366 -0.3176 -0.0458  0.0082
   79SLPC  H17R 7288   3.012   6.876   8.353 -3.3124 -0.1285  3.3003
   79SLPC  H17S 7289   2.921   7.010   8.358 -0.8576 -1.5250  1.7831
   79SLPC  C218 7290   3.073   7.015   8.507 -0.3737 -0.1716 -0.4472
   79SLPC  H18R 7291   3.175   6.974   8.523  0.6582  1.7574 -1.6811
   79SLPC  H18S 7292   3.010   6.958   8.579  1.4488 -2.9631 -0.9340
   79SLPC  H18T 7293   3.082   7.125   8.524  0.8927 -0.2922 -0.2160
   79SLPC   C33 7294   2.620   6.977   6.769 -0.3185  0.1166 -0.1878
   79SLPC   H3X 7295   2.539   7.053   6.771 -0.6128 -0.1787 -0.8332
   79SLPC   H3Y 7296   2.693   7.051   6.731  2.6846 -0.8437  3.1505
   79SLPC   C34 7297   2.678   6.929   6.909 -0.8251  0.5640  0.2824
   79SLPC   H4X 7298   2.726   7.021   6.949 -0.0437  0.2681  0.0412
   79SLPC   H4Y 7299   2.757   6.852   6.905  0.0974  1.5495 -1.6342
   79SLPC   C35 7300   2.560   6.903   7.003 -0.6559 -0.4580 -0.7140
   79SLPC   H5X 7301   2.488   6.826   6.967 -0.9966 -0.0098 -0.9992
   79SLPC   H5Y 7302   2.486   6.986   6.995 -0.2864 -0.0515 -0.0181
   79SLPC   C36 7303   2.599   6.866   7.143  0.1454  0.2972  0.2044
   79SLPC   H6X 7304   2.651   6.768   7.139  0.2748  0.4122 -1.2792
   79SLPC   H6Y 7305   2.500   6.854   7.192 -0.7964  1.2012 -1.3784
   79SLPC   C37 7306   2.685   6.954   7.232 -0.5231  0.6523  0.0175
   79SLPC   H7X 7307   2.688   7.059   7.196  2.0646  1.4555  2.2560
   79SLPC   H7Y 7308   2.786   6.909   7.242 -0.6689  0.2935 -0.1053
   79SLPC   C38 7309   2.631   6.969   7.376 -0.2220 -0.9228  0.2817
   79SLPC   H8X 7310   2.631   6.868   7.423 -0.2901 -1.4880 -0.9096
   79SLPC   H8Y 7311   2.526   7.004   7.361 -0.1672 -1.6231 -2.1246
   79SLPC   C39 7312   2.702   7.080   7.460  0.1884  0.5303 -0.0131
   79SLPC   H9X 7313   2.713   7.172   7.400 -0.3910  2.0183  2.0509
   79SLPC   H9Y 7314   2.801   7.035   7.483  0.2388  0.6741  0.0500
   79SLPC  C310 7315   2.632   7.103   7.587  1.0061 -0.1826 -0.5693
   79SLPC  H10X 7316   2.615   7.004   7.634  0.6806  0.8539  1.6278
   79SLPC  H10Y 7317   2.537   7.155   7.559  3.0233  2.3648 -3.3106
   79SLPC  C311 7318   2.708   7.191   7.693  0.4814  0.0445  0.0168
   79SLPC  H11X 7319   2.737   7.291   7.654  0.3595 -0.1022 -0.4579
   79SLPC  H11Y 7320   2.806   7.152   7.728  1.1645  3.2173  2.0194
   79SLPC  C312 7321   2.620   7.213   7.813  0.2912 -0.1920  0.0541
   79SLPC  H12X 7322   2.602   7.114   7.861  3.3594 -1.6136 -1.4616
   79SLPC  H12Y 7323   2.524   7.262   7.783  0.5823  1.7132  1.9936
   79SLPC  C313 7324   2.691   7.299   7.914 -0.0872 -0.3264  0.3152
   79SLPC  H13X 7325   2.622   7.305   8.001 -1.0592  0.5713 -0.5034
   79SLPC  H13Y 7326   2.704   7.403   7.877  3.5407 -0.9940 -0.6852
   79SLPC  C314 7327   2.826   7.252   7.968 -0.4255  0.4419  0.2437
   79SLPC  H14X 7328   2.897   7.243   7.883  1.1259 -0.4577  1.5911
   79SLPC  H14Y 7329   2.814   7.156   8.023 -1.0215  0.8000  0.7506
   79SLPC  C315 7330   2.899   7.350   8.068 -0.1182  0.1576 -0.6196
   79SLPC  H15X 7331   2.883   7.454   8.032 -1.2457  0.2061 -0.0323
   79SLPC  H15Y 7332   3.003   7.312   8.073 -1.0705 -2.8848 -1.6167
   79SLPC  C316 7333   2.848   7.343   8.214 -1.4379 -0.0422  0.5419
   79SLPC  H16X 7334   2.897   7.253   8.257 -2.2718 -2.1659 -2.5697
   79SLPC  H16Y 7335   2.740   7.322   8.228 -1.7533  1.1312 -0.0215
   79SLPC  C317 7336   2.869   7.472   8.289  0.6430  0.2719 -0.4755
   79SLPC  H17X 7337   2.800   7.542   8.237 -1.4098 -2.0280 -1.0143
   79SLPC  H17Y 7338   2.972   7.503   8.261  0.4974  0.4310 -0.8415
   79SLPC  C318 7339   2.856   7.471   8.440 -0.1581 -0.1500 -0.4738
   79SLPC  H18X 7340   2.937   7.411   8.486  1.5846  3.2920  1.2944
   79SLPC  H18Y 7341   2.753   7.445   8.474 -0.1186  0.4320  0.0951
   79SLPC  H18Z 7342   2.865   7.573   8.481  0.1862 -0.1066 -0.6537
   80SLPC     N 7343   6.065   5.606   6.399 -0.0689  0.8372  0.2775
   80SLPC   C13 7344   6.058   5.568   6.549  0.3811 -0.4537 -0.2736
   80SLPC  H13A 7345   6.053   5.655   6.613  0.4724  0.2269 -1.1777
   80SLPC  H13B 7346   5.969   5.507   6.559  0.2223 -0.1727  0.0429
   80SLPC  H13C 7347   6.146   5.521   6.590 -1.1551 -2.8342  0.5659
   80SLPC   C14 7348   6.093   5.479   6.328 -0.2007  0.5370  0.2775
   80SLPC  H14A 7349   6.121   5.500   6.226  1.5481  0.4098  0.7046
   80SLPC  H14B 7350   6.167   5.422   6.382 -0.9321 -0.4762  0.2523
   80SLPC  H14C 7351   6.000   5.423   6.326 -0.0693  0.3110  0.4947
   80SLPC   C15 7352   6.164   5.714   6.377 -0.5734  0.7783 -0.0018
   80SLPC  H15A 7353   6.177   5.727   6.271  0.3280  1.3749  0.1732
   80SLPC  H15B 7354   6.142   5.809   6.424 -1.5093  0.0765  1.0401
   80SLPC  H15C 7355   6.263   5.686   6.407 -0.3045  1.5121 -0.1878
   80SLPC   C12 7356   5.933   5.650   6.344 -0.0101 -1.0095  0.3711
   80SLPC  H12A 7357   5.942   5.639   6.237 -1.3844  0.0796  0.1159
   80SLPC  H12B 7358   5.933   5.757   6.358  2.9789 -0.8863  0.1893
   80SLPC   C11 7359   5.799   5.590   6.389  0.2477 -0.0624 -0.7133
   80SLPC  H11A 7360   5.727   5.634   6.317 -0.6693 -2.0165 -1.0522
   80SLPC  H11B 7361   5.772   5.625   6.491 -0.5880  0.8571 -1.2267
   80SLPC     P 7362   5.691   5.351   6.322 -0.1941  0.3149 -0.1792
   80SLPC   O13 7363   5.627   5.435   6.214 -0.3793 -0.1383  0.3904
   80SLPC   O14 7364   5.737   5.213   6.287 -0.8514  0.2360 -0.4745
   80SLPC   O12 7365   5.806   5.441   6.374 -0.3684 -0.4974  0.2145
   80SLPC   O11 7366   5.592   5.329   6.440  0.6117 -0.6852 -0.3404
   80SLPC    C1 7367   5.597   5.397   6.564  0.6761 -0.2227 -0.6511
   80SLPC    HA 7368   5.580   5.504   6.540 -2.9468 -0.1135  1.5610
   80SLPC    HB 7369   5.506   5.369   6.622  1.4837 -0.6644  0.4370
   80SLPC    C2 7370   5.710   5.351   6.656 -0.2001 -0.1691  0.6790
   80SLPC    HS 7371   5.804   5.385   6.607 -0.0128  0.0799  1.2018
   80SLPC   O21 7372   5.713   5.204   6.666 -0.1729 -0.5111  0.1673
   80SLPC   C21 7373   5.834   5.164   6.710 -0.4643 -0.2982 -0.5648
   80SLPC   O22 7374   5.923   5.240   6.754  0.3109  0.3735  0.6218
   80SLPC   C22 7375   5.837   5.012   6.718  0.0351 -0.2829 -0.6802
   80SLPC   H2R 7376   5.773   4.972   6.636  1.4363  3.2625 -3.7997
   80SLPC   H2S 7377   5.937   4.974   6.687  1.3862  3.0954 -0.9464
   80SLPC    C3 7378   5.695   5.418   6.798 -0.4844  0.1884 -0.3542
   80SLPC    HX 7379   5.701   5.527   6.776  1.8494 -0.2892 -2.5848
   80SLPC    HY 7380   5.781   5.390   6.863 -0.6049  3.1407  1.2659
   80SLPC   O31 7381   5.564   5.392   6.860  0.0311  0.5712 -1.1070
   80SLPC   C31 7382   5.575   5.341   6.994 -0.0594  0.3048  0.2410
   80SLPC   O32 7383   5.677   5.329   7.054  0.1479 -0.0365  0.4159
   80SLPC   C32 7384   5.427   5.329   7.043 -0.4694 -0.1101 -0.4975
   80SLPC   H2X 7385   5.365   5.302   6.954 -0.5686  1.1452 -0.8360
   80SLPC   H2Y 7386   5.400   5.432   7.076 -0.1612 -0.0972 -0.2857
   80SLPC   C23 7387   5.785   4.956   6.853 -0.5718  0.3220  0.5527
   80SLPC   H3R 7388   5.800   4.847   6.847 -0.8081  0.3668 -1.4141
   80SLPC   H3S 7389   5.676   4.972   6.864 -0.4482  1.3656  0.3827
   80SLPC   C24 7390   5.860   4.999   6.971 -0.9351 -0.3863 -0.1827
   80SLPC   H4R 7391   5.845   5.107   6.990 -2.1365 -0.6361  0.4413
   80SLPC   H4S 7392   5.970   4.998   6.954 -1.1671  1.3620 -2.1886
   80SLPC   C25 7393   5.831   4.919   7.094  0.5061  0.6170 -0.4388
   80SLPC   H5R 7394   5.889   4.826   7.075 -0.4041 -0.1217  0.3583
   80SLPC   H5S 7395   5.724   4.898   7.114  0.8982  1.0713  2.5113
   80SLPC   C26 7396   5.883   4.982   7.221 -0.3808  0.8566  0.1934
   80SLPC   H6R 7397   5.986   5.020   7.200 -0.4822  0.3984 -1.2716
   80SLPC   H6S 7398   5.883   4.898   7.293 -2.1966 -0.9898 -1.8112
   80SLPC   C27 7399   5.800   5.098   7.275  0.3728 -0.1639 -0.3621
   80SLPC   H7R 7400   5.695   5.063   7.280 -0.0381  1.1588  1.7160
   80SLPC   H7S 7401   5.789   5.180   7.200 -0.2158 -0.8618 -1.0488
   80SLPC   C28 7402   5.864   5.159   7.407  0.2470 -0.0576  0.2548
   80SLPC   H8R 7403   5.788   5.228   7.449  0.1361  0.5129 -0.8287
   80SLPC   H8S 7404   5.940   5.227   7.362 -1.1954  1.4222 -0.0626
   80SLPC   C29 7405   5.919   5.065   7.512  0.6934 -0.0945 -1.0027
   80SLPC   H9R 7406   6.021   5.029   7.493  1.1760  0.5791  0.1765
   80SLPC  C210 7407   5.859   5.041   7.633 -0.9354  0.6658  0.4472
   80SLPC  H10R 7408   5.910   4.973   7.703  0.0593  0.1765 -0.6995
   80SLPC  C211 7409   5.718   5.083   7.682 -1.2291  0.2378  0.1401
   80SLPC  H11R 7410   5.672   4.996   7.733 -0.3511 -0.5034 -0.2885
   80SLPC  H11S 7411   5.646   5.102   7.600 -2.2754 -0.8985  0.7681
   80SLPC  C212 7412   5.735   5.204   7.772 -0.1329 -0.6798 -0.0135
   80SLPC  H12R 7413   5.761   5.294   7.715  0.6073 -0.0889  1.2304
   80SLPC  C213 7414   5.709   5.214   7.899 -0.1044  0.4647  0.3375
   80SLPC  H13R 7415   5.734   5.308   7.951 -0.1688  0.7768 -0.1943
   80SLPC  C214 7416   5.658   5.096   7.988 -0.0471 -0.2479  0.8245
   80SLPC  H14R 7417   5.741   5.024   8.003  1.5008  0.6286 -2.4976
   80SLPC  H14S 7418   5.570   5.046   7.942 -1.0681  3.0091 -1.1819
   80SLPC  C215 7419   5.609   5.161   8.113  0.1312  0.3812 -0.3211
   80SLPC  H15R 7420   5.562   5.081   8.174 -1.8682  1.5055 -0.2896
   80SLPC  H15S 7421   5.536   5.239   8.082  0.2772  0.1411 -1.3140
   80SLPC  C216 7422   5.720   5.218   8.206  0.0168 -1.1713  1.1179
   80SLPC  H16R 7423   5.749   5.317   8.165 -0.4241 -1.0084  1.1977
   80SLPC  H16S 7424   5.807   5.150   8.195 -1.1931 -2.5145 -0.7904
   80SLPC  C217 7425   5.678   5.213   8.351 -0.4066 -0.7264  0.3495
   80SLPC  H17R 7426   5.750   5.274   8.409 -1.4685  0.6514  0.2461
   80SLPC  H17S 7427   5.685   5.105   8.378  1.7306 -1.1139 -1.4182
   80SLPC  C218 7428   5.534   5.258   8.360 -0.1546 -0.4971 -0.9806
   80SLPC  H18R 7429   5.509   5.287   8.464 -1.7402  1.5797 -1.8769
   80SLPC  H18S 7430   5.461   5.177   8.337 -1.2761  0.6370 -1.5350
   80SLPC  H18T 7431   5.513   5.336   8.283 -2.3031 -2.2582 -2.3227
   80SLPC   C33 7432   5.412   5.239   7.162  0.3789 -0.1718 -0.8504
   80SLPC   H3X 7433   5.483   5.154   7.170 -1.9889 -2.1049  4.0403
   80SLPC   H3Y 7434   5.310   5.195   7.164  0.4174 -0.2474 -0.4844
   80SLPC   C34 7435   5.434   5.305   7.294 -0.0974 -0.9792 -0.2358
   80SLPC   H4X 7436   5.354   5.380   7.314  1.6481  0.8666  0.2406
   80SLPC   H4Y 7437   5.532   5.359   7.295  0.8708 -2.6331 -1.6335
   80SLPC   C35 7438   5.440   5.205   7.414 -0.3852 -0.6452  0.1449
   80SLPC   H5X 7439   5.432   5.260   7.511  0.2452 -0.0729 -0.1223
   80SLPC   H5Y 7440   5.534   5.150   7.397  0.9949  1.8986 -1.0450
   80SLPC   C36 7441   5.321   5.101   7.415  0.6187 -0.1097 -0.4502
   80SLPC   H6X 7442   5.335   5.023   7.337 -2.3493  0.0829 -1.3141
   80SLPC   H6Y 7443   5.225   5.149   7.385  0.1474 -1.0165 -0.4272
   80SLPC   C37 7444   5.318   5.027   7.548 -0.3582 -0.4683 -0.0239
   80SLPC   H7X 7445   5.312   5.089   7.640 -2.3237 -1.8028  0.8434
   80SLPC   H7Y 7446   5.415   4.974   7.559 -0.6215 -1.4565 -2.0942
   80SLPC   C38 7447   5.194   4.935   7.549  0.6771  0.4115 -0.2475
   80SLPC   H8X 7448   5.099   4.991   7.537 -0.1003 -1.2803 -2.7364
   80SLPC   H8Y 7449   5.183   4.873   7.640  0.1239  0.2995 -0.3893
   80SLPC   C39 7450   5.210   4.844   7.430  0.0715 -0.3619 -0.2736
   80SLPC   H9X 7451   5.319   4.824   7.430 -0.0577 -1.0887 -0.4106
   80SLPC   H9Y 7452   5.185   4.883   7.328  3.0313  1.2094 -0.5100
   80SLPC  C310 7453   5.149   4.700   7.451 -0.3390  0.3490  0.3246
   80SLPC  H10X 7454   5.042   4.695   7.479 -0.4970 -1.4165 -0.4149
   80SLPC  H10Y 7455   5.208   4.646   7.528  0.9068 -1.9780 -2.0602
   80SLPC  C311 7456   5.167   4.611   7.333  0.1636  0.0422 -0.1742
   80SLPC  H11X 7457   5.271   4.594   7.299  0.1317  1.2046 -0.9425
   80SLPC  H11Y 7458   5.110   4.667   7.255  2.1112  1.1507 -0.8613
   80SLPC  C312 7459   5.110   4.474   7.365  0.7413 -0.1586 -0.1917
   80SLPC  H12X 7460   5.003   4.495   7.386  0.6012 -2.0600  1.2599
   80SLPC  H12Y 7461   5.164   4.437   7.454  0.5435  1.6441  0.7053
   80SLPC  C313 7462   5.115   4.371   7.249 -0.4894 -0.1097  0.2213
   80SLPC  H13X 7463   5.073   4.275   7.288  0.7709 -1.5271 -1.7017
   80SLPC  H13Y 7464   5.217   4.345   7.214 -0.6070 -0.1733 -0.0729
   80SLPC  C314 7465   5.023   4.405   7.126 -0.7465 -0.3615 -0.2484
   80SLPC  H14X 7466   5.066   4.498   7.084  0.5678 -1.8208 -2.3428
   80SLPC  H14Y 7467   4.914   4.405   7.146 -0.6690 -1.0045  0.2146
   80SLPC  C315 7468   5.046   4.295   7.023  0.3196 -0.3727 -0.2524
   80SLPC  H15X 7469   4.994   4.201   7.052  0.6447  0.4324  3.5339
   80SLPC  H15Y 7470   5.153   4.268   7.016 -0.0423 -1.9754  0.0176
   80SLPC  C316 7471   4.991   4.344   6.887 -0.7766  0.6039  0.5759
   80SLPC  H16X 7472   5.015   4.448   6.855 -2.9944  1.5098  1.6402
   80SLPC  H16Y 7473   4.880   4.343   6.891 -0.7492 -1.7295  3.5897
   80SLPC  C317 7474   5.029   4.239   6.771 -0.8903 -0.1355 -0.1952
   80SLPC  H17X 7475   4.942   4.175   6.743 -1.1343  0.3861 -0.6356
   80SLPC  H17Y 7476   5.115   4.173   6.796 -1.5397 -1.4839 -1.3210
   80SLPC  C318 7477   5.077   4.318   6.643 -0.2202 -0.4545 -0.0948
   80SLPC  H18X 7478   5.003   4.381   6.590  1.0405  1.3915  0.2481
   80SLPC  H18Y 7479   5.136   4.255   6.572 -1.0377 -0.0731 -1.1361
   80SLPC  H18Z 7480   5.148   4.384   6.698 -1.8273  0.7574  0.6140
   81SAPS     N 7481   6.030   5.107  11.305 -0.5772  0.3598 -0.6516
   81SAPS   HN1 7482   6.129   5.075  11.295 -0.8802 -0.3133 -1.6485
   81SAPS   HN2 7483   6.014   5.179  11.232 -2.5968  0.8513  0.2149
   81SAPS   HN3 7484   6.022   5.149  11.400  0.5645  0.2159 -0.4707
   81SAPS   C12 7485   5.950   4.997  11.286  0.0524  0.0090 -0.4531
   81SAPS  H12A 7486   6.010   4.911  11.311 -1.3936 -0.8821  0.1195
   81SAPS   C13 7487   5.821   4.993  11.382  0.0990 -0.3599  0.5134
   81SAPS  O13A 7488   5.804   5.090  11.463 -0.2688 -0.0289 -0.1957
   81SAPS  O13B 7489   5.739   4.897  11.367  0.5048 -0.3323 -0.5059
   81SAPS   C11 7490   5.906   5.007  11.134  0.6792 -0.8773 -0.3601
   81SAPS  H11A 7491   5.833   5.090  11.120 -0.4122 -1.9457 -1.3689
   81SAPS  H11B 7492   5.852   4.912  11.113  0.4148 -0.4090 -1.9870
   81SAPS     P 7493   6.093   4.906  10.983 -0.1141  0.0354 -0.1593
   81SAPS   O13 7494   6.211   4.883  11.068 -0.1179  0.0903  0.0302
   81SAPS   O14 7495   6.009   4.789  10.964 -0.1898  0.0300 -0.3866
   81SAPS   O12 7496   6.009   5.024  11.042  0.3842 -0.5242 -0.1946
   81SAPS   O11 7497   6.127   4.961  10.835  0.0808  0.0654 -0.2725
   81SAPS    C1 7498   6.040   5.058  10.783  0.0422  0.2409  0.4124
   81SAPS    HA 7499   5.937   5.055  10.825  0.2184 -0.0584  0.8276
   81SAPS    HB 7500   6.081   5.161  10.792 -1.9646  0.9062  3.1422
   81SAPS    C2 7501   6.008   5.025  10.638 -0.0848 -0.2665  0.5695
   81SAPS    HS 7502   6.028   4.917  10.619  2.0538  0.0235  0.8516
   81SAPS   O21 7503   6.090   5.101  10.554 -0.5398 -0.4132 -0.1001
   81SAPS   C21 7504   6.209   5.053  10.510  0.2504  0.2305 -0.6045
   81SAPS   O22 7505   6.241   4.934  10.525 -0.4774 -0.6738 -0.6372
   81SAPS   C22 7506   6.285   5.172  10.449  0.2333  0.0346  0.3939
   81SAPS   H2R 7507   6.226   5.265  10.441  0.5608  0.0991 -1.7471
   81SAPS   H2S 7508   6.357   5.197  10.529 -0.1931  0.1113  0.7586
   81SAPS    C3 7509   5.857   5.064  10.598  0.1501 -0.2143  0.0115
   81SAPS    HX 7510   5.842   5.167  10.638  1.3133  1.1988 -2.8617
   81SAPS    HY 7511   5.792   4.992  10.651 -0.7831 -0.8451 -1.9379
   81SAPS   O31 7512   5.822   5.048  10.460  0.0004  0.0007  0.5670
   81SAPS   C31 7513   5.800   5.164  10.388  0.1815  0.8284 -0.1557
   81SAPS   O32 7514   5.823   5.276  10.428 -0.0615 -0.3010 -1.0535
   81SAPS   C32 7515   5.746   5.134  10.245 -0.1696  0.3377 -0.0816
   81SAPS   H2X 7516   5.650   5.079  10.260 -0.6896  0.8454 -1.3987
   81SAPS   H2Y 7517   5.821   5.064  10.203  1.4715  0.0768  2.9920
   81SAPS   C23 7518   6.344   5.151  10.305  0.2599 -0.2757  0.3832
   81SAPS   H3R 7519   6.414   5.066  10.290 -0.6560 -0.9773  0.0440
   81SAPS   H3S 7520   6.401   5.243  10.280  0.6361 -0.7736 -0.6240
   81SAPS   C24 7521   6.238   5.151  10.190 -0.2344 -0.6592 -0.2758
   81SAPS   H4R 7522   6.288   5.206  10.108 -0.7712  1.0760  0.5027
   81SAPS   H4S 7523   6.156   5.221  10.219  2.8328  3.3489 -0.4701
   81SAPS   C25 7524   6.193   5.006  10.163 -0.0407 -0.2591  0.7139
   81SAPS   H5R 7525   6.209   4.933  10.243  1.6383  2.2986  2.8758
   81SAPS   C26 7526   6.143   4.965  10.045  0.2965  0.2831  0.4711
   81SAPS   H6R 7527   6.110   4.861  10.031 -1.8993  1.1384 -1.3111
   81SAPS   C27 7528   6.111   5.047   9.923 -1.1367 -0.1132  0.0853
   81SAPS   H7R 7529   6.085   5.150   9.955  0.5441  0.7570 -1.2077
   81SAPS   H7S 7530   6.013   5.016   9.881 -0.2255 -1.8501 -0.8586
   81SAPS   C28 7531   6.225   5.046   9.821  0.1413 -0.0683  0.3715
   81SAPS   H8R 7532   6.327   5.073   9.850  0.2546  2.5262 -2.0538
   81SAPS   C29 7533   6.203   5.031   9.690 -0.1743  0.4737 -0.7761
   81SAPS   H9R 7534   6.296   5.023   9.632 -0.3811 -3.0494 -0.8017
   81SAPS  C210 7535   6.066   5.014   9.624  0.9836 -0.0053 -0.0567
   81SAPS  H10R 7536   6.000   5.102   9.637 -0.9508 -1.2600 -0.9060
   81SAPS  H10S 7537   6.016   4.922   9.662 -0.2504 -0.1359 -1.8599
   81SAPS  C211 7538   6.082   5.003   9.473  0.8282 -0.3517 -0.2849
   81SAPS  H11R 7539   6.129   5.091   9.427 -0.4059 -0.4658 -1.8723
   81SAPS  C212 7540   6.050   4.904   9.381 -1.0006 -0.0665 -0.2745
   81SAPS  H12R 7541   6.075   4.919   9.275  2.2980 -1.6018  0.1572
   81SAPS  C213 7542   5.981   4.774   9.421 -0.1355 -0.3498 -0.2766
   81SAPS  H13R 7543   5.891   4.758   9.357  0.6590  1.0406 -1.8189
   81SAPS  H13S 7544   5.947   4.781   9.526  1.4961 -1.8296  0.3969
   81SAPS  C214 7545   6.073   4.656   9.411  0.1776  0.3610 -0.1904
   81SAPS  H14R 7546   6.169   4.660   9.465  0.7304  1.5270 -1.2223
   81SAPS  C215 7547   6.053   4.549   9.329  0.0533 -0.7725 -0.2473
   81SAPS  H15R 7548   6.126   4.467   9.327  0.2329 -0.6584  0.9682
   81SAPS  C216 7549   5.936   4.535   9.230 -0.6333  0.3550  0.7175
   81SAPS  H16R 7550   5.956   4.604   9.146  0.2677 -0.2789  0.4009
   81SAPS  H16S 7551   5.834   4.559   9.268 -2.1846 -2.0914 -1.5569
   81SAPS  C217 7552   5.946   4.398   9.154  0.4574  0.0111  0.6595
   81SAPS  H17R 7553   5.910   4.313   9.216  2.4974 -0.4233  1.3379
   81SAPS  H17S 7554   6.044   4.367   9.113 -0.0877 -1.6234  0.4987
   81SAPS  C218 7555   5.839   4.405   9.037 -0.0633 -0.9821 -0.3504
   81SAPS  H18R 7556   5.873   4.484   8.966  0.0393 -1.6580 -1.0659
   81SAPS  H18S 7557   5.738   4.439   9.066  1.2929  2.5435  0.8086
   81SAPS  C219 7558   5.824   4.272   8.966 -0.5797  1.1284  0.5348
   81SAPS  H19R 7559   5.753   4.289   8.882  1.0029  0.7205 -0.9462
   81SAPS  H19S 7560   5.774   4.207   9.041 -1.2324  1.9697  0.8387
   81SAPS  C220 7561   5.951   4.216   8.905  0.6970  0.4540 -0.5990
   81SAPS  H20R 7562   5.919   4.159   8.815 -1.2007  1.4035 -0.5792
   81SAPS  H20S 7563   6.009   4.154   8.977 -0.7318  0.8825  0.9872
   81SAPS  H20T 7564   6.007   4.304   8.867 -0.3054 -0.0085 -3.3848
   81SAPS   C33 7565   5.732   5.262  10.165 -0.1897  0.0869 -0.2536
   81SAPS   H3X 7566   5.830   5.311  10.147 -0.8026  1.2769 -0.5059
   81SAPS   H3Y 7567   5.673   5.342  10.215 -2.7313 -1.6244 -0.3022
   81SAPS   C34 7568   5.663   5.231  10.033 -0.0858  0.0218 -0.3008
   81SAPS   H4X 7569   5.623   5.322   9.983  1.1089 -0.2695 -1.8935
   81SAPS   H4Y 7570   5.577   5.165  10.051 -1.5605  2.3416  1.9227
   81SAPS   C35 7571   5.752   5.153   9.937 -0.6435 -0.0011 -0.5158
   81SAPS   H5X 7572   5.724   5.046   9.946  1.9990 -0.6466  0.8084
   81SAPS   H5Y 7573   5.857   5.155   9.970 -0.5595 -2.9577 -0.3529
   81SAPS   C36 7574   5.751   5.215   9.796 -0.4973 -0.1811 -0.1565
   81SAPS   H6X 7575   5.826   5.159   9.737  0.2261  0.1295  0.4474
   81SAPS   H6Y 7576   5.777   5.323   9.787  1.4749 -0.7682 -2.4762
   81SAPS   C37 7577   5.614   5.192   9.731 -0.1020  0.1207 -0.3920
   81SAPS   H7X 7578   5.537   5.262   9.769 -0.8104 -1.6022  1.4877
   81SAPS   H7Y 7579   5.587   5.085   9.746  2.3943 -0.5013  0.2945
   81SAPS   C38 7580   5.636   5.194   9.578  0.1064  0.4212  0.1356
   81SAPS   H8X 7581   5.540   5.169   9.528 -0.7847 -0.1094  2.0356
   81SAPS   H8Y 7582   5.698   5.107   9.547  1.1756  0.6925  1.4154
   81SAPS   C39 7583   5.699   5.314   9.509 -0.7044  1.4148 -0.5361
   81SAPS   H9X 7584   5.809   5.316   9.529 -0.4595 -1.3263 -1.2272
   81SAPS   H9Y 7585   5.652   5.410   9.541 -2.6701 -0.0338  1.1599
   81SAPS  C310 7586   5.677   5.320   9.366 -0.0044  0.1278 -0.0799
   81SAPS  H10X 7587   5.695   5.425   9.336  1.9375  0.6147  2.4379
   81SAPS  H10Y 7588   5.570   5.300   9.345  0.0148  1.5774 -1.7757
   81SAPS  C311 7589   5.774   5.229   9.288 -0.0039 -0.0888  0.0579
   81SAPS  H11X 7590   5.768   5.126   9.329 -0.1771 -0.2767 -0.4350
   81SAPS  H11Y 7591   5.881   5.256   9.298 -0.2089  0.1983  1.6605
   81SAPS  C312 7592   5.726   5.236   9.138  0.1240 -0.7735 -0.2888
   81SAPS  H12X 7593   5.712   5.341   9.105  1.8942 -0.7498 -1.0781
   81SAPS  H12Y 7594   5.633   5.177   9.126 -0.5531  0.6099 -2.1982
   81SAPS  C313 7595   5.836   5.178   9.050  0.8904  0.2959  0.0864
   81SAPS  H13X 7596   5.924   5.233   9.087  2.0984 -0.9864 -0.7761
   81SAPS  H13Y 7597   5.825   5.205   8.943  2.3260 -0.2334 -0.2181
   81SAPS  C314 7598   5.855   5.022   9.072 -0.3441 -0.3221 -1.0319
   81SAPS  H14X 7599   5.759   4.970   9.054 -1.0272  0.2811  0.6556
   81SAPS  H14Y 7600   5.887   5.004   9.177  0.8300  0.1968 -1.2767
   81SAPS  C315 7601   5.971   4.962   8.983 -0.5438  0.5648  0.2658
   81SAPS  H15X 7602   6.011   4.875   9.039  1.1146  1.2983  0.2684
   81SAPS  H15Y 7603   6.049   5.040   8.972  0.0191 -0.2130 -1.5275
   81SAPS  C316 7604   5.914   4.916   8.845 -0.4254  0.1334 -0.2726
   81SAPS  H16X 7605   5.873   4.999   8.784  0.1348  0.9574  0.4425
   81SAPS  H16Y 7606   5.839   4.836   8.864  0.9231 -0.9570  0.6626
   81SAPS  C317 7607   6.018   4.849   8.751  0.1540 -0.0745 -0.7903
   81SAPS  H17X 7608   6.062   4.759   8.799  1.6573  0.6634 -0.7431
   81SAPS  H17Y 7609   6.108   4.911   8.769  0.2562 -0.2625 -0.6510
   81SAPS  C318 7610   5.975   4.816   8.612 -0.4031  0.1908  0.0170
   81SAPS  H18X 7611   5.960   4.908   8.553 -0.6494 -0.9351 -1.7329
   81SAPS  H18Y 7612   5.879   4.761   8.617 -0.5352  0.5285  2.9954
   81SAPS  H18Z 7613   6.052   4.749   8.567  1.0400  0.4431  1.9378
   82SAPS     N 7614   3.879   5.758  10.973 -0.3090 -0.2049  0.2545
   82SAPS   HN1 7615   3.949   5.834  10.959 -3.0363  2.3938 -0.1502
   82SAPS   HN2 7616   3.891   5.689  10.895  2.2001  0.1601  0.2082
   82SAPS   HN3 7617   3.787   5.804  10.967  0.1233  0.5300 -1.2555
   82SAPS   C12 7618   3.903   5.689  11.105 -0.1507  0.2353  0.0997
   82SAPS  H12A 7619   4.010   5.675  11.109 -0.1210  0.8016  1.5794
   82SAPS   C13 7620   3.848   5.764  11.232 -0.7113 -0.1985 -0.0195
   82SAPS  O13A 7621   3.774   5.861  11.216 -0.2179 -0.1836  0.4105
   82SAPS  O13B 7622   3.876   5.719  11.349 -0.4171  0.5371 -0.5296
   82SAPS   C11 7623   3.834   5.555  11.098 -0.2339 -0.3691 -0.0959
   82SAPS  H11A 7624   3.726   5.582  11.093 -0.1998 -0.0919  0.5620
   82SAPS  H11B 7625   3.855   5.496  11.190  1.5055 -0.5491 -0.5830
   82SAPS     P 7626   3.984   5.371  10.992  0.0375 -0.1950 -0.0109
   82SAPS   O13 7627   4.105   5.421  10.920 -0.8588  0.1391  0.1973
   82SAPS   O14 7628   4.011   5.326  11.131  0.0257 -0.2020  0.3059
   82SAPS   O12 7629   3.867   5.476  10.986  0.6792 -0.1653 -0.0446
   82SAPS   O11 7630   3.932   5.243  10.911  0.8142 -0.3372  0.4407
   82SAPS    C1 7631   4.010   5.157  10.822 -0.0811 -0.2402 -0.5575
   82SAPS    HA 7632   4.110   5.154  10.869 -0.8602  1.6816  1.3808
   82SAPS    HB 7633   3.973   5.052  10.826  0.4400 -0.4617 -1.3003
   82SAPS    C2 7634   4.028   5.209  10.676 -0.1757 -0.2076  0.4606
   82SAPS    HS 7635   4.054   5.317  10.680 -1.2132  0.1478 -1.4533
   82SAPS   O21 7636   3.913   5.177  10.599 -0.0224  1.0434 -0.4835
   82SAPS   C21 7637   3.818   5.267  10.602 -0.0361 -0.9171 -0.0237
   82SAPS   O22 7638   3.820   5.372  10.665 -0.1512 -0.0351  0.6997
   82SAPS   C22 7639   3.695   5.213  10.534  0.9833  0.9382  0.4927
   82SAPS   H2R 7640   3.718   5.173  10.433 -3.0098 -1.1312  0.1880
   82SAPS   H2S 7641   3.651   5.135  10.599  1.0439  0.8047  0.3735
   82SAPS    C3 7642   4.144   5.139  10.601 -0.9305 -0.5415  0.0424
   82SAPS    HX 7643   4.102   5.037  10.591  2.3300 -1.8688 -1.5409
   82SAPS    HY 7644   4.240   5.138  10.657 -1.3247 -0.5746  0.7264
   82SAPS   O31 7645   4.166   5.185  10.462  0.1767  0.1943  0.6179
   82SAPS   C31 7646   4.261   5.272  10.450  0.5180  0.4410 -0.2044
   82SAPS   O32 7647   4.335   5.302  10.541  0.5831 -0.4465 -0.4326
   82SAPS   C32 7648   4.268   5.311  10.311 -0.0069 -0.0982 -0.2054
   82SAPS   H2X 7649   4.168   5.346  10.278  0.1043 -0.3273 -0.7929
   82SAPS   H2Y 7650   4.300   5.223  10.250  0.0572  0.4182 -0.9244
   82SAPS   C23 7651   3.584   5.314  10.519 -0.1825 -0.1039  0.1891
   82SAPS   H3R 7652   3.629   5.407  10.480  0.8369  0.1528  1.8571
   82SAPS   H3S 7653   3.557   5.340  10.624  0.8373  1.1481  0.1579
   82SAPS   C24 7654   3.452   5.263  10.445 -1.0274  0.1923 -0.0363
   82SAPS   H4R 7655   3.474   5.242  10.338  1.5365 -1.8352  0.7860
   82SAPS   H4S 7656   3.375   5.342  10.430 -3.7378 -2.4196 -0.9454
   82SAPS   C25 7657   3.386   5.160  10.536  0.6711  0.0101  0.0292
   82SAPS   H5R 7658   3.363   5.184  10.640  1.8456 -2.6556  0.9954
   82SAPS   C26 7659   3.368   5.030  10.504  0.6229 -0.4857  0.0596
   82SAPS   H6R 7660   3.327   4.966  10.584 -1.6285  2.2587  1.2816
   82SAPS   C27 7661   3.417   4.964  10.371  0.0135 -0.0115 -0.0869
   82SAPS   H7R 7662   3.492   5.030  10.323  0.1855 -0.4210 -0.3854
   82SAPS   H7S 7663   3.329   4.968  10.304  0.2439  1.5348 -0.3255
   82SAPS   C28 7664   3.475   4.830  10.390 -0.6369  0.6292 -0.2254
   82SAPS   H8R 7665   3.465   4.787  10.491 -0.1324  0.5521 -0.2012
   82SAPS   C29 7666   3.532   4.752  10.291  0.1199 -0.3869 -0.5649
   82SAPS   H9R 7667   3.588   4.660  10.314  1.3849  0.1361 -1.4043
   82SAPS  C210 7668   3.541   4.792  10.145 -0.2027  0.0447  0.0571
   82SAPS  H10R 7669   3.578   4.700  10.095  0.5918  0.0337  0.6541
   82SAPS  H10S 7670   3.622   4.862  10.118 -0.1090 -0.5572 -1.2848
   82SAPS  C211 7671   3.413   4.835  10.080 -0.3688  0.5419 -0.0939
   82SAPS  H11R 7672   3.323   4.826  10.141  0.9818 -2.9869  1.6555
   82SAPS  C212 7673   3.405   4.861   9.950 -0.2258  0.4033  1.1421
   82SAPS  H12R 7674   3.302   4.876   9.912 -0.4403  1.0319  1.9508
   82SAPS  C213 7675   3.519   4.866   9.841  0.2285  0.1530  0.3905
   82SAPS  H13R 7676   3.505   4.786   9.766  1.7148  1.9154 -1.9062
   82SAPS  H13S 7677   3.619   4.852   9.886  1.1542  0.7884 -1.4028
   82SAPS  C214 7678   3.510   5.001   9.784  0.3145 -0.5393 -0.3340
   82SAPS  H14R 7679   3.417   5.025   9.729 -1.1645  0.6153  2.4260
   82SAPS  C215 7680   3.599   5.102   9.805  0.5977  0.0439 -0.1094
   82SAPS  H15R 7681   3.583   5.204   9.766 -0.4682 -0.5028 -1.1436
   82SAPS  C216 7682   3.723   5.105   9.885  0.1673 -0.4132  0.3226
   82SAPS  H16R 7683   3.814   5.127   9.825  0.6120 -4.2541 -0.7074
   82SAPS  H16S 7684   3.748   5.002   9.918  0.0285 -0.8236 -0.8104
   82SAPS  C217 7685   3.713   5.189  10.010 -0.0362 -0.1332 -0.3150
   82SAPS  H17R 7686   3.628   5.152  10.071  1.2441  0.3462  1.8568
   82SAPS  H17S 7687   3.709   5.297   9.984  1.7756  0.3950  1.3963
   82SAPS  C218 7688   3.845   5.181  10.092 -0.1399 -0.1310 -0.3195
   82SAPS  H18R 7689   3.832   5.241  10.184  0.5449 -0.2358 -0.1528
   82SAPS  H18S 7690   3.936   5.230  10.051  0.1583  0.0914  0.5996
   82SAPS  C219 7691   3.880   5.041  10.137  0.3095 -0.5198 -0.7445
   82SAPS  H19R 7692   3.907   4.980  10.048  0.9381  1.3895 -1.9290
   82SAPS  H19S 7693   3.794   5.004  10.196  0.2536 -2.6666 -2.0380
   82SAPS  C220 7694   4.012   5.035  10.220  0.0793  1.0468 -0.2998
   82SAPS  H20R 7695   4.078   5.120  10.194  3.3398 -1.9677 -2.9805
   82SAPS  H20S 7696   4.066   4.943  10.188 -1.1126  0.3688 -0.4110
   82SAPS  H20T 7697   3.994   5.027  10.329 -0.4361 -0.0204 -0.4509
   82SAPS   C33 7698   4.368   5.434  10.295 -0.4899  0.3801  0.4741
   82SAPS   H3X 7699   4.465   5.418  10.347 -0.8442 -0.8904  0.7728
   82SAPS   H3Y 7700   4.324   5.524  10.342  1.2286  0.1799  2.6074
   82SAPS   C34 7701   4.390   5.477  10.147 -0.0739  0.8959 -0.4010
   82SAPS   H4X 7702   4.476   5.419  10.107 -0.4264  1.0301 -1.3778
   82SAPS   H4Y 7703   4.426   5.582  10.150  0.5954  0.6464  0.5628
   82SAPS   C35 7704   4.263   5.467  10.057 -0.4516 -0.8177 -0.5042
   82SAPS   H5X 7705   4.180   5.516  10.113  0.6618 -0.8250  1.2521
   82SAPS   H5Y 7706   4.234   5.362  10.037 -1.4859 -0.4052 -1.2676
   82SAPS   C36 7707   4.281   5.545   9.920  0.2674  0.2127  0.1529
   82SAPS   H6X 7708   4.301   5.652   9.942 -0.0532  0.6316 -1.4598
   82SAPS   H6Y 7709   4.187   5.550   9.862  0.0753  0.3983  0.4743
   82SAPS   C37 7710   4.398   5.485   9.838 -0.2622  0.0935 -0.2154
   82SAPS   H7X 7711   4.380   5.376   9.850 -0.3837  0.2060  0.6806
   82SAPS   H7Y 7712   4.500   5.503   9.878  0.7565 -2.5022 -1.4004
   82SAPS   C38 7713   4.374   5.526   9.693 -0.0023  0.2139  0.4874
   82SAPS   H8X 7714   4.281   5.473   9.663  0.2313 -1.2499  2.1622
   82SAPS   H8Y 7715   4.458   5.494   9.628  0.6749  1.5888  0.6398
   82SAPS   C39 7716   4.358   5.683   9.683  0.1196 -0.2548 -0.0731
   82SAPS   H9X 7717   4.436   5.735   9.741  0.8978 -0.6693 -0.7329
   82SAPS   H9Y 7718   4.266   5.727   9.727  0.1363  2.3836 -2.3946
   82SAPS  C310 7719   4.367   5.725   9.537 -0.3444  0.7521 -0.1411
   82SAPS  H10X 7720   4.450   5.664   9.496 -0.0636  0.4412  0.8614
   82SAPS  H10Y 7721   4.380   5.835   9.538  2.0136  0.5355 -1.1459
   82SAPS  C311 7722   4.248   5.702   9.449  0.2194  0.0159  0.7249
   82SAPS  H11X 7723   4.164   5.751   9.503 -0.6652 -2.0303  1.2745
   82SAPS  H11Y 7724   4.224   5.595   9.433 -4.2755  0.9081  0.0172
   82SAPS  C312 7725   4.255   5.772   9.316 -0.4553  0.1022  0.0639
   82SAPS  H12X 7726   4.345   5.746   9.256 -0.2295  0.5406  0.2107
   82SAPS  H12Y 7727   4.264   5.881   9.338  1.3123  0.0195 -0.0873
   82SAPS  C313 7728   4.125   5.742   9.241  0.3657  0.1643  1.1656
   82SAPS  H13X 7729   4.029   5.760   9.294 -1.8660  1.0953 -2.7831
   82SAPS  H13Y 7730   4.138   5.634   9.218  0.8790  0.1212  1.6353
   82SAPS  C314 7731   4.122   5.823   9.108 -0.0394  0.0480 -0.6175
   82SAPS  H14X 7732   4.225   5.821   9.065  0.1860 -1.0108 -0.0563
   82SAPS  H14Y 7733   4.110   5.933   9.118  2.4845  0.2160  1.5853
   82SAPS  C315 7734   4.007   5.775   9.016 -0.1835  0.3681  0.4255
   82SAPS  H15X 7735   3.915   5.782   9.078  0.4126  0.9676  1.2728
   82SAPS  H15Y 7736   4.037   5.669   8.996  1.2815  1.0779 -1.4106
   82SAPS  C316 7737   4.002   5.854   8.882 -0.3070 -0.0500  0.0518
   82SAPS  H16X 7738   4.103   5.872   8.840 -1.0875  0.7438 -1.5625
   82SAPS  H16Y 7739   3.954   5.952   8.901  0.0828  0.1522 -0.0037
   82SAPS  C317 7740   3.921   5.777   8.778 -0.1249  0.2192 -0.2840
   82SAPS  H17X 7741   3.965   5.674   8.771  1.1826  0.7659 -0.4785
   82SAPS  H17Y 7742   3.935   5.829   8.681  0.4699 -1.1990 -1.0010
   82SAPS  C318 7743   3.770   5.757   8.796 -0.6518 -0.4739 -0.2302
   82SAPS  H18X 7744   3.717   5.850   8.821 -1.7646 -1.1413 -0.0444
   82SAPS  H18Y 7745   3.748   5.693   8.884  0.7159  0.4548  0.8394
   82SAPS  H18Z 7746   3.726   5.723   8.699 -0.2085 -0.0505 -0.5873
   83SAPS     N 7747   6.659   6.354  11.016  0.1356 -0.2454 -0.4186
   83SAPS   HN1 7748   6.718   6.286  10.964 -0.6558  0.5329 -2.4436
   83SAPS   HN2 7749   6.561   6.351  10.981 -0.1073  1.1282  0.0659
   83SAPS   HN3 7750   6.703   6.448  11.001 -0.9059  0.1720 -0.9428
   83SAPS   C12 7751   6.689   6.325  11.160 -0.4638 -0.0850  0.8766
   83SAPS  H12A 7752   6.796   6.330  11.169 -0.3780 -0.5128  0.2110
   83SAPS   C13 7753   6.627   6.429  11.255 -0.0812 -0.1717  0.1509
   83SAPS  O13A 7754   6.529   6.504  11.218  0.0935  0.3270  0.4599
   83SAPS  O13B 7755   6.662   6.416  11.378 -0.1483 -0.0571  0.2983
   83SAPS   C11 7756   6.657   6.176  11.193  0.3671 -0.3232 -0.1579
   83SAPS  H11A 7757   6.548   6.157  11.195  0.5452 -1.3801  0.9176
   83SAPS  H11B 7758   6.717   6.158  11.285 -0.6502  0.5175  0.7048
   83SAPS     P 7759   6.679   5.944  11.086 -0.0890  0.1648 -0.0416
   83SAPS   O13 7760   6.744   5.882  11.204 -0.0429 -0.2430 -0.2075
   83SAPS   O14 7761   6.533   5.933  11.073  0.1399 -0.2134  0.1005
   83SAPS   O12 7762   6.723   6.098  11.089 -0.2001  0.1695 -0.2522
   83SAPS   O11 7763   6.737   5.891  10.953 -0.2430  0.5171 -0.5571
   83SAPS    C1 7764   6.875   5.886  10.916  0.1864  0.2632  0.2885
   83SAPS    HA 7765   6.903   5.993  10.917 -1.9756  0.9646  3.9451
   83SAPS    HB 7766   6.940   5.844  10.996  1.9383  0.8873 -0.7533
   83SAPS    C2 7767   6.896   5.818  10.779 -0.6993 -0.3024  0.4740
   83SAPS    HS 7768   6.992   5.856  10.738 -1.0893 -1.3109 -1.5393
   83SAPS   O21 7769   6.790   5.842  10.685 -0.0519  0.2411 -0.3811
   83SAPS   C21 7770   6.772   5.973  10.654 -0.6664  0.4107 -0.1364
   83SAPS   O22 7771   6.845   6.066  10.672  0.2912 -0.2199 -0.3253
   83SAPS   C22 7772   6.647   5.985  10.571 -0.1918  0.7226  0.4454
   83SAPS   H2R 7773   6.676   6.011  10.467 -0.2275 -1.9805 -0.3054
   83SAPS   H2S 7774   6.591   5.889  10.569 -0.4701  0.8800  0.7668
   83SAPS    C3 7775   6.903   5.670  10.798  0.1772  0.8441 -0.1255
   83SAPS    HX 7776   6.799   5.636  10.819  0.3938 -0.8719 -1.5132
   83SAPS    HY 7777   6.970   5.648  10.883 -0.5387 -0.7044  0.0749
   83SAPS   O31 7778   6.934   5.605  10.670 -0.3608  0.0224  0.5556
   83SAPS   C31 7779   7.064   5.590  10.648 -0.1442  0.0995 -0.0099
   83SAPS   O32 7780   7.153   5.639  10.717 -0.2297 -0.1498  0.0530
   83SAPS   C32 7781   7.077   5.541  10.501  0.2186 -0.7259 -0.8001
   83SAPS   H2X 7782   7.180   5.560  10.465  0.8059 -1.0132  0.6805
   83SAPS   H2Y 7783   7.014   5.609  10.439 -0.4706  1.1212  1.7806
   83SAPS   C23 7784   6.557   6.106  10.612 -0.5378 -0.3313 -0.1090
   83SAPS   H3R 7785   6.611   6.202  10.623 -1.4589  0.3619 -1.4017
   83SAPS   H3S 7786   6.507   6.080  10.708 -2.1986  0.8781 -0.6039
   83SAPS   C24 7787   6.458   6.124  10.502 -0.6145 -0.0592  0.6676
   83SAPS   H4R 7788   6.440   6.021  10.466  0.4202 -0.8156  2.1681
   83SAPS   H4S 7789   6.509   6.181  10.422 -0.2278  0.3500  1.1913
   83SAPS   C25 7790   6.322   6.176  10.543 -0.3851  0.3030 -0.8254
   83SAPS   H5R 7791   6.271   6.137  10.632 -0.4592 -0.5771 -1.2370
   83SAPS   C26 7792   6.245   6.245  10.455 -0.0775 -0.1019  0.1477
   83SAPS   H6R 7793   6.152   6.289  10.493 -0.7584  0.8533 -2.4438
   83SAPS   C27 7794   6.282   6.299  10.321 -0.2428  0.0089  0.3744
   83SAPS   H7R 7795   6.190   6.328  10.266  0.5360  0.8548 -0.5393
   83SAPS   H7S 7796   6.313   6.211  10.260 -2.1603 -0.2622 -0.2570
   83SAPS   C28 7797   6.377   6.415  10.326 -0.0707  0.4300 -0.3449
   83SAPS   H8R 7798   6.441   6.431  10.414 -0.8057  0.2789  0.2245
   83SAPS   C29 7799   6.415   6.491  10.226 -0.7364 -0.3380 -0.0282
   83SAPS   H9R 7800   6.481   6.577  10.242  0.0075 -0.7045 -1.0339
   83SAPS  C210 7801   6.373   6.483  10.082  0.4734  0.0580  0.6457
   83SAPS  H10R 7802   6.394   6.581  10.033  1.2195 -1.3828 -2.1397
   83SAPS  H10S 7803   6.264   6.462  10.068  0.5980 -0.4703  0.4444
   83SAPS  C211 7804   6.459   6.383  10.004 -0.2818  0.3024 -0.7934
   83SAPS  H11R 7805   6.437   6.280  10.036 -1.1282 -0.0137 -2.3067
   83SAPS  C212 7806   6.543   6.404   9.901 -0.1986  0.6666 -0.3145
   83SAPS  H12R 7807   6.592   6.310   9.870 -0.9056  0.7592 -1.8178
   83SAPS  C213 7808   6.579   6.528   9.828  0.4971 -0.3490 -0.7344
   83SAPS  H13R 7809   6.493   6.599   9.836  2.1489  1.8377 -1.3341
   83SAPS  H13S 7810   6.591   6.504   9.721  1.0702 -3.0853 -0.1343
   83SAPS  C214 7811   6.701   6.609   9.864  0.2349  0.0563 -0.0957
   83SAPS  H14R 7812   6.715   6.688   9.790  0.0742  0.3169  0.1524
   83SAPS  C215 7813   6.790   6.596   9.960 -0.0895 -0.0548  0.0730
   83SAPS  H15R 7814   6.861   6.680   9.966  1.8308 -1.2842 -3.3012
   83SAPS  C216 7815   6.780   6.504  10.079  0.1202  0.4430 -0.2267
   83SAPS  H16R 7816   6.813   6.400  10.056  1.7692  0.2619  2.4673
   83SAPS  H16S 7817   6.675   6.502  10.114  0.4172 -0.3155  0.6572
   83SAPS  C217 7818   6.872   6.556  10.192  0.4600  0.3942 -0.4478
   83SAPS  H17R 7819   6.819   6.644  10.234 -0.5006 -0.9478  1.2843
   83SAPS  H17S 7820   6.976   6.574  10.159  0.6992 -0.2398 -0.0463
   83SAPS  C218 7821   6.871   6.457  10.315 -0.5110  0.0020 -0.3142
   83SAPS  H18R 7822   6.944   6.376  10.297 -3.0034 -2.8005  1.1598
   83SAPS  H18S 7823   6.774   6.401  10.311 -1.0498  0.9540 -1.0123
   83SAPS  C219 7824   6.889   6.524  10.451 -0.0560  0.5102  0.9178
   83SAPS  H19R 7825   6.809   6.600  10.457 -0.0526  0.7044 -0.8405
   83SAPS  H19S 7826   6.990   6.571  10.445 -0.1296  0.4527 -1.9822
   83SAPS  C220 7827   6.889   6.418  10.564 -0.0047 -0.4102 -0.0918
   83SAPS  H20R 7828   6.789   6.369  10.569  0.8507 -2.1709  0.3619
   83SAPS  H20S 7829   6.908   6.465  10.663 -0.2134 -0.8600  0.1654
   83SAPS  H20T 7830   6.965   6.338  10.556  2.2542  1.4715  1.1462
   83SAPS   C33 7831   7.029   5.400  10.459  0.4827  0.4064  0.1556
   83SAPS   H3X 7832   6.926   5.377  10.493  1.8335 -2.7992  2.6169
   83SAPS   H3Y 7833   7.092   5.332  10.521 -0.2042  0.3504  0.8101
   83SAPS   C34 7834   7.047   5.361  10.306  0.0586  0.6881 -0.5075
   83SAPS   H4X 7835   7.015   5.445  10.241 -0.1593  1.3511  0.4408
   83SAPS   H4Y 7836   6.972   5.282  10.283 -0.8272  0.8503  1.5558
   83SAPS   C35 7837   7.184   5.322  10.267 -0.6498 -0.0849 -0.4343
   83SAPS   H5X 7838   7.204   5.227  10.319 -0.2529  1.6695  2.8928
   83SAPS   H5Y 7839   7.263   5.389  10.308 -0.5600 -0.5625  0.1769
   83SAPS   C36 7840   7.207   5.331  10.117  0.0285  0.1927 -0.5555
   83SAPS   H6X 7841   7.315   5.316  10.094  0.5581  1.2159  1.0598
   83SAPS   H6Y 7842   7.178   5.431  10.078 -0.5970  0.5502  0.7475
   83SAPS   C37 7843   7.120   5.231  10.035 -0.5381  0.3073  0.0882
   83SAPS   H7X 7844   7.012   5.257  10.046 -1.1098 -1.2366 -1.3860
   83SAPS   H7Y 7845   7.133   5.128  10.073 -2.5712  0.6042  1.7300
   83SAPS   C38 7846   7.148   5.238   9.881 -0.1708  0.4469  0.1712
   83SAPS   H8X 7847   7.249   5.211   9.843 -1.2949 -0.1118 -2.6202
   83SAPS   H8Y 7848   7.123   5.343   9.856  2.3375  1.2826  0.8008
   83SAPS   C39 7849   7.058   5.144   9.798 -0.4613  0.2382  0.5591
   83SAPS   H9X 7850   6.955   5.184   9.814  0.0230  1.1489  1.4650
   83SAPS   H9Y 7851   7.060   5.045   9.848 -0.0716 -1.0031 -1.7500
   83SAPS  C310 7852   7.089   5.136   9.646 -0.1658 -0.5506  0.5610
   83SAPS  H10X 7853   7.002   5.093   9.594  0.8174 -0.1487 -1.5213
   83SAPS  H10Y 7854   7.183   5.078   9.631 -0.7916 -1.7631  1.2021
   83SAPS  C311 7855   7.109   5.269   9.580  0.8227 -0.7343 -0.2452
   83SAPS  H11X 7856   7.198   5.321   9.620 -0.5098  0.8008  0.8977
   83SAPS  H11Y 7857   7.021   5.325   9.619  1.3801 -1.0469  1.5646
   83SAPS  C312 7858   7.109   5.270   9.428 -0.1223  0.1810  0.2279
   83SAPS  H12X 7859   7.024   5.204   9.401  0.4319 -1.4518  2.1426
   83SAPS  H12Y 7860   7.189   5.205   9.385  0.6412  0.9008  0.5256
   83SAPS  C313 7861   7.098   5.406   9.357 -0.5998 -0.0048  0.5831
   83SAPS  H13X 7862   7.198   5.455   9.359 -0.2730 -0.5667 -0.6249
   83SAPS  H13Y 7863   7.027   5.470   9.412  0.1555  2.3683 -1.0340
   83SAPS  C314 7864   7.060   5.377   9.205  0.2245  0.6638 -0.8362
   83SAPS  H14X 7865   6.968   5.315   9.211 -2.0969  3.7778 -1.6408
   83SAPS  H14Y 7866   7.140   5.313   9.163  0.6389  1.7453 -1.7476
   83SAPS  C315 7867   7.034   5.499   9.115 -0.7366  0.6031  0.6641
   83SAPS  H15X 7868   6.941   5.549   9.148 -3.0259 -0.4550 -3.3961
   83SAPS  H15Y 7869   7.028   5.473   9.007 -0.9230  0.8175  0.6220
   83SAPS  C316 7870   7.143   5.610   9.134  0.2206 -0.1823 -0.8375
   83SAPS  H16X 7871   7.237   5.565   9.095  1.4717  1.3007  0.3214
   83SAPS  H16Y 7872   7.163   5.643   9.238  0.3405 -0.1460 -0.8726
   83SAPS  C317 7873   7.107   5.728   9.049  0.3337 -0.0902 -0.0118
   83SAPS  H17X 7874   7.003   5.763   9.061  0.6687  0.8019  0.3723
   83SAPS  H17Y 7875   7.107   5.686   8.946 -2.2785 -0.8894  0.2315
   83SAPS  C318 7876   7.205   5.847   9.055 -0.4108 -0.0260  0.0380
   83SAPS  H18X 7877   7.169   5.935   8.998  0.6153  1.5127  1.6713
   83SAPS  H18Y 7878   7.294   5.807   9.000  0.0304  0.5636  0.3141
   83SAPS  H18Z 7879   7.229   5.877   9.159  0.1665 -1.4408  0.3387
   84SAPS     N 7880   1.386   5.605  11.208 -0.4005 -0.2975 -0.3046
   84SAPS   HN1 7881   1.320   5.582  11.131  0.9378  2.5582 -2.5263
   84SAPS   HN2 7882   1.329   5.587  11.293  0.8623  0.2208  0.6895
   84SAPS   HN3 7883   1.400   5.708  11.211  1.2556 -0.5148  0.0376
   84SAPS   C12 7884   1.512   5.536  11.221 -0.5012 -1.0424 -0.4358
   84SAPS  H12A 7885   1.572   5.587  11.295 -0.1012 -0.1597 -1.3503
   84SAPS   C13 7886   1.504   5.385  11.244 -0.0385  0.1707 -0.4194
   84SAPS  O13A 7887   1.393   5.325  11.252  0.0844  0.4415  0.1969
   84SAPS  O13B 7888   1.604   5.326  11.284 -0.3151  0.0312 -0.4876
   84SAPS   C11 7889   1.592   5.561  11.090  0.3489  0.0525 -0.5888
   84SAPS  H11A 7890   1.538   5.529  10.998 -4.5001  0.7870  1.7216
   84SAPS  H11B 7891   1.681   5.495  11.092  0.1001 -0.2698  0.2416
   84SAPS     P 7892   1.710   5.749  10.946  0.1247  0.5586 -0.4767
   84SAPS   O13 7893   1.722   5.895  10.961 -0.1014 -0.1075  0.4817
   84SAPS   O14 7894   1.832   5.668  10.927  0.5435  0.1929 -0.1286
   84SAPS   O12 7895   1.627   5.698  11.072 -0.4051 -0.4570  1.3387
   84SAPS   O11 7896   1.607   5.705  10.837  0.2034 -0.4539  0.0606
   84SAPS    C1 7897   1.470   5.746  10.840  0.4934 -0.2849  0.4439
   84SAPS    HA 7898   1.401   5.674  10.889 -0.6563 -0.4484 -1.2981
   84SAPS    HB 7899   1.472   5.844  10.891  1.5623  0.6466 -1.2868
   84SAPS    C2 7900   1.412   5.777  10.697 -0.1087  0.4028 -0.4043
   84SAPS    HS 7901   1.318   5.834  10.710 -0.9135 -0.8435 -0.6299
   84SAPS   O21 7902   1.392   5.651  10.630  0.2123 -0.2505  0.0131
   84SAPS   C21 7903   1.282   5.588  10.667  0.0940 -0.0785 -0.4135
   84SAPS   O22 7904   1.199   5.619  10.753 -0.2871 -0.3201  0.5763
   84SAPS   C22 7905   1.285   5.450  10.588  0.1681  0.3112 -0.0440
   84SAPS   H2R 7906   1.372   5.395  10.629  0.4263  1.1135  0.5162
   84SAPS   H2S 7907   1.188   5.404  10.618  0.7428  0.7016  2.6752
   84SAPS    C3 7908   1.513   5.859  10.615  0.2727 -0.0691 -0.3605
   84SAPS    HX 7909   1.604   5.801  10.590  1.8212  1.4639  1.4629
   84SAPS    HY 7910   1.547   5.939  10.683  0.7571 -0.0079 -0.6671
   84SAPS   O31 7911   1.450   5.914  10.503  0.5514 -0.8110 -0.0573
   84SAPS   C31 7912   1.545   6.003  10.443  0.6352 -0.6555 -0.6260
   84SAPS   O32 7913   1.648   6.030  10.505  0.1865 -0.0404  0.4045
   84SAPS   C32 7914   1.503   6.044  10.299 -0.1523  0.2620  0.0075
   84SAPS   H2X 7915   1.404   6.003  10.270 -0.0890 -0.2092  0.4535
   84SAPS   H2Y 7916   1.580   6.004  10.230 -0.6548  1.1402 -1.0856
   84SAPS   C23 7917   1.312   5.462  10.438 -0.4202 -0.2731  0.3461
   84SAPS   H3R 7918   1.349   5.362  10.408 -0.5950 -0.3884  0.5154
   84SAPS   H3S 7919   1.394   5.536  10.427 -0.8638  0.1127 -0.4616
   84SAPS   C24 7920   1.200   5.505  10.342 -0.0080 -0.9470  0.0566
   84SAPS   H4R 7921   1.257   5.540  10.253  1.4603 -0.6185  1.0852
   84SAPS   H4S 7922   1.144   5.581  10.401  0.6898 -0.0204 -0.4267
   84SAPS   C25 7923   1.116   5.386  10.310  0.2051  0.3664 -0.3558
   84SAPS   H5R 7924   1.106   5.317  10.395 -0.0604  1.3712  0.4533
   84SAPS   C26 7925   1.073   5.346  10.186  0.3776 -0.1263  0.1520
   84SAPS   H6R 7926   1.015   5.255  10.167  1.5825 -0.3477 -3.1896
   84SAPS   C27 7927   1.107   5.413  10.058 -0.4641 -0.6813 -0.6867
   84SAPS   H7R 7928   1.217   5.422  10.044 -0.7853  1.2943 -2.6240
   84SAPS   H7S 7929   1.087   5.522  10.061 -0.2800 -0.6035  3.8402
   84SAPS   C28 7930   1.038   5.361   9.935  0.0583 -0.1592 -0.4213
   84SAPS   H8R 7931   1.078   5.264   9.904  1.6488  0.4325 -0.2920
   84SAPS   C29 7932   0.927   5.411   9.874 -0.0206 -0.1715  0.1446
   84SAPS   H9R 7933   0.886   5.354   9.790 -0.2653  0.4683 -0.1763
   84SAPS  C210 7934   0.845   5.539   9.897  0.8190 -0.1014 -0.5829
   84SAPS  H10R 7935   0.853   5.595   9.801 -2.2492  0.2432 -0.7291
   84SAPS  H10S 7936   0.895   5.603   9.974 -2.4423  1.7373  0.1938
   84SAPS  C211 7937   0.701   5.524   9.950  0.9146 -0.3475  0.7777
   84SAPS  H11R 7938   0.694   5.494  10.055 -0.4942 -0.4113  0.6929
   84SAPS  C212 7939   0.589   5.540   9.871 -0.0045 -0.1841  0.0875
   84SAPS  H12R 7940   0.485   5.540   9.909  0.3522  0.7309  1.1292
   84SAPS  C213 7941   0.590   5.571   9.720  0.6398 -0.3716 -0.1050
   84SAPS  H13R 7942   0.491   5.540   9.679 -0.0241  0.1826  1.0295
   84SAPS  H13S 7943   0.671   5.513   9.671 -0.5208  0.6108 -3.4450
   84SAPS  C214 7944   0.615   5.721   9.705  0.5871  0.2080 -0.0838
   84SAPS  H14R 7945   0.648   5.777   9.794 -2.0129 -2.5575  2.8861
   84SAPS  C215 7946   0.603   5.782   9.584  0.4543 -0.3581 -0.4236
   84SAPS  H15R 7947   0.612   5.891   9.577 -1.3082 -0.2008 -0.7699
   84SAPS  C216 7948   0.545   5.716   9.459  0.1204 -0.0431  0.0284
   84SAPS  H16R 7949   0.455   5.775   9.431 -0.0935 -1.0960 -1.5984
   84SAPS  H16S 7950   0.498   5.618   9.481  0.1260 -0.1404 -0.3923
   84SAPS  C217 7951   0.657   5.706   9.348  0.2869 -0.0887  0.3029
   84SAPS  H17R 7952   0.700   5.807   9.328  1.3448 -0.2757  1.5134
   84SAPS  H17S 7953   0.610   5.657   9.260  0.6659  0.4483 -0.2059
   84SAPS  C218 7954   0.771   5.609   9.385  0.7080 -0.0916  0.3696
   84SAPS  H18R 7955   0.808   5.642   9.485 -1.0137  0.4685  0.8574
   84SAPS  H18S 7956   0.856   5.617   9.315  1.1651  1.3333  1.0483
   84SAPS  C219 7957   0.722   5.464   9.401  1.1543 -0.5554  0.1411
   84SAPS  H19R 7958   0.672   5.428   9.309  1.9332 -2.6145  0.4713
   84SAPS  H19S 7959   0.644   5.452   9.478  0.6541 -0.7490 -0.3878
   84SAPS  C220 7960   0.834   5.361   9.429  0.1951  0.1075  0.3712
   84SAPS  H20R 7961   0.891   5.330   9.339  0.7799 -0.6183  0.9732
   84SAPS  H20S 7962   0.796   5.263   9.466 -0.0191  0.5748  1.4291
   84SAPS  H20T 7963   0.899   5.412   9.504  1.9554  1.3385 -1.8655
   84SAPS   C33 7964   1.503   6.194  10.286  0.3897  0.3843  0.4187
   84SAPS   H3X 7965   1.606   6.222  10.315  0.6858 -0.6771  0.4310
   84SAPS   H3Y 7966   1.425   6.249  10.342  0.1525 -1.9421  2.5448
   84SAPS   C34 7967   1.493   6.237  10.139 -0.5928  0.6497  0.1650
   84SAPS   H4X 7968   1.591   6.209  10.094 -0.5593 -0.7617  1.0266
   84SAPS   H4Y 7969   1.488   6.348  10.135  0.4496  0.7298  0.6831
   84SAPS   C35 7970   1.370   6.186  10.066  0.6884 -0.1450  0.2852
   84SAPS   H5X 7971   1.277   6.219  10.117  0.0488 -1.2318 -0.1452
   84SAPS   H5Y 7972   1.365   6.075  10.068 -0.3025 -0.1089  0.2753
   84SAPS   C36 7973   1.372   6.217   9.911 -0.3505 -0.6763 -0.5901
   84SAPS   H6X 7974   1.390   6.326   9.896  0.3991 -0.8815 -1.2526
   84SAPS   H6Y 7975   1.270   6.201   9.871 -1.3086  0.5803  1.2105
   84SAPS   C37 7976   1.485   6.138   9.842 -0.2449  0.1962 -0.2548
   84SAPS   H7X 7977   1.503   6.042   9.897  0.7986 -0.3566 -1.5145
   84SAPS   H7Y 7978   1.582   6.190   9.856  0.6527 -0.8928 -2.1088
   84SAPS   C38 7979   1.450   6.125   9.697  0.3903  0.7553  1.0195
   84SAPS   H8X 7980   1.452   6.227   9.652  0.4244  0.5271  0.4933
   84SAPS   H8Y 7981   1.344   6.094   9.680  1.2981 -1.0976 -1.9537
   84SAPS   C39 7982   1.551   6.039   9.629 -0.4278  0.3838  0.8018
   84SAPS   H9X 7983   1.544   5.943   9.685  1.8917 -0.0641  0.4244
   84SAPS   H9Y 7984   1.652   6.079   9.653 -1.0404  2.8054 -0.3364
   84SAPS  C310 7985   1.544   6.006   9.481  0.2563  0.6072 -0.5040
   84SAPS  H10X 7986   1.576   6.092   9.419  1.5110 -0.5513 -1.5545
   84SAPS  H10Y 7987   1.440   5.980   9.453 -0.0548 -0.2910  1.3187
   84SAPS  C311 7988   1.635   5.887   9.432 -0.4759  0.4503  0.5541
   84SAPS  H11X 7989   1.587   5.795   9.472 -1.3475  0.6696  0.0506
   84SAPS  H11Y 7990   1.737   5.887   9.475 -0.4806 -2.0129  0.6977
   84SAPS  C312 7991   1.654   5.885   9.282  0.0896  0.0510 -0.0253
   84SAPS  H12X 7992   1.566   5.909   9.219  1.3196 -2.1688 -2.8026
   84SAPS  H12Y 7993   1.686   5.784   9.250 -0.4996 -0.8049  1.9277
   84SAPS  C313 7994   1.774   5.970   9.228 -0.2377 -0.2088 -0.3749
   84SAPS  H13X 7995   1.862   5.908   9.257 -1.7084 -1.7158  1.1084
   84SAPS  H13Y 7996   1.777   6.069   9.280  0.1817 -0.6213  0.4163
   84SAPS  C314 7997   1.766   5.992   9.078  0.1700  0.0930  0.5038
   84SAPS  H14X 7998   1.829   6.074   9.039 -1.7852  1.3527 -0.1469
   84SAPS  H14Y 7999   1.661   6.015   9.052  0.9303  2.0254 -1.0984
   84SAPS  C315 8000   1.804   5.864   9.001 -0.9148 -0.5505  0.7425
   84SAPS  H15X 8001   1.720   5.791   8.998 -1.0805 -0.3426 -1.7245
   84SAPS  H15Y 8002   1.896   5.821   9.045 -0.1218  0.0904 -0.2416
   84SAPS  C316 8003   1.840   5.914   8.853 -0.1463  0.6187 -0.7893
   84SAPS  H16X 8004   1.900   6.007   8.856  0.2432  0.3415  0.3630
   84SAPS  H16Y 8005   1.750   5.928   8.789  0.0962  0.6455 -1.1306
   84SAPS  C317 8006   1.919   5.817   8.763  0.1165  0.8548 -0.2680
   84SAPS  H17X 8007   2.022   5.812   8.806 -0.4208 -0.2750  0.9217
   84SAPS  H17Y 8008   1.917   5.847   8.656 -3.0438 -0.1087 -0.5687
   84SAPS  C318 8009   1.856   5.675   8.759 -0.3529 -0.0615 -0.1535
   84SAPS  H18X 8010   1.891   5.611   8.843  2.1360 -2.3737 -2.7038
   84SAPS  H18Y 8011   1.893   5.615   8.673  0.8654 -1.0537  1.0144
   84SAPS  H18Z 8012   1.746   5.685   8.763 -0.4321 -1.2110  1.8034
   85SAPS     N 8013   0.068   0.523  11.137  0.9169  0.7254 -0.4792
   85SAPS   HN1 8014  -0.008   0.532  11.066  0.5633 -1.0194 -0.3755
   85SAPS   HN2 8015   0.167   0.517  11.104  0.6875 -4.2786 -1.0852
   85SAPS   HN3 8016   0.039   0.437  11.187 -0.4091  0.7902 -1.1066
   85SAPS   C12 8017   0.063   0.634  11.239 -0.9532  0.0753  0.2364
   85SAPS  H12A 8018  -0.043   0.640  11.258 -1.0331 -0.9290  0.1806
   85SAPS   C13 8019   0.130   0.600  11.374 -0.4955 -0.2598 -0.5426
   85SAPS  O13A 8020   0.167   0.480  11.400 -0.6194 -0.2539 -0.5211
   85SAPS  O13B 8021   0.141   0.695  11.458  0.2932  0.0512 -0.1005
   85SAPS   C11 8022   0.118   0.767  11.175 -0.0627 -0.6085 -0.2740
   85SAPS  H11A 8023   0.229   0.764  11.170  0.1622  1.1496  2.0820
   85SAPS  H11B 8024   0.090   0.848  11.246 -0.0583 -0.6984 -0.1711
   85SAPS     P 8025   0.018   0.934  10.998 -0.2804  0.2708 -0.3920
   85SAPS   O13 8026  -0.043   1.007  11.110 -1.2120 -0.7277 -0.4602
   85SAPS   O14 8027   0.116   0.995  10.907  0.4165  0.0451  0.6290
   85SAPS   O12 8028   0.061   0.790  11.042 -0.1493 -0.1801 -0.2340
   85SAPS   O11 8029  -0.096   0.900  10.910  0.0293 -0.0390 -0.4359
   85SAPS    C1 8030  -0.090   0.809  10.797 -0.3829 -0.3108  0.3807
   85SAPS    HA 8031   0.003   0.839  10.744 -1.8050  1.6520 -1.1906
   85SAPS    HB 8032  -0.083   0.703  10.830 -1.8887 -0.2408  1.0040
   85SAPS    C2 8033  -0.205   0.832  10.695  0.5443  0.5302 -0.5181
   85SAPS    HS 8034  -0.207   0.753  10.617 -1.7841 -1.7520  1.6441
   85SAPS   O21 8035  -0.197   0.967  10.639  0.4051  0.6284 -0.4604
   85SAPS   C21 8036  -0.113   0.975  10.543 -1.0407  0.0357  0.2334
   85SAPS   O22 8037  -0.025   0.896  10.515 -0.4724  0.8008 -0.0775
   85SAPS   C22 8038  -0.120   1.105  10.460  0.7160 -0.4953  0.0372
   85SAPS   H2R 8039  -0.165   1.180  10.529 -1.7254  0.8722 -2.7953
   85SAPS   H2S 8040  -0.019   1.148  10.444  0.3647  0.6107  0.6957
   85SAPS    C3 8041  -0.340   0.806  10.774 -0.5834 -0.6564 -0.1364
   85SAPS    HX 8042  -0.334   0.859  10.872  3.3626 -1.3603  0.1755
   85SAPS    HY 8043  -0.348   0.695  10.779  1.5232 -0.8476 -0.1483
   85SAPS   O31 8044  -0.443   0.856  10.689  0.1239  0.4077 -0.0198
   85SAPS   C31 8045  -0.544   0.927  10.746 -0.1382  0.0680 -0.8753
   85SAPS   O32 8046  -0.550   0.956  10.867  0.3150 -0.6512  0.3102
   85SAPS   C32 8047  -0.646   0.966  10.637 -0.3158 -0.8846  0.6708
   85SAPS   H2X 8048  -0.665   0.869  10.586  0.7677 -0.3360 -0.8672
   85SAPS   H2Y 8049  -0.599   1.035  10.563 -1.3889 -0.1362  0.6698
   85SAPS   C23 8050  -0.213   1.093  10.339 -0.2245  0.3703  0.0266
   85SAPS   H3R 8051  -0.255   1.195  10.326 -1.3017 -0.2987 -2.2364
   85SAPS   H3S 8052  -0.295   1.020  10.357 -2.1460  2.3569 -0.1430
   85SAPS   C24 8053  -0.138   1.045  10.218  0.3900 -0.9099  0.2648
   85SAPS   H4R 8054  -0.070   0.962  10.245 -2.0469 -2.4204  2.0673
   85SAPS   H4S 8055  -0.074   1.135  10.203 -0.2346 -0.5133 -0.0912
   85SAPS   C25 8056  -0.217   1.015  10.092 -0.5517  0.1395 -0.2445
   85SAPS   H5R 8057  -0.240   0.910  10.070 -1.6106  0.3358 -0.1361
   85SAPS   C26 8058  -0.260   1.099   9.998  0.3951 -0.1113  0.3957
   85SAPS   H6R 8059  -0.315   1.064   9.909  2.1603 -0.3413 -0.6632
   85SAPS   C27 8060  -0.263   1.252   9.998  0.3853  0.6622  0.8502
   85SAPS   H7R 8061  -0.159   1.277   9.967  1.1594 -2.4415  0.6369
   85SAPS   H7S 8062  -0.263   1.286  10.104  1.3649  0.2987  0.9815
   85SAPS   C28 8063  -0.363   1.322   9.909 -0.5351 -0.3327 -0.2446
   85SAPS   H8R 8064  -0.455   1.361   9.954  0.9582 -0.0701  2.8313
   85SAPS   C29 8065  -0.327   1.360   9.788  0.0597  0.1164 -0.4823
   85SAPS   H9R 8066  -0.409   1.403   9.727 -3.5363 -3.1358  1.5888
   85SAPS  C210 8067  -0.196   1.337   9.719  0.6597  0.2376  0.8869
   85SAPS  H10R 8068  -0.195   1.235   9.674  1.4134  1.0356 -0.9768
   85SAPS  H10S 8069  -0.111   1.349   9.790  1.0702  0.5778  0.3424
   85SAPS  C211 8070  -0.173   1.427   9.602 -0.1414 -0.3592  0.7151
   85SAPS  H11R 8071  -0.096   1.500   9.632 -1.1337  0.5902  1.0315
   85SAPS  C212 8072  -0.226   1.425   9.477  0.7208 -0.0447 -0.3412
   85SAPS  H12R 8073  -0.193   1.503   9.407  0.3296 -0.4195 -0.9422
   85SAPS  C213 8074  -0.325   1.325   9.432  1.3204  0.3672 -0.0602
   85SAPS  H13R 8075  -0.398   1.389   9.378 -0.1759  0.5498  2.0517
   85SAPS  H13S 8076  -0.375   1.271   9.515  0.2520  1.6611  0.1718
   85SAPS  C214 8077  -0.281   1.213   9.342  0.8545  0.3354  0.3220
   85SAPS  H14R 8078  -0.280   1.120   9.401 -1.6902  1.8740  3.0368
   85SAPS  C215 8079  -0.223   1.215   9.226  0.4062 -0.7149 -0.1181
   85SAPS  H15R 8080  -0.200   1.117   9.183 -0.8683 -0.7907 -0.6874
   85SAPS  C216 8081  -0.198   1.332   9.135 -0.7562  0.8370  0.5128
   85SAPS  H16R 8082  -0.091   1.343   9.105 -0.2860 -0.0991  1.7618
   85SAPS  H16S 8083  -0.201   1.426   9.194  3.3792  0.4045  1.7294
   85SAPS  C217 8084  -0.293   1.353   9.013 -0.5771  0.7014 -0.5145
   85SAPS  H17R 8085  -0.278   1.457   8.978 -0.3768  0.8662  0.0464
   85SAPS  H17S 8086  -0.398   1.338   9.044 -0.2583 -1.0489 -0.1808
   85SAPS  C218 8087  -0.264   1.268   8.886 -0.3565  0.2360 -0.1524
   85SAPS  H18R 8088  -0.301   1.165   8.905  1.2244 -0.6476 -1.4737
   85SAPS  H18S 8089  -0.156   1.261   8.861 -0.0161 -0.7517  1.4633
   85SAPS  C219 8090  -0.346   1.306   8.763 -0.3937 -0.0749 -0.2043
   85SAPS  H19R 8091  -0.334   1.409   8.725 -1.9742  0.6901  1.2027
   85SAPS  H19S 8092  -0.453   1.289   8.791 -0.9398 -2.1436 -3.0960
   85SAPS  C220 8093  -0.315   1.216   8.642  0.8097 -0.3566  0.4812
   85SAPS  H20R 8094  -0.217   1.255   8.608  0.6605  1.1163  1.6338
   85SAPS  H20S 8095  -0.383   1.233   8.556  2.9983  3.7553 -0.7003
   85SAPS  H20T 8096  -0.312   1.113   8.682 -2.6817 -0.8034 -0.1136
   85SAPS   C33 8097  -0.774   1.033  10.687  0.4321  0.3896  0.1133
   85SAPS   H3X 8098  -0.747   1.121  10.749 -1.0686 -0.0980  1.5505
   85SAPS   H3Y 8099  -0.818   0.960  10.759  1.3137 -1.5638 -1.2464
   85SAPS   C34 8100  -0.875   1.057  10.579 -0.4491 -0.0175 -0.2533
   85SAPS   H4X 8101  -0.977   1.029  10.613 -0.1398 -0.4153  0.3745
   85SAPS   H4Y 8102  -0.856   0.983  10.498 -0.2893 -2.4446  1.8777
   85SAPS   C35 8103  -0.871   1.197  10.514 -0.2115  0.5892  1.3855
   85SAPS   H5X 8104  -0.773   1.231  10.474 -0.0541  0.8738  2.0041
   85SAPS   H5Y 8105  -0.887   1.263  10.602  0.9894  0.8475  1.4349
   85SAPS   C36 8106  -0.989   1.221  10.422 -0.0139  0.2756  0.1989
   85SAPS   H6X 8107  -1.079   1.185  10.476 -0.5020  0.4603 -0.4805
   85SAPS   H6Y 8108  -0.975   1.164  10.328 -0.0732 -0.2172  0.4850
   85SAPS   C37 8109  -1.014   1.367  10.406  0.0218 -0.6768 -0.1499
   85SAPS   H7X 8110  -0.933   1.411  10.343  0.5590 -1.5065 -0.0529
   85SAPS   H7Y 8111  -1.007   1.417  10.505 -1.2393 -0.1829 -0.2878
   85SAPS   C38 8112  -1.148   1.398  10.341 -0.7798  0.0009 -0.0439
   85SAPS   H8X 8113  -1.198   1.480  10.396 -0.2099  1.5378 -1.7140
   85SAPS   H8Y 8114  -1.207   1.304  10.338  0.4817 -0.9462  2.3396
   85SAPS   C39 8115  -1.138   1.441  10.193 -0.1686  0.3783 -0.2445
   85SAPS   H9X 8116  -1.088   1.363  10.131 -1.2403 -1.0006  0.5783
   85SAPS   H9Y 8117  -1.088   1.540  10.179 -1.4722  1.3037  1.2885
   85SAPS  C310 8118  -1.273   1.463  10.128  0.3584  0.3980 -0.7435
   85SAPS  H10X 8119  -1.326   1.544  10.182 -0.6014 -1.0556  0.5856
   85SAPS  H10Y 8120  -1.337   1.374  10.144  0.3045  0.8049  1.6990
   85SAPS  C311 8121  -1.267   1.494   9.977  0.3499  0.1329 -0.4289
   85SAPS  H11X 8122  -1.220   1.410   9.920  0.6490 -0.9003  1.2608
   85SAPS  H11Y 8123  -1.196   1.579   9.975 -1.5262  2.1179  4.2115
   85SAPS  C312 8124  -1.395   1.533   9.912  0.4692 -0.0214  0.0192
   85SAPS  H12X 8125  -1.434   1.618   9.973 -0.3151 -0.7713  0.5823
   85SAPS  H12Y 8126  -1.471   1.452   9.918 -0.5684  0.8148 -1.1357
   85SAPS  C313 8127  -1.383   1.578   9.763  0.4641  0.0193 -0.4991
   85SAPS  H13X 8128  -1.313   1.662   9.742 -0.2927  0.6124 -0.6832
   85SAPS  H13Y 8129  -1.487   1.615   9.749 -0.2193  0.0591  3.5363
   85SAPS  C314 8130  -1.371   1.456   9.663 -0.5771 -0.2244 -0.3010
   85SAPS  H14X 8131  -1.435   1.370   9.691  1.1250 -1.4391  0.0140
   85SAPS  H14Y 8132  -1.271   1.409   9.655 -0.7857 -0.5112 -1.3784
   85SAPS  C315 8133  -1.404   1.507   9.522 -0.4769  0.2415 -0.1197
   85SAPS  H15X 8134  -1.455   1.606   9.529 -0.0372  0.7676 -2.8224
   85SAPS  H15Y 8135  -1.467   1.435   9.466 -0.1119 -0.7543  0.7342
   85SAPS  C316 8136  -1.280   1.545   9.444 -0.2594 -0.2245  0.5542
   85SAPS  H16X 8137  -1.210   1.459   9.439 -0.1767 -0.1219 -0.2258
   85SAPS  H16Y 8138  -1.236   1.618   9.514  0.7036 -1.7750  1.6184
   85SAPS  C317 8139  -1.321   1.592   9.301 -0.3188  0.5809  0.4089
   85SAPS  H17X 8140  -1.405   1.664   9.303 -2.4740 -1.7674 -0.4868
   85SAPS  H17Y 8141  -1.363   1.505   9.247 -0.8729  1.4957 -0.6725
   85SAPS  C318 8142  -1.206   1.654   9.223  0.0407  0.4988 -0.0940
   85SAPS  H18X 8143  -1.246   1.697   9.129 -0.3874  1.3573  0.4767
   85SAPS  H18Y 8144  -1.138   1.575   9.182  0.2484  1.3770 -1.4939
   85SAPS  H18Z 8145  -1.154   1.735   9.277 -3.9439  1.7678  2.2346
   86SAPS     N 8146   0.525   0.216  11.083  0.0899  1.1481  0.5234
   86SAPS   HN1 8147   0.538   0.287  11.008  2.6046 -1.2083 -1.4800
   86SAPS   HN2 8148   0.525   0.120  11.044  0.2724  1.3244  0.0896
   86SAPS   HN3 8149   0.436   0.239  11.132 -0.0897  0.8535  0.3378
   86SAPS   C12 8150   0.641   0.231  11.176 -0.1314  0.3267  0.0033
   86SAPS  H12A 8151   0.636   0.332  11.215 -1.1750  0.1557  0.3370
   86SAPS   C13 8152   0.649   0.130  11.290  0.4438  1.5002 -0.0984
   86SAPS  O13A 8153   0.562   0.037  11.288  0.4329 -0.1835  0.1321
   86SAPS  O13B 8154   0.747   0.126  11.371 -0.2166 -0.4643 -0.4383
   86SAPS   C11 8155   0.772   0.218  11.091 -0.4218  0.4322  0.1297
   86SAPS  H11A 8156   0.775   0.115  11.049  1.4643 -0.4903  2.3034
   86SAPS  H11B 8157   0.857   0.222  11.162  1.3065  0.5635 -1.8879
   86SAPS     P 8158   0.882   0.307  10.880  0.0461 -0.3274  0.4452
   86SAPS   O13 8159   0.887   0.438  10.806  0.2554  0.7473 -0.0807
   86SAPS   O14 8160   1.008   0.253  10.930 -0.2908 -0.2912 -0.1741
   86SAPS   O12 8161   0.768   0.321  10.997  0.5629  0.4305  0.2050
   86SAPS   O11 8162   0.817   0.191  10.797  0.2265 -0.1499  0.0042
   86SAPS    C1 8163   0.689   0.172  10.761 -0.4192  0.4317  0.0562
   86SAPS    HA 8164   0.678   0.064  10.740  0.3491  0.0571  1.4723
   86SAPS    HB 8165   0.615   0.201  10.839  0.1769  1.4131  0.2802
   86SAPS    C2 8166   0.650   0.239  10.620 -0.5227 -0.2316  0.0772
   86SAPS    HS 8167   0.547   0.209  10.595 -0.8043  1.5451 -1.0767
   86SAPS   O21 8168   0.744   0.205  10.514  0.5405 -0.2478 -0.0960
   86SAPS   C21 8169   0.750   0.083  10.489 -0.3300  0.4411 -0.2526
   86SAPS   O22 8170   0.674  -0.005  10.516  0.4120  0.7569  0.3838
   86SAPS   C22 8171   0.891   0.049  10.435 -0.0583 -0.2337  0.0462
   86SAPS   H2R 8172   0.959   0.037  10.522 -0.1029  2.9850  0.6475
   86SAPS   H2S 8173   0.880  -0.041  10.371 -0.4927  0.1607 -0.4455
   86SAPS    C3 8174   0.627   0.389  10.631  0.3929  0.4978  0.3739
   86SAPS    HX 8175   0.731   0.426  10.641  0.6960  0.7281 -2.5927
   86SAPS    HY 8176   0.566   0.416  10.720 -1.8194 -1.2470 -0.5164
   86SAPS   O31 8177   0.566   0.434  10.512  0.1179  0.3711  0.2224
   86SAPS   C31 8178   0.633   0.523  10.446  0.4043 -0.8938 -0.2424
   86SAPS   O32 8179   0.741   0.574  10.478  0.0263  0.1753  0.1371
   86SAPS   C32 8180   0.549   0.565  10.328  0.1047  0.0464  0.3740
   86SAPS   H2X 8181   0.478   0.629  10.383  0.3215 -0.3846  1.1726
   86SAPS   H2Y 8182   0.500   0.474  10.288 -0.5569 -0.5892  2.4664
   86SAPS   C23 8183   0.956   0.171  10.356 -0.0936  0.5920 -0.2687
   86SAPS   H3R 8184   1.046   0.127  10.308  0.7396  1.0787  0.8145
   86SAPS   H3S 8185   0.982   0.236  10.442  1.3631  2.4085 -1.9597
   86SAPS   C24 8186   0.864   0.252  10.259  1.1814  0.5829  0.8473
   86SAPS   H4R 8187   0.937   0.314  10.204  0.9974 -1.4184 -1.8707
   86SAPS   H4S 8188   0.799   0.325  10.312 -0.7204  1.0627 -1.9296
   86SAPS   C25 8189   0.774   0.178  10.162  0.2361 -0.2473  0.1155
   86SAPS   H5R 8190   0.713   0.096  10.201 -1.8970  0.2321 -2.0146
   86SAPS   C26 8191   0.752   0.203  10.030 -0.0375 -0.4526 -0.3662
   86SAPS   H6R 8192   0.662   0.163   9.980 -0.6397 -0.0409  0.3664
   86SAPS   C27 8193   0.829   0.306   9.957 -0.1885 -0.4234  0.2359
   86SAPS   H7R 8194   0.865   0.254   9.865 -1.0458  0.9032 -0.8851
   86SAPS   H7S 8195   0.925   0.319  10.011 -0.2066 -0.1460  0.2041
   86SAPS   C28 8196   0.760   0.434   9.923 -0.9183 -0.1613 -0.9319
   86SAPS   H8R 8197   0.739   0.499  10.010  1.1829  0.7816 -1.0706
   86SAPS   C29 8198   0.726   0.475   9.806  0.3713  0.0191 -0.5593
   86SAPS   H9R 8199   0.681   0.575   9.797 -2.3450 -1.2085 -1.7955
   86SAPS  C210 8200   0.745   0.405   9.681  0.3064  0.4444 -0.0150
   86SAPS  H10R 8201   0.734   0.295   9.684  0.4911  0.3135 -2.2197
   86SAPS  H10S 8202   0.848   0.423   9.643 -0.1015 -0.8374 -1.8623
   86SAPS  C211 8203   0.637   0.439   9.583  0.1163 -0.2153 -0.0163
   86SAPS  H11R 8204   0.544   0.488   9.617 -0.6195  0.6176 -2.9308
   86SAPS  C212 8205   0.648   0.426   9.450  0.8620  0.3499 -0.1963
   86SAPS  H12R 8206   0.560   0.457   9.391  0.0705  0.6956  1.1469
   86SAPS  C213 8207   0.747   0.357   9.366  0.1266  0.4831 -0.3936
   86SAPS  H13R 8208   0.841   0.347   9.425 -0.7114 -2.5653  0.5713
   86SAPS  H13S 8209   0.760   0.428   9.281 -0.5541  1.0479 -0.0355
   86SAPS  C214 8210   0.710   0.222   9.318 -0.4901  1.0104  0.0545
   86SAPS  H14R 8211   0.686   0.147   9.395 -1.4579  0.1444 -1.0536
   86SAPS  C215 8212   0.707   0.183   9.190  0.6968  0.1902 -0.1931
   86SAPS  H15R 8213   0.678   0.079   9.168  0.3531  0.3080 -0.3054
   86SAPS  C216 8214   0.747   0.267   9.071  0.4238  0.3460 -1.0916
   86SAPS  H16R 8215   0.850   0.307   9.085 -0.1817  1.2950  1.0240
   86SAPS  H16S 8216   0.670   0.347   9.062 -1.3306 -1.2910 -1.0969
   86SAPS  C217 8217   0.742   0.178   8.945 -0.5406 -0.0397 -0.4504
   86SAPS  H17R 8218   0.638   0.137   8.947 -0.5047 -0.1819  1.9358
   86SAPS  H17S 8219   0.804   0.086   8.945 -0.6490 -0.1714  1.6512
   86SAPS  C218 8220   0.783   0.261   8.814  0.4558  0.0899 -0.0583
   86SAPS  H18R 8221   0.887   0.296   8.830  0.5131 -0.2668  0.3834
   86SAPS  H18S 8222   0.714   0.348   8.809 -1.4988 -1.2403  1.8620
   86SAPS  C219 8223   0.773   0.178   8.680  0.1008  0.1050  0.4402
   86SAPS  H19R 8224   0.668   0.179   8.643  0.5167  2.2683 -0.8539
   86SAPS  H19S 8225   0.815   0.077   8.695  2.6287  1.2113  1.2703
   86SAPS  C220 8226   0.855   0.240   8.572 -0.4425 -0.4959  0.5303
   86SAPS  H20R 8227   0.960   0.256   8.602 -1.5052  1.7897  3.4942
   86SAPS  H20S 8228   0.822   0.343   8.548  0.4283 -0.6944 -1.7832
   86SAPS  H20T 8229   0.860   0.177   8.480  1.1950  2.3198 -1.4451
   86SAPS   C33 8230   0.629   0.659  10.228  0.3695 -0.0048  0.0931
   86SAPS   H3X 8231   0.713   0.593  10.197 -0.2025 -0.1760 -1.1834
   86SAPS   H3Y 8232   0.660   0.740  10.298  0.7168 -0.7550  0.8259
   86SAPS   C34 8233   0.548   0.706  10.107 -0.2355 -0.1308  0.9156
   86SAPS   H4X 8234   0.449   0.743  10.140 -1.2208  0.3940 -2.3176
   86SAPS   H4Y 8235   0.524   0.624  10.036  0.2537  0.1547  0.4167
   86SAPS   C35 8236   0.623   0.808  10.019  0.4091  0.2720 -0.2714
   86SAPS   H5X 8237   0.706   0.753   9.969 -2.6357 -1.5094 -3.9284
   86SAPS   H5Y 8238   0.665   0.888  10.084 -0.1880  0.1248  0.3036
   86SAPS   C36 8239   0.542   0.869   9.901 -0.0587 -0.0996  0.3466
   86SAPS   H6X 8240   0.471   0.939   9.949 -1.5090 -2.1658  1.3458
   86SAPS   H6Y 8241   0.488   0.788   9.847 -0.0114 -0.6594  1.1241
   86SAPS   C37 8242   0.644   0.932   9.805  0.1812 -0.6127 -0.3742
   86SAPS   H7X 8243   0.730   0.864   9.791 -0.0095 -0.6404 -1.5052
   86SAPS   H7Y 8244   0.680   1.030   9.845  0.8934 -1.0972  0.1902
   86SAPS   C38 8245   0.578   0.974   9.671 -0.0898  0.4800 -0.9672
   86SAPS   H8X 8246   0.483   1.032   9.678 -1.5794 -1.9217  0.1102
   86SAPS   H8Y 8247   0.558   0.877   9.620 -1.7960 -0.1068  0.6850
   86SAPS   C39 8248   0.655   1.068   9.575 -0.4077 -0.1937  0.3409
   86SAPS   H9X 8249   0.750   1.016   9.551 -0.0312  0.3871  0.5386
   86SAPS   H9Y 8250   0.683   1.155   9.639  0.0849 -1.6176  2.1243
   86SAPS  C310 8251   0.590   1.109   9.445  0.1713  0.8099 -0.0636
   86SAPS  H10X 8252   0.508   1.184   9.458  0.3601  1.0451 -0.2261
   86SAPS  H10Y 8253   0.546   1.018   9.398  0.1768  0.9907 -0.4208
   86SAPS  C311 8254   0.679   1.189   9.346  0.0370  0.2906  0.4226
   86SAPS  H11X 8255   0.774   1.133   9.332 -1.1961 -1.8301  0.1654
   86SAPS  H11Y 8256   0.711   1.282   9.398 -1.3441  0.8500  0.3160
   86SAPS  C312 8257   0.603   1.224   9.213 -0.1855  0.5204 -0.5182
   86SAPS  H12X 8258   0.526   1.298   9.242 -0.6766 -0.4570  0.7055
   86SAPS  H12Y 8259   0.555   1.129   9.182  2.3668 -0.7562 -0.8892
   86SAPS  C313 8260   0.690   1.281   9.106  0.5218 -0.0181  0.6824
   86SAPS  H13X 8261   0.764   1.202   9.083 -2.0183 -2.2783 -0.2150
   86SAPS  H13Y 8262   0.743   1.366   9.154 -0.7573  0.7037  0.8907
   86SAPS  C314 8263   0.621   1.343   8.987 -0.0069  0.3900  0.5387
   86SAPS  H14X 8264   0.697   1.392   8.922 -1.9622  0.2435 -1.9787
   86SAPS  H14Y 8265   0.542   1.416   9.015  0.4492  1.2800 -0.4222
   86SAPS  C315 8266   0.550   1.243   8.884  0.1049  0.1386 -0.0476
   86SAPS  H15X 8267   0.517   1.313   8.804  1.1328 -2.2814 -2.7522
   86SAPS  H15Y 8268   0.459   1.213   8.940 -0.2030  0.4284 -0.3845
   86SAPS  C316 8269   0.632   1.122   8.853 -0.2686 -0.4104  0.6557
   86SAPS  H16X 8270   0.676   1.074   8.944  0.6702 -0.7899  0.0188
   86SAPS  H16Y 8271   0.716   1.164   8.794  0.2298  0.3026  1.8355
   86SAPS  C317 8272   0.560   1.016   8.760 -0.0090 -0.1879 -0.8811
   86SAPS  H17X 8273   0.471   0.976   8.813  0.5845  1.0011  1.0935
   86SAPS  H17Y 8274   0.635   0.933   8.754 -1.0362 -1.3624  1.1747
   86SAPS  C318 8275   0.522   1.060   8.616  0.2322  0.6353 -0.1941
   86SAPS  H18X 8276   0.460   1.152   8.614 -1.0321 -0.1942 -0.7156
   86SAPS  H18Y 8277   0.476   0.977   8.557 -0.6888 -0.4880  1.9842
   86SAPS  H18Z 8278   0.620   1.079   8.568  1.1930  0.9007  1.7579
   87SAPS     N 8279   0.936   1.586  10.807 -0.3188 -0.2274 -0.4639
   87SAPS   HN1 8280   0.952   1.552  10.710 -1.3028 -0.9885 -0.3713
   87SAPS   HN2 8281   0.860   1.539  10.860  0.1350  0.8108  1.1592
   87SAPS   HN3 8282   0.905   1.685  10.798  1.2314  0.2782 -0.5915
   87SAPS   C12 8283   1.063   1.593  10.881 -0.0248 -0.5654  0.4537
   87SAPS  H12A 8284   1.141   1.621  10.812  0.7943 -0.0599  1.5544
   87SAPS   C13 8285   1.061   1.702  10.994 -0.3670  0.4277  0.1897
   87SAPS  O13A 8286   0.967   1.777  11.009  0.1388 -0.3009 -0.3745
   87SAPS  O13B 8287   1.171   1.720  11.063  0.0048 -0.5483  0.5096
   87SAPS   C11 8288   1.104   1.456  10.950  0.7449 -0.6752  0.3238
   87SAPS  H11A 8289   1.019   1.436  11.018  0.6487  1.9103  1.0829
   87SAPS  H11B 8290   1.201   1.468  11.003 -0.4489 -0.2201  2.5333
   87SAPS     P 8291   1.165   1.208  10.882  0.2524 -0.3455  0.3369
   87SAPS   O13 8292   1.188   1.204  11.024 -0.2126  0.5639 -0.1554
   87SAPS   O14 8293   1.061   1.115  10.828  0.2462 -0.3792 -0.2444
   87SAPS   O12 8294   1.111   1.357  10.849 -0.5675  0.3852 -0.1276
   87SAPS   O11 8295   1.298   1.197  10.800  0.3867 -0.5857 -0.4858
   87SAPS    C1 8296   1.356   1.316  10.739 -0.0000 -0.2339 -0.2803
   87SAPS    HA 8297   1.357   1.405  10.807  1.2498  1.5119 -2.4617
   87SAPS    HB 8298   1.462   1.288  10.723  0.5632  1.3027  0.4818
   87SAPS    C2 8299   1.301   1.350  10.590 -0.3091 -0.0786  0.2912
   87SAPS    HS 8300   1.197   1.384  10.609 -0.8807 -2.1908  1.2311
   87SAPS   O21 8301   1.307   1.236  10.509 -0.6784 -0.3811  0.0756
   87SAPS   C21 8302   1.208   1.215  10.429 -0.0534  0.4065  0.2848
   87SAPS   O22 8303   1.106   1.283  10.414 -0.5540 -0.4808  0.0334
   87SAPS   C22 8304   1.237   1.088  10.352  0.5252  0.7476 -0.2443
   87SAPS   H2R 8305   1.333   1.095  10.297 -0.7065 -0.5344 -2.7289
   87SAPS   H2S 8306   1.240   1.008  10.429 -1.2378  1.3223  0.4673
   87SAPS    C3 8307   1.387   1.466  10.540 -0.3052 -0.2964 -0.1148
   87SAPS    HX 8308   1.490   1.429  10.518 -0.2568  0.4028 -1.1557
   87SAPS    HY 8309   1.398   1.545  10.617 -0.6401 -1.3413  1.0278
   87SAPS   O31 8310   1.317   1.528  10.433  0.2096  0.4268 -0.1304
   87SAPS   C31 8311   1.378   1.550  10.321  0.2772 -0.2535  0.4643
   87SAPS   O32 8312   1.501   1.559  10.306  0.1298 -1.0777 -0.6429
   87SAPS   C32 8313   1.266   1.577  10.224 -0.2172  0.3534  0.1589
   87SAPS   H2X 8314   1.264   1.687  10.205 -1.1188  0.3241  0.0609
   87SAPS   H2Y 8315   1.165   1.537  10.248 -0.5998  0.9935 -0.3572
   87SAPS   C23 8316   1.128   1.054  10.253  0.6859 -0.2098  0.3967
   87SAPS   H3R 8317   1.113   1.137  10.180  0.4829  0.2809  0.9888
   87SAPS   H3S 8318   1.025   1.042  10.294 -0.0657  3.8421  0.0875
   87SAPS   C24 8319   1.168   0.929  10.175  0.2816  0.1339 -0.1519
   87SAPS   H4R 8320   1.194   0.847  10.246  0.7093  0.6008  0.2406
   87SAPS   H4S 8321   1.258   0.954  10.115  1.3144 -0.9518  0.8739
   87SAPS   C25 8322   1.070   0.868  10.081  0.2883  0.2963 -0.5041
   87SAPS   H5R 8323   0.995   0.799  10.122  0.8878 -0.4753 -0.6810
   87SAPS   C26 8324   1.050   0.902   9.953  0.1744 -0.0792 -0.1194
   87SAPS   H6R 8325   0.963   0.854   9.907  0.4857 -0.0728 -0.7276
   87SAPS   C27 8326   1.119   1.010   9.875  0.0598 -1.0030  0.6999
   87SAPS   H7R 8327   1.153   1.090   9.943  0.3976 -1.2235  0.7926
   87SAPS   H7S 8328   1.054   1.076   9.813  1.0353  1.8827  2.5791
   87SAPS   C28 8329   1.242   0.951   9.799 -0.5049  0.0919  0.4378
   87SAPS   H8R 8330   1.325   0.924   9.866  2.2545 -0.5311 -2.9609
   87SAPS   C29 8331   1.250   0.918   9.672  0.1932  0.2085 -0.3132
   87SAPS   H9R 8332   1.345   0.881   9.630  0.1873  0.9056 -0.9817
   87SAPS  C210 8333   1.124   0.919   9.577  0.6998  0.0045  0.2562
   87SAPS  H10R 8334   1.155   0.919   9.470 -1.5684 -0.6656 -0.4686
   87SAPS  H10S 8335   1.072   1.017   9.584  2.3023  0.7726  2.3738
   87SAPS  C211 8336   1.035   0.799   9.599 -0.0799  0.3612  0.2820
   87SAPS  H11R 8337   1.036   0.768   9.705  0.7051  1.1703  0.5344
   87SAPS  C212 8338   0.970   0.723   9.512  0.5909  0.2035 -0.3126
   87SAPS  H12R 8339   0.911   0.646   9.564  1.8820 -1.5949 -1.4121
   87SAPS  C213 8340   0.966   0.737   9.361 -0.0737  0.6335 -0.2620
   87SAPS  H13R 8341   0.960   0.637   9.314 -0.4316  0.3874  0.2971
   87SAPS  H13S 8342   1.058   0.766   9.305 -0.4332 -0.9343 -1.7300
   87SAPS  C214 8343   0.848   0.821   9.309 -0.6078  0.1079 -0.0327
   87SAPS  H14R 8344   0.801   0.892   9.379 -2.1342 -0.4613 -0.4513
   87SAPS  C215 8345   0.805   0.817   9.179  0.0629  0.2337 -0.5376
   87SAPS  H15R 8346   0.719   0.880   9.149  0.2826  2.7814  3.4815
   87SAPS  C216 8347   0.871   0.729   9.075  0.5186  0.9044  0.4200
   87SAPS  H16R 8348   0.809   0.639   9.055  0.4709  0.2681  3.0842
   87SAPS  H16S 8349   0.969   0.683   9.101 -1.9086 -4.7610  0.9938
   87SAPS  C217 8350   0.916   0.796   8.944  0.6893  0.2457  0.0246
   87SAPS  H17R 8351   1.004   0.858   8.972  0.1676  1.4879 -0.9599
   87SAPS  H17S 8352   0.832   0.867   8.925  0.7003  0.6475  1.3613
   87SAPS  C218 8353   0.924   0.705   8.817 -0.0728  0.1822 -0.9714
   87SAPS  H18R 8354   0.830   0.648   8.824 -0.8448  1.4995 -0.2703
   87SAPS  H18S 8355   1.009   0.633   8.816 -1.1592 -1.1270 -1.2326
   87SAPS  C219 8356   0.920   0.778   8.681 -0.0537 -0.6341 -0.8868
   87SAPS  H19R 8357   1.002   0.853   8.678  0.7101 -1.4342 -0.4116
   87SAPS  H19S 8358   0.824   0.834   8.673  0.3515  0.0584 -0.9901
   87SAPS  C220 8359   0.932   0.686   8.558 -0.4855  0.1388 -0.0921
   87SAPS  H20R 8360   0.843   0.620   8.547 -0.6531  0.0830  1.3215
   87SAPS  H20S 8361   1.024   0.625   8.555 -1.0200 -0.6908 -0.1311
   87SAPS  H20T 8362   0.932   0.744   8.464  0.5659  3.2471  1.6765
   87SAPS   C33 8363   1.301   1.517  10.086  0.2707  0.3852 -0.1759
   87SAPS   H3X 8364   1.399   1.559  10.052  1.4800 -1.0485  1.4137
   87SAPS   H3Y 8365   1.235   1.562  10.008  2.4246 -0.0702 -2.4062
   87SAPS   C34 8366   1.303   1.368  10.086 -1.1322 -0.1048 -1.0196
   87SAPS   H4X 8367   1.198   1.339  10.109 -2.4059  1.7637 -3.9170
   87SAPS   H4Y 8368   1.371   1.327  10.163 -0.7842 -0.2589 -1.4029
   87SAPS   C35 8369   1.345   1.285   9.965  0.4062  0.8404 -0.0674
   87SAPS   H5X 8370   1.260   1.288   9.893  0.1252  0.9329  0.2687
   87SAPS   H5Y 8371   1.361   1.180   9.995 -0.8006  0.6735  0.0496
   87SAPS   C36 8372   1.473   1.321   9.888  0.0350  0.0206 -0.3681
   87SAPS   H6X 8373   1.561   1.291   9.948  0.4654  1.2139 -0.3732
   87SAPS   H6Y 8374   1.484   1.431   9.880  4.3669 -0.1905  0.3540
   87SAPS   C37 8375   1.482   1.251   9.756 -0.4632 -0.1139 -0.7199
   87SAPS   H7X 8376   1.405   1.287   9.685  0.2657  0.9130 -1.0112
   87SAPS   H7Y 8377   1.462   1.144   9.775 -2.4819  0.6151  1.9333
   87SAPS   C38 8378   1.615   1.257   9.681 -0.1239 -0.0455 -0.0275
   87SAPS   H8X 8379   1.700   1.204   9.728  0.9977  1.1295 -0.6464
   87SAPS   H8Y 8380   1.655   1.360   9.670  0.0296 -0.0655  0.3397
   87SAPS   C39 8381   1.604   1.210   9.533 -0.2963 -0.3393 -0.0812
   87SAPS   H9X 8382   1.690   1.234   9.467  0.2571  1.3738  1.1667
   87SAPS   H9Y 8383   1.517   1.266   9.491 -0.5043 -0.5687  0.0441
   87SAPS  C310 8384   1.582   1.065   9.511 -1.0016  0.1321 -0.7512
   87SAPS  H10X 8385   1.493   1.024   9.564 -0.7376  0.3288 -0.1517
   87SAPS  H10Y 8386   1.672   1.006   9.538  0.3360  2.5122  0.1845
   87SAPS  C311 8387   1.573   1.041   9.361  0.0953 -0.0224  0.3081
   87SAPS  H11X 8388   1.675   1.057   9.320  0.2979 -2.8234 -0.5194
   87SAPS  H11Y 8389   1.498   1.103   9.308 -0.6452 -1.5156 -0.4538
   87SAPS  C312 8390   1.531   0.896   9.326 -0.1798  0.2065 -0.0272
   87SAPS  H12X 8391   1.426   0.877   9.353  0.3129 -1.2094  0.9707
   87SAPS  H12Y 8392   1.589   0.821   9.385  0.0051  0.9739  0.7866
   87SAPS  C313 8393   1.546   0.866   9.174 -0.2423 -0.2422  0.1871
   87SAPS  H13X 8394   1.636   0.906   9.124  0.3729  0.2865  1.6633
   87SAPS  H13Y 8395   1.456   0.906   9.122 -1.0974 -1.9465  0.2886
   87SAPS  C314 8396   1.539   0.713   9.153  0.0979 -0.3922  0.1856
   87SAPS  H14X 8397   1.462   0.653   9.205 -0.5208  0.6887  0.5323
   87SAPS  H14Y 8398   1.627   0.663   9.199  0.0744 -0.2731  0.3590
   87SAPS  C315 8399   1.536   0.681   9.002  0.1405  0.2914  0.5225
   87SAPS  H15X 8400   1.576   0.578   8.987 -1.4273 -0.5834  1.9739
   87SAPS  H15Y 8401   1.614   0.742   8.951  1.7552  0.1733  2.7150
   87SAPS  C316 8402   1.403   0.700   8.929 -0.0792  0.5636  0.0074
   87SAPS  H16X 8403   1.346   0.780   8.982  0.3087  0.3971  0.6967
   87SAPS  H16Y 8404   1.344   0.607   8.944  0.7668 -0.0952 -0.7109
   87SAPS  C317 8405   1.392   0.714   8.774  0.4607 -0.4530 -0.3066
   87SAPS  H17X 8406   1.323   0.637   8.733  1.5538 -0.6907 -1.7946
   87SAPS  H17Y 8407   1.493   0.678   8.742  0.6238 -1.2713  1.0583
   87SAPS  C318 8408   1.349   0.849   8.726  0.4061  0.1463  0.2313
   87SAPS  H18X 8409   1.317   0.848   8.620 -0.4447 -0.6270  0.4840
   87SAPS  H18Y 8410   1.429   0.927   8.730  0.0169  0.8131 -2.6223
   87SAPS  H18Z 8411   1.260   0.896   8.774 -0.0570 -1.0478  0.5725
   88SAPS     N 8412   3.308   1.732  10.597  0.5063 -0.1196  0.7013
   88SAPS   HN1 8413   3.299   1.629  10.606  1.5584 -0.0758  3.3778
   88SAPS   HN2 8414   3.212   1.764  10.574  1.3632  1.9973 -0.2221
   88SAPS   HN3 8415   3.365   1.769  10.518 -1.6544 -1.5965 -1.6815
   88SAPS   C12 8416   3.341   1.781  10.733 -0.2689  0.1725  0.5645
   88SAPS  H12A 8417   3.381   1.881  10.724  0.9148 -0.4749 -2.4493
   88SAPS   C13 8418   3.217   1.788  10.819  0.6185  0.2089 -1.4861
   88SAPS  O13A 8419   3.105   1.755  10.779  0.1959 -0.2799  0.0243
   88SAPS  O13B 8420   3.238   1.797  10.941 -0.4900 -0.0122  0.1166
   88SAPS   C11 8421   3.438   1.685  10.808  0.0567 -0.1274 -0.0606
   88SAPS  H11A 8422   3.393   1.584  10.822  0.1985  0.0899  2.6487
   88SAPS  H11B 8423   3.458   1.720  10.912  0.9784  1.1459 -0.6365
   88SAPS     P 8424   3.672   1.600  10.827  0.2121 -0.2551  0.3034
   88SAPS   O13 8425   3.752   1.699  10.901  0.0778  0.2869  0.6957
   88SAPS   O14 8426   3.607   1.495  10.906  0.0514  0.3551 -0.2404
   88SAPS   O12 8427   3.569   1.681  10.747  0.6163 -0.5581 -0.5843
   88SAPS   O11 8428   3.771   1.535  10.719  0.4473  0.0179 -0.6446
   88SAPS    C1 8429   3.701   1.460  10.615  0.0362 -0.4139  0.4552
   88SAPS    HA 8430   3.606   1.410  10.643 -1.0274  0.6589 -1.0576
   88SAPS    HB 8431   3.667   1.525  10.532 -0.3502 -0.5525  0.5024
   88SAPS    C2 8432   3.800   1.358  10.549 -0.1276  0.0589  0.0120
   88SAPS    HS 8433   3.850   1.306  10.633  1.4502 -0.1964 -1.0430
   88SAPS   O21 8434   3.891   1.434  10.469 -0.5959 -0.5729 -0.5991
   88SAPS   C21 8435   4.012   1.384  10.461  0.1820 -0.2187  0.2976
   88SAPS   O22 8436   4.052   1.281  10.512  0.3514 -0.5362 -0.4531
   88SAPS   C22 8437   4.097   1.480  10.373 -0.1576 -0.1279 -0.1966
   88SAPS   H2R 8438   4.055   1.582  10.382 -1.6124 -0.6801 -0.4521
   88SAPS   H2S 8439   4.196   1.466  10.421  0.3271 -2.6292 -1.6978
   88SAPS    C3 8440   3.716   1.264  10.454 -0.2034  0.2084  0.7661
   88SAPS    HX 8441   3.647   1.322  10.389 -0.3017 -2.2604 -1.5191
   88SAPS    HY 8442   3.654   1.197  10.518 -1.6687 -0.1198 -0.9239
   88SAPS   O31 8443   3.799   1.189  10.358  0.4465  0.3710 -0.6808
   88SAPS   C31 8444   3.861   1.077  10.401  0.2037  0.2174  0.1483
   88SAPS   O32 8445   3.841   1.025  10.512 -0.4323  0.5540  0.1269
   88SAPS   C32 8446   3.946   1.014  10.290  0.2594  0.8842 -0.3897
   88SAPS   H2X 8447   3.931   0.905  10.294  0.8444  0.7832 -0.7288
   88SAPS   H2Y 8448   4.047   1.050  10.322  0.2343 -0.5518  1.4361
   88SAPS   C23 8449   4.104   1.426  10.229  0.3391 -0.2654 -0.1876
   88SAPS   H3R 8450   4.146   1.323  10.234  2.1480  0.4822  1.8684
   88SAPS   H3S 8451   4.178   1.474  10.161 -1.4313 -0.0262 -2.0631
   88SAPS   C24 8452   3.980   1.423  10.148 -0.2289 -0.2864 -0.4775
   88SAPS   H4R 8453   3.899   1.380  10.210  0.4523  0.4296  0.9313
   88SAPS   H4S 8454   4.001   1.354  10.063 -1.7246 -1.4017  0.0219
   88SAPS   C25 8455   3.940   1.557  10.094 -0.0578 -0.3695  0.1035
   88SAPS   H5R 8456   3.952   1.635  10.171 -2.5795 -0.3841  0.5911
   88SAPS   C26 8457   3.902   1.587   9.968  0.8814 -0.4438 -0.6251
   88SAPS   H6R 8458   3.874   1.691   9.945 -0.6360 -0.7288 -0.1496
   88SAPS   C27 8459   3.886   1.494   9.848 -0.9117 -1.2759 -0.7540
   88SAPS   H7R 8460   3.794   1.516   9.790  0.7304  0.7255 -2.7795
   88SAPS   H7S 8461   3.875   1.389   9.883  0.0949 -0.8993  0.7923
   88SAPS   C28 8462   4.008   1.504   9.755  0.4061  0.5151  0.2987
   88SAPS   H8R 8463   4.105   1.517   9.806 -0.4858 -1.3141  2.6407
   88SAPS   C29 8464   4.009   1.489   9.618  0.1646 -0.1106 -0.5142
   88SAPS   H9R 8465   4.095   1.518   9.556  1.0792 -3.0920 -0.8106
   88SAPS  C210 8466   3.894   1.454   9.531  0.7027  0.3688 -0.2673
   88SAPS  H10R 8467   3.805   1.419   9.588 -0.0263  1.3767 -0.7469
   88SAPS  H10S 8468   3.927   1.365   9.474  0.1316 -0.0948  0.1165
   88SAPS  C211 8469   3.849   1.562   9.440 -0.6662  0.3150  0.4247
   88SAPS  H11R 8470   3.780   1.638   9.481 -0.4952  0.1410  1.0435
   88SAPS  C212 8471   3.879   1.574   9.310 -0.0832 -0.1437  0.7115
   88SAPS  H12R 8472   3.849   1.669   9.263  1.0692  0.3019  0.8563
   88SAPS  C213 8473   3.962   1.485   9.230 -0.4860  0.0021  0.4886
   88SAPS  H13R 8474   3.890   1.477   9.146 -0.4829 -0.8893  0.5565
   88SAPS  H13S 8475   3.972   1.382   9.271  1.0985  0.3758  1.1081
   88SAPS  C214 8476   4.093   1.541   9.184  0.2683  0.1416 -0.0605
   88SAPS  H14R 8477   4.163   1.591   9.253  1.4167 -0.1763 -0.9697
   88SAPS  C215 8478   4.138   1.545   9.058 -0.4014 -1.1778 -0.4195
   88SAPS  H15R 8479   4.226   1.607   9.037 -2.4511  1.4321 -2.0355
   88SAPS  C216 8480   4.082   1.490   8.932  0.9352  1.1528  0.8281
   88SAPS  H16R 8481   4.078   1.567   8.852 -0.9094  0.5461  0.3021
   88SAPS  H16S 8482   3.983   1.449   8.960  1.1589 -0.0975 -0.1286
   88SAPS  C217 8483   4.166   1.364   8.872  0.1178  0.2341  0.4760
   88SAPS  H17R 8484   4.269   1.396   8.844 -0.6607  1.1746 -1.6018
   88SAPS  H17S 8485   4.118   1.348   8.773  1.6071 -0.8042 -0.1147
   88SAPS  C218 8486   4.168   1.237   8.953  0.2009  0.6112  0.6767
   88SAPS  H18R 8487   4.060   1.213   8.966 -0.4885  1.2861 -2.7248
   88SAPS  H18S 8488   4.203   1.253   9.057  1.2349  0.8604  0.3020
   88SAPS  C219 8489   4.228   1.116   8.890 -0.6451 -0.3246  0.2880
   88SAPS  H19R 8490   4.338   1.125   8.900 -0.4675 -0.5388 -1.2202
   88SAPS  H19S 8491   4.218   1.121   8.779 -0.1001 -0.1903  0.2450
   88SAPS  C220 8492   4.188   0.977   8.936  0.0904 -0.0749 -0.3735
   88SAPS  H20R 8493   4.191   0.972   9.046  0.1983 -2.3205 -0.4363
   88SAPS  H20S 8494   4.254   0.900   8.890 -0.4077 -0.3972 -0.5678
   88SAPS  H20T 8495   4.080   0.965   8.910 -0.6764 -1.9870  3.1074
   88SAPS   C33 8496   3.915   1.057  10.145  0.0755  0.5127 -0.3019
   88SAPS   H3X 8497   3.890   1.166  10.140  0.3252  0.5988  0.3133
   88SAPS   H3Y 8498   3.811   1.022  10.125  1.0570 -2.1622 -1.1504
   88SAPS   C34 8499   4.027   1.037  10.040 -0.8796  0.4884  0.2001
   88SAPS   H4X 8500   4.056   0.930  10.046 -0.4431  0.5064 -1.2988
   88SAPS   H4Y 8501   4.113   1.096  10.078  0.0690 -0.1105 -0.9777
   88SAPS   C35 8502   3.985   1.073   9.902 -0.0119 -0.1376  0.6237
   88SAPS   H5X 8503   3.991   1.184   9.893 -1.1494  0.1785  2.9968
   88SAPS   H5Y 8504   3.880   1.038   9.890 -0.3701  0.2988  2.1863
   88SAPS   C36 8505   4.067   1.013   9.783 -0.8563 -0.7526  0.8207
   88SAPS   H6X 8506   4.042   0.905   9.777  2.2074 -1.5009 -2.3809
   88SAPS   H6Y 8507   4.178   1.014   9.792 -0.4530  0.4982 -2.5173
   88SAPS   C37 8508   4.028   1.061   9.644 -0.3143  0.0993  1.6239
   88SAPS   H7X 8509   4.024   1.172   9.634 -0.8065 -0.1029 -1.2574
   88SAPS   H7Y 8510   3.925   1.026   9.624 -0.1754  1.1568 -1.5861
   88SAPS   C38 8511   4.124   1.007   9.531 -0.3151  0.0900 -0.3730
   88SAPS   H8X 8512   4.117   0.896   9.539 -1.4741  0.2928  2.8955
   88SAPS   H8Y 8513   4.231   1.029   9.549 -0.4212 -0.3541  0.8822
   88SAPS   C39 8514   4.082   1.055   9.394 -0.2647 -0.3201  0.0911
   88SAPS   H9X 8515   4.165   1.023   9.327  0.5664  0.4840  0.7215
   88SAPS   H9Y 8516   4.082   1.165   9.387  0.9933 -0.4129 -2.6017
   88SAPS  C310 8517   3.949   0.993   9.347  0.0435 -0.0957  0.2913
   88SAPS  H10X 8518   3.881   1.020   9.431 -1.6952  1.2696 -1.4512
   88SAPS  H10Y 8519   3.951   0.883   9.340  2.0116 -0.1132  0.7854
   88SAPS  C311 8520   3.889   1.051   9.221  0.3312  0.5764  0.1058
   88SAPS  H11X 8521   3.954   1.019   9.137 -0.8292 -2.2456  0.1838
   88SAPS  H11Y 8522   3.898   1.162   9.223 -3.7487  1.0620 -0.9451
   88SAPS  C312 8523   3.732   1.030   9.199  0.3076 -0.2762  0.7700
   88SAPS  H12X 8524   3.677   1.086   9.277  0.6437  1.1635  0.0296
   88SAPS  H12Y 8525   3.706   0.922   9.201 -1.6045  0.1491  0.8340
   88SAPS  C313 8526   3.692   1.079   9.057 -0.5124  0.2064 -0.3109
   88SAPS  H13X 8527   3.588   1.043   9.039 -0.7714 -0.1842  1.7184
   88SAPS  H13Y 8528   3.759   1.036   8.980 -0.9991 -1.9704  0.4160
   88SAPS  C314 8529   3.706   1.231   9.048 -0.4361  0.5194  0.1549
   88SAPS  H14X 8530   3.815   1.251   9.046  0.4171 -3.2765 -0.3160
   88SAPS  H14Y 8531   3.670   1.287   9.136 -1.1212 -1.4342  1.1701
   88SAPS  C315 8532   3.638   1.287   8.918  0.1635  0.0087  0.5210
   88SAPS  H15X 8533   3.662   1.396   8.915  1.5171 -0.2422  1.1108
   88SAPS  H15Y 8534   3.528   1.278   8.925  0.2791 -1.4644  0.7229
   88SAPS  C316 8535   3.690   1.210   8.793 -1.0466 -0.0171  0.5587
   88SAPS  H16X 8536   3.636   1.113   8.786  0.9810 -1.0525 -2.4579
   88SAPS  H16Y 8537   3.796   1.181   8.808 -1.0035 -0.4287 -0.4827
   88SAPS  C317 8538   3.682   1.294   8.665  0.5783  0.4777 -0.4535
   88SAPS  H17X 8539   3.594   1.357   8.689  1.2235  0.5774  1.9326
   88SAPS  H17Y 8540   3.658   1.235   8.573  0.0298 -0.5807  0.3427
   88SAPS  C318 8541   3.811   1.377   8.637 -0.4732  0.2552  0.5134
   88SAPS  H18X 8542   3.890   1.304   8.607 -0.0084  0.9248  0.0810
   88SAPS  H18Y 8543   3.848   1.437   8.722  4.3762 -0.4834 -0.7590
   88SAPS  H18Z 8544   3.790   1.452   8.558  1.5948  1.4760  1.0482
   89SAPS     N 8545   3.782   2.549  10.596 -0.0989  0.2213 -0.0205
   89SAPS   HN1 8546   3.761   2.448  10.608 -0.1790  0.2543  0.1173
   89SAPS   HN2 8547   3.768   2.579  10.497 -0.4244 -1.9379 -0.6892
   89SAPS   HN3 8548   3.882   2.568  10.618  0.3577 -0.3407 -1.4933
   89SAPS   C12 8549   3.696   2.634  10.687 -0.1300 -0.3068 -0.2635
   89SAPS  H12A 8550   3.601   2.644  10.635  0.7476  1.5457 -1.6310
   89SAPS   C13 8551   3.673   2.584  10.825  0.8074 -0.9304 -0.0206
   89SAPS  O13A 8552   3.724   2.472  10.856 -0.3370 -0.1758  0.2083
   89SAPS  O13B 8553   3.582   2.642  10.889  0.4863 -0.2785 -0.0053
   89SAPS   C11 8554   3.758   2.777  10.694  0.8830  0.5390 -0.0919
   89SAPS  H11A 8555   3.849   2.769  10.757  1.0818  0.1337 -0.4223
   89SAPS  H11B 8556   3.681   2.842  10.741  2.6402  3.0440 -0.4418
   89SAPS     P 8557   3.790   2.965  10.508  0.2314 -0.0532  0.0334
   89SAPS   O13 8558   3.695   3.033  10.603 -0.0961 -0.6822  0.3637
   89SAPS   O14 8559   3.930   3.017  10.501  0.2839 -0.1313 -0.9383
   89SAPS   O12 8560   3.801   2.823  10.566  0.4797 -0.0977  0.6489
   89SAPS   O11 8561   3.718   2.950  10.366  0.4653 -0.7914 -0.2616
   89SAPS    C1 8562   3.619   2.857  10.340  0.1669  0.5995  0.1850
   89SAPS    HA 8563   3.607   2.771  10.410 -0.5069  1.3228  0.9715
   89SAPS    HB 8564   3.527   2.919  10.336 -1.1291 -1.3095 -1.4197
   89SAPS    C2 8565   3.635   2.789  10.201 -0.6763  0.3923  0.3259
   89SAPS    HS 8566   3.569   2.699  10.189  1.1592 -1.1605  1.3583
   89SAPS   O21 8567   3.773   2.760  10.171  0.3791  0.0416  0.0405
   89SAPS   C21 8568   3.819   2.659  10.239  0.5279  0.4746  0.3705
   89SAPS   O22 8569   3.761   2.578  10.310  0.8619  0.1576  0.2778
   89SAPS   C22 8570   3.971   2.672  10.247 -0.6696 -0.2086  0.2944
   89SAPS   H2R 8571   4.002   2.718  10.151  1.1453  0.1743  1.0266
   89SAPS   H2S 8572   3.989   2.746  10.329 -0.5347  0.4083 -0.2842
   89SAPS    C3 8573   3.590   2.893  10.097 -0.0684 -0.7732 -0.0446
   89SAPS    HX 8574   3.644   2.989  10.107  0.5580 -1.0248 -0.9162
   89SAPS    HY 8575   3.482   2.918  10.102 -0.1015 -1.0063  0.4689
   89SAPS   O31 8576   3.618   2.845   9.964  0.3628 -0.2011 -0.3561
   89SAPS   C31 8577   3.543   2.750   9.927  0.1776  0.0035 -0.3237
   89SAPS   O32 8578   3.447   2.705   9.995 -0.3046 -0.1432 -0.5305
   89SAPS   C32 8579   3.585   2.703   9.786 -0.0978  0.1875  0.0332
   89SAPS   H2X 8580   3.612   2.596   9.797  1.4940  0.5588 -0.0869
   89SAPS   H2Y 8581   3.681   2.754   9.763 -0.9330  0.9334 -2.1437
   89SAPS   C23 8582   4.056   2.547  10.278  0.4052  0.3594  0.5986
   89SAPS   H3R 8583   4.014   2.489  10.363  0.3842  0.5524  0.7215
   89SAPS   H3S 8584   4.159   2.562  10.317 -0.6107  2.7955  2.6449
   89SAPS   C24 8585   4.059   2.444  10.166  0.4321 -0.4018  0.5837
   89SAPS   H4R 8586   3.959   2.416  10.128 -0.2889  3.2316 -0.5524
   89SAPS   H4S 8587   4.090   2.348  10.214  1.5935 -0.4019 -0.1277
   89SAPS   C25 8588   4.155   2.487  10.065 -1.0292 -0.0381 -0.3745
   89SAPS   H5R 8589   4.249   2.515  10.114  0.3837  0.3255 -3.1009
   89SAPS   C26 8590   4.133   2.488   9.932 -0.9097  0.0589 -0.5789
   89SAPS   H6R 8591   4.209   2.525   9.861  0.6440 -2.2956 -0.2623
   89SAPS   C27 8592   4.006   2.448   9.858 -0.1939  0.0677 -0.5732
   89SAPS   H7R 8593   4.005   2.494   9.757 -1.9788 -2.1595 -1.6741
   89SAPS   H7S 8594   3.914   2.485   9.908  0.4310 -0.6780  1.2099
   89SAPS   C28 8595   4.009   2.302   9.838  0.2893  0.0481  0.1884
   89SAPS   H8R 8596   4.036   2.248   9.930  0.6084 -0.7856 -0.3840
   89SAPS   C29 8597   3.965   2.240   9.720  0.1157  0.1765 -0.0887
   89SAPS   H9R 8598   3.953   2.130   9.722  0.8907  0.0943  1.4623
   89SAPS  C210 8599   3.915   2.300   9.592  0.4833  0.5650 -0.4623
   89SAPS  H10R 8600   3.935   2.229   9.509 -1.5178  1.4984 -1.8423
   89SAPS  H10S 8601   3.985   2.384   9.574 -1.5230  2.3945 -0.1469
   89SAPS  C211 8602   3.773   2.357   9.590 -0.2981  0.0842 -0.0661
   89SAPS  H11R 8603   3.730   2.357   9.691  1.2190 -0.5290  0.6104
   89SAPS  C212 8604   3.713   2.402   9.477 -0.0665  0.3989  1.0766
   89SAPS  H12R 8605   3.612   2.445   9.482 -0.9934 -1.5180 -0.1598
   89SAPS  C213 8606   3.776   2.417   9.342  0.5963 -0.0957  0.7947
   89SAPS  H13R 8607   3.703   2.379   9.268  1.3284 -3.4753  1.6440
   89SAPS  H13S 8608   3.861   2.350   9.320 -0.8106 -1.4808 -0.6873
   89SAPS  C214 8609   3.821   2.560   9.313 -0.1049 -0.3578 -0.8917
   89SAPS  H14R 8610   3.843   2.619   9.402  2.3146 -0.9511 -1.0376
   89SAPS  C215 8611   3.824   2.614   9.192 -0.3567 -0.2670 -0.0405
   89SAPS  H15R 8612   3.851   2.720   9.190  0.4547 -0.4332  1.0355
   89SAPS  C216 8613   3.802   2.552   9.060 -0.5016 -0.3556  0.4685
   89SAPS  H16R 8614   3.790   2.441   9.063  0.9794 -0.5857 -0.8381
   89SAPS  H16S 8615   3.895   2.572   9.002  0.3002  2.2090  2.4462
   89SAPS  C217 8616   3.690   2.630   8.987 -0.2027  0.2633  0.6357
   89SAPS  H17R 8617   3.714   2.739   8.988  1.5330 -0.0935 -0.0067
   89SAPS  H17S 8618   3.591   2.613   9.035 -0.7133  0.5211 -0.2922
   89SAPS  C218 8619   3.690   2.589   8.841 -0.0162 -0.0391 -0.7062
   89SAPS  H18R 8620   3.786   2.595   8.785  1.8704 -1.9776  2.0726
   89SAPS  H18S 8621   3.626   2.670   8.799 -0.1177  0.1478 -0.1982
   89SAPS  C219 8622   3.660   2.443   8.819  0.0166  0.4183  0.5690
   89SAPS  H19R 8623   3.570   2.410   8.875  0.3222 -0.4147  0.5833
   89SAPS  H19S 8624   3.744   2.383   8.861 -0.0201 -0.5836 -0.7036
   89SAPS  C220 8625   3.656   2.401   8.673 -0.3005 -0.2461  0.3352
   89SAPS  H20R 8626   3.578   2.462   8.622 -2.4398 -2.0280  1.3004
   89SAPS  H20S 8627   3.629   2.294   8.664  3.4412 -1.1560 -2.3121
   89SAPS  H20T 8628   3.758   2.412   8.631 -0.5384 -0.1203 -0.2196
   89SAPS   C33 8629   3.486   2.728   9.672 -0.3337 -0.2068  0.0662
   89SAPS   H3X 8630   3.425   2.819   9.692 -2.2293 -1.8788  2.5987
   89SAPS   H3Y 8631   3.412   2.645   9.683 -0.9625  0.2607 -0.5936
   89SAPS   C34 8632   3.529   2.733   9.523  0.4796  0.0338 -0.1162
   89SAPS   H4X 8633   3.578   2.635   9.503 -1.0706 -0.8870  0.4560
   89SAPS   H4Y 8634   3.611   2.807   9.509  1.8946 -1.9425 -3.3987
   89SAPS   C35 8635   3.417   2.760   9.430  0.5567 -0.3421  0.2905
   89SAPS   H5X 8636   3.374   2.860   9.447  2.6376  0.5941  0.3972
   89SAPS   H5Y 8637   3.327   2.704   9.464  0.5722  0.0500  1.0030
   89SAPS   C36 8638   3.433   2.730   9.281 -0.6567  0.8661  0.1938
   89SAPS   H6X 8639   3.477   2.632   9.253  2.2571  2.2902 -0.6766
   89SAPS   H6Y 8640   3.503   2.809   9.245  1.2472 -1.2476 -1.0342
   89SAPS   C37 8641   3.304   2.770   9.208 -0.0534  0.3246  0.0985
   89SAPS   H7X 8642   3.282   2.871   9.249  0.3265  0.0350  1.0593
   89SAPS   H7Y 8643   3.222   2.698   9.230 -0.0465 -1.0336 -3.6991
   89SAPS   C38 8644   3.324   2.786   9.060 -1.2649  0.3404 -0.9569
   89SAPS   H8X 8645   3.355   2.686   9.023  0.0394  1.0103 -1.7559
   89SAPS   H8Y 8646   3.411   2.852   9.037  0.3074 -1.4041 -0.2725
   89SAPS   C39 8647   3.199   2.827   8.985 -0.2643  0.0762  0.4031
   89SAPS   H9X 8648   3.126   2.743   8.982 -1.3115  0.9719 -0.2824
   89SAPS   H9Y 8649   3.233   2.835   8.880 -1.0925  0.2149  0.1370
   89SAPS  C310 8650   3.133   2.958   9.041  0.5003  0.1293 -1.0008
   89SAPS  H10X 8651   3.220   3.026   9.046  2.0902 -1.8972  0.3541
   89SAPS  H10Y 8652   3.079   2.948   9.137  2.3605 -2.3611 -0.0967
   89SAPS  C311 8653   3.056   3.034   8.941  0.7315 -0.4873 -0.1105
   89SAPS  H11X 8654   3.018   3.124   8.992  1.3104  1.4859 -2.9380
   89SAPS  H11Y 8655   2.972   2.969   8.906  0.8690 -1.1979  0.8445
   89SAPS  C312 8656   3.126   3.094   8.822  0.0331  0.5447  0.4267
   89SAPS  H12X 8657   3.167   3.007   8.766  1.8151  2.2221 -0.9974
   89SAPS  H12Y 8658   3.215   3.150   8.857  0.6576 -1.0299  1.4976
   89SAPS  C313 8659   3.047   3.191   8.724 -0.1710  0.7720 -0.1567
   89SAPS  H13X 8660   3.032   3.284   8.783 -3.8694  0.4652 -0.4185
   89SAPS  H13Y 8661   2.945   3.149   8.713 -0.6852  2.1085 -0.8258
   89SAPS  C314 8662   3.121   3.218   8.591  0.2366 -0.2857 -0.5309
   89SAPS  H14X 8663   3.226   3.240   8.621  0.1418 -1.7532  1.0382
   89SAPS  H14Y 8664   3.067   3.307   8.552 -0.3326 -0.8909 -1.1447
   89SAPS  C315 8665   3.111   3.099   8.495  0.2432 -0.9528  0.3653
   89SAPS  H15X 8666   3.005   3.067   8.505 -0.4241  0.2570 -2.1053
   89SAPS  H15Y 8667   3.177   3.013   8.515  0.4431 -0.3765  2.4720
   89SAPS  C316 8668   3.124   3.142   8.349  0.5976  0.4394  0.1608
   89SAPS  H16X 8669   3.229   3.173   8.335  0.8743 -0.5108  0.0194
   89SAPS  H16Y 8670   3.059   3.229   8.326 -1.5860 -1.3824 -0.9572
   89SAPS  C317 8671   3.098   3.019   8.254  0.4350 -0.4011  0.0530
   89SAPS  H17X 8672   2.996   2.982   8.278  0.3004  0.2319  0.4722
   89SAPS  H17Y 8673   3.174   2.942   8.276  1.6651 -0.7444 -4.3406
   89SAPS  C318 8674   3.114   3.038   8.102  0.4771  0.8049  0.2902
   89SAPS  H18X 8675   3.064   3.127   8.058  0.0536  0.5714  0.2882
   89SAPS  H18Y 8676   3.079   2.950   8.044 -2.5687  1.8983  0.2510
   89SAPS  H18Z 8677   3.216   3.067   8.072 -0.3015  1.4107 -1.9183
   90SAPS     N 8678   5.163   2.855  11.011 -0.3180 -0.5098  0.5233
   90SAPS   HN1 8679   5.197   2.890  10.919  1.9399  2.0922  2.1835
   90SAPS   HN2 8680   5.089   2.919  11.044  0.7770  0.5522  0.9837
   90SAPS   HN3 8681   5.241   2.847  11.080 -1.7763 -1.8943  2.0996
   90SAPS   C12 8682   5.110   2.716  10.984  0.0329  0.3369  0.4176
   90SAPS  H12A 8683   5.177   2.669  10.914  2.4671  1.9015  1.5723
   90SAPS   C13 8684   5.106   2.607  11.092 -0.1084 -0.0732 -0.3684
   90SAPS  O13A 8685   5.140   2.641  11.207 -0.4896 -0.2904  0.3616
   90SAPS  O13B 8686   5.073   2.490  11.066  0.3889  0.0343 -0.1214
   90SAPS   C11 8687   4.972   2.731  10.930  0.2322  0.9995 -1.1878
   90SAPS  H11A 8688   4.904   2.778  11.003  0.3898  2.4166 -1.9115
   90SAPS  H11B 8689   4.940   2.628  10.904  1.7462  0.0117  0.5789
   90SAPS     P 8690   4.842   2.834  10.736  0.1035  0.0217 -0.0826
   90SAPS   O13 8691   4.836   2.724  10.640 -0.2514  0.0914 -0.1445
   90SAPS   O14 8692   4.725   2.845  10.825  0.1732  0.1758 -0.4296
   90SAPS   O12 8693   4.976   2.813  10.820  0.2388  0.4459 -0.2425
   90SAPS   O11 8694   4.870   2.966  10.664  0.3395 -0.4219  0.5530
   90SAPS    C1 8695   5.001   2.998  10.615 -0.5807 -0.0094 -0.5697
   90SAPS    HA 8696   5.028   3.100  10.651 -0.8004  0.0348 -0.5292
   90SAPS    HB 8697   5.089   2.939  10.650 -0.0894  0.2718 -1.3046
   90SAPS    C2 8698   5.015   2.987  10.459  0.5578  0.7600  0.2533
   90SAPS    HS 8699   5.090   3.056  10.415 -0.4916  0.0597 -2.9244
   90SAPS   O21 8700   4.886   3.008  10.400 -0.0185  0.8743 -0.0666
   90SAPS   C21 8701   4.852   3.132  10.417 -0.4868 -1.2157 -0.4746
   90SAPS   O22 8702   4.932   3.224  10.431 -0.2895  0.5786  0.2840
   90SAPS   C22 8703   4.698   3.146  10.419 -0.7750 -0.6710  0.5714
   90SAPS   H2R 8704   4.641   3.062  10.371 -0.9283  0.8630 -2.1730
   90SAPS   H2S 8705   4.666   3.164  10.523  1.7740 -0.1548  1.3301
   90SAPS    C3 8706   5.075   2.843  10.422 -0.1036  0.4799 -0.1398
   90SAPS    HX 8707   5.004   2.767  10.458 -0.9213  1.3333  0.0875
   90SAPS    HY 8708   5.175   2.836  10.469 -0.9457 -0.5962  1.5540
   90SAPS   O31 8709   5.111   2.833  10.281  0.0099 -0.4962  0.0822
   90SAPS   C31 8710   5.018   2.804  10.191 -0.0989 -0.0220 -0.5531
   90SAPS   O32 8711   4.903   2.773  10.203  0.4476  0.0097 -0.7778
   90SAPS   C32 8712   5.080   2.832  10.053 -0.0611 -0.5818 -0.3552
   90SAPS   H2X 8713   5.012   2.795   9.973  0.5765 -2.6250 -0.0050
   90SAPS   H2Y 8714   5.178   2.780  10.052  0.5492  0.5199 -1.0115
   90SAPS   C23 8715   4.648   3.267  10.339 -0.6199  0.0681  0.3029
   90SAPS   H3R 8716   4.720   3.289  10.257 -1.0323 -1.2339 -0.4274
   90SAPS   H3S 8717   4.658   3.349  10.414  0.2592  0.2924 -0.0436
   90SAPS   C24 8718   4.504   3.261  10.282  0.3681 -0.4541 -0.3164
   90SAPS   H4R 8719   4.460   3.358  10.249 -1.8927 -1.4143 -0.2800
   90SAPS   H4S 8720   4.441   3.220  10.364  2.1117 -0.8970  0.8662
   90SAPS   C25 8721   4.481   3.167  10.167  0.1413  0.1554 -0.4667
   90SAPS   H5R 8722   4.491   3.060  10.190  0.0262  0.1418 -0.4843
   90SAPS   C26 8723   4.474   3.192  10.037 -0.4481 -0.0185  0.4799
   90SAPS   H6R 8724   4.467   3.104   9.972 -1.7581  0.5344 -0.1587
   90SAPS   C27 8725   4.476   3.324   9.963  0.3772 -0.0127 -0.1798
   90SAPS   H7R 8726   4.515   3.307   9.861 -0.4004 -0.2257 -0.4529
   90SAPS   H7S 8727   4.551   3.389  10.012  0.9989 -0.6079 -0.3311
   90SAPS   C28 8728   4.349   3.393   9.943  1.1149  0.0053  0.0234
   90SAPS   H8R 8729   4.320   3.459  10.027 -0.1285  1.0038 -1.1482
   90SAPS   C29 8730   4.271   3.407   9.833  0.2357 -0.3137  0.5899
   90SAPS   H9R 8731   4.174   3.459   9.841  0.0294 -0.4784 -0.6912
   90SAPS  C210 8732   4.304   3.349   9.694 -0.1933  0.3657  0.7035
   90SAPS  H10R 8733   4.360   3.254   9.704  0.7694  1.0824  2.7129
   90SAPS  H10S 8734   4.379   3.425   9.661 -2.2505  1.8255 -0.9463
   90SAPS  C211 8735   4.191   3.313   9.602 -0.3586  0.8393 -0.6961
   90SAPS  H11R 8736   4.099   3.284   9.655  1.1258  0.1222  1.6599
   90SAPS  C212 8737   4.188   3.335   9.473 -0.0734  0.0893 -0.2643
   90SAPS  H12R 8738   4.099   3.311   9.413 -1.9558  1.8678  1.6307
   90SAPS  C213 8739   4.296   3.384   9.384 -0.0087  0.2214 -0.0945
   90SAPS  H13R 8740   4.390   3.382   9.443  0.6989 -1.1853 -1.1963
   90SAPS  H13S 8741   4.289   3.486   9.340  1.8543  0.0918 -0.7803
   90SAPS  C214 8742   4.325   3.284   9.272 -0.2221  0.3667 -0.2092
   90SAPS  H14R 8743   4.409   3.215   9.292 -0.5109 -0.6906 -2.3201
   90SAPS  C215 8744   4.258   3.266   9.155  0.2622 -0.2687 -0.3666
   90SAPS  H15R 8745   4.296   3.191   9.084  1.3408  0.7836 -0.9515
   90SAPS  C216 8746   4.133   3.341   9.129 -0.2473 -0.2456  0.4562
   90SAPS  H16R 8747   4.108   3.420   9.203 -2.9751  0.6698 -1.2894
   90SAPS  H16S 8748   4.047   3.272   9.131 -1.3142  1.0632  1.2748
   90SAPS  C217 8749   4.140   3.393   8.990  0.1721 -0.1931  0.0712
   90SAPS  H17R 8750   4.130   3.316   8.911  0.5215  0.9484 -1.1319
   90SAPS  H17S 8751   4.238   3.442   8.974  0.7305 -0.9593  1.0340
   90SAPS  C218 8752   4.024   3.493   8.975  0.4979  0.0995  0.3589
   90SAPS  H18R 8753   4.070   3.591   8.950  0.5448  0.1225  0.5360
   90SAPS  H18S 8754   3.979   3.501   9.077  0.6051 -0.4720  0.4498
   90SAPS  C219 8755   3.916   3.456   8.875 -0.2868  0.9287 -0.5637
   90SAPS  H19R 8756   3.830   3.524   8.889 -0.9270  0.6086 -2.5309
   90SAPS  H19S 8757   3.877   3.354   8.899  0.8717  0.9502  1.6157
   90SAPS  C220 8758   3.959   3.458   8.732  0.0152  0.4450  0.3027
   90SAPS  H20R 8759   3.976   3.562   8.699 -0.7848  0.7734  0.8824
   90SAPS  H20S 8760   3.894   3.412   8.655  0.1127 -3.6460  2.3663
   90SAPS  H20T 8761   4.048   3.392   8.724 -1.3696 -1.5987  0.7749
   90SAPS   C33 8762   5.120   2.978  10.022  0.1380  0.3329  0.6429
   90SAPS   H3X 8763   5.176   3.033  10.101 -1.0507  1.7779  0.5274
   90SAPS   H3Y 8764   5.019   3.023  10.014 -1.2972 -2.7720 -0.0818
   90SAPS   C34 8765   5.198   2.997   9.891 -0.4082 -0.4994 -0.0139
   90SAPS   H4X 8766   5.299   2.953   9.901  0.7928  1.0602 -3.5523
   90SAPS   H4Y 8767   5.197   3.108   9.880 -3.2806 -0.4193  0.2814
   90SAPS   C35 8768   5.123   2.943   9.769  0.3427  0.1212 -0.9749
   90SAPS   H5X 8769   5.017   2.969   9.792  0.2430  0.7128 -2.0559
   90SAPS   H5Y 8770   5.136   2.832   9.768 -1.6796 -0.5219  4.6883
   90SAPS   C36 8771   5.170   2.998   9.641 -0.4860 -0.2484 -0.6050
   90SAPS   H6X 8772   5.281   2.993   9.644 -0.4845 -0.9561 -1.3238
   90SAPS   H6Y 8773   5.142   3.103   9.620 -0.3031 -0.2250 -0.7306
   90SAPS   C37 8774   5.110   2.913   9.526  0.2580  0.6236  0.3837
   90SAPS   H7X 8775   5.001   2.906   9.546  0.4078 -0.7856  0.8175
   90SAPS   H7Y 8776   5.144   2.808   9.532 -1.1029  0.0165 -1.6837
   90SAPS   C38 8777   5.120   2.968   9.384 -0.2453  0.0909 -0.4032
   90SAPS   H8X 8778   5.223   2.972   9.343  0.6936  0.7833  1.8401
   90SAPS   H8Y 8779   5.077   3.071   9.383 -2.0340 -0.6162 -1.0856
   90SAPS   C39 8780   5.041   2.881   9.286 -0.0638  0.4873 -0.0748
   90SAPS   H9X 8781   4.931   2.893   9.295  0.1083  0.8942  2.2257
   90SAPS   H9Y 8782   5.068   2.774   9.296 -1.8647 -0.0968 -1.0012
   90SAPS  C310 8783   5.072   2.923   9.137 -0.2010 -0.5141 -0.1010
   90SAPS  H10X 8784   5.176   2.890   9.117  0.5868  2.2796 -1.0589
   90SAPS  H10Y 8785   5.065   3.034   9.140  2.3657 -0.2163 -1.9284
   90SAPS  C311 8786   4.978   2.856   9.041 -0.3449  0.0093 -0.1006
   90SAPS  H11X 8787   4.884   2.908   9.067 -1.3034 -1.0667 -1.2884
   90SAPS  H11Y 8788   4.972   2.748   9.067 -0.2607 -0.5513 -2.2082
   90SAPS  C312 8789   5.020   2.874   8.899 -0.3907  0.0711 -0.6598
   90SAPS  H12X 8790   4.962   2.818   8.822 -0.2159  1.8998 -2.1907
   90SAPS  H12Y 8791   5.126   2.841   8.902  0.1291  1.3285 -2.8083
   90SAPS  C313 8792   5.007   3.022   8.852 -0.3188  0.1614 -0.7417
   90SAPS  H13X 8793   5.071   3.094   8.908  0.0823 -0.3537 -0.5414
   90SAPS  H13Y 8794   4.907   3.061   8.882 -0.2666  0.6457 -1.1896
   90SAPS  C314 8795   5.022   3.024   8.702  0.2191 -0.5145  0.2752
   90SAPS  H14X 8796   4.970   2.932   8.666 -2.9571  0.9363  0.8392
   90SAPS  H14Y 8797   5.131   3.017   8.682 -0.0740 -2.1100 -0.9595
   90SAPS  C315 8798   4.964   3.138   8.623  0.7046 -0.4843 -0.9479
   90SAPS  H15X 8799   5.028   3.227   8.644 -1.1673  1.3662 -2.6252
   90SAPS  H15Y 8800   4.864   3.179   8.650  2.0907  2.7697 -0.2745
   90SAPS  C316 8801   4.981   3.130   8.469 -0.4205 -1.0974  0.3262
   90SAPS  H16X 8802   4.931   3.037   8.432  1.6973 -1.7818 -1.0026
   90SAPS  H16Y 8803   5.089   3.109   8.454 -0.6689 -0.7709 -2.5123
   90SAPS  C317 8804   4.926   3.251   8.390 -0.5105 -0.1773 -0.2484
   90SAPS  H17X 8805   4.815   3.242   8.401 -0.2180 -3.8834  1.0746
   90SAPS  H17Y 8806   4.945   3.236   8.282 -0.1932 -0.7041 -0.1206
   90SAPS  C318 8807   4.982   3.391   8.437 -0.0500 -0.3902 -0.2898
   90SAPS  H18X 8808   4.954   3.466   8.360 -4.4333 -0.3155  1.0888
   90SAPS  H18Y 8809   5.092   3.390   8.448 -0.2498 -1.8342  2.3236
   90SAPS  H18Z 8810   4.932   3.417   8.533  1.4924 -1.2610  0.7938
   91SAPS     N 8811   0.283   6.429   6.203  0.1920  0.1813 -0.3811
   91SAPS   HN1 8812   0.215   6.372   6.150  0.9449  0.7973 -2.0925
   91SAPS   HN2 8813   0.382   6.401   6.186  0.3790 -0.5068  1.5829
   91SAPS   HN3 8814   0.262   6.393   6.298 -0.7720  2.7769  0.5064
   91SAPS   C12 8815   0.270   6.579   6.204  1.0068 -0.8623  0.1035
   91SAPS  H12A 8816   0.292   6.615   6.105  1.1121  0.0219  0.4324
   91SAPS   C13 8817   0.133   6.628   6.264 -0.0805 -0.7466  0.1048
   91SAPS  O13A 8818   0.051   6.553   6.314 -0.4857 -0.0005  0.2379
   91SAPS  O13B 8819   0.105   6.752   6.250  0.5067 -0.3912  0.0454
   91SAPS   C11 8820   0.387   6.635   6.294  0.2222  0.0251  0.0113
   91SAPS  H11A 8821   0.354   6.626   6.399 -0.6322  1.3552 -0.1098
   91SAPS  H11B 8822   0.397   6.745   6.279 -0.6917  0.1987  0.5820
   91SAPS     P 8823   0.645   6.629   6.292  0.2292 -0.0804 -0.0724
   91SAPS   O13 8824   0.746   6.547   6.221 -0.7264  0.1178 -0.4228
   91SAPS   O14 8825   0.639   6.775   6.254 -0.0410 -0.0281  0.0486
   91SAPS   O12 8826   0.502   6.561   6.277  0.3083  0.2100 -0.0244
   91SAPS   O11 8827   0.680   6.627   6.439 -0.1963 -0.1252  0.1736
   91SAPS    C1 8828   0.614   6.566   6.550  0.7206  0.0120 -0.2025
   91SAPS    HA 8829   0.540   6.638   6.593  0.3629  0.6075 -1.7295
   91SAPS    HB 8830   0.570   6.466   6.529  0.5382 -0.0435  0.4309
   91SAPS    C2 8831   0.709   6.554   6.672 -0.4270  0.2444  0.4648
   91SAPS    HS 8832   0.650   6.500   6.749  0.2527 -2.1729 -0.6365
   91SAPS   O21 8833   0.742   6.686   6.720 -1.1499 -0.4454 -0.0786
   91SAPS   C21 8834   0.760   6.715   6.850 -0.9159  0.1459 -0.0724
   91SAPS   O22 8835   0.722   6.653   6.945 -0.0724 -0.0532 -0.5476
   91SAPS   C22 8836   0.819   6.856   6.867  0.5993  0.2679  0.1923
   91SAPS   H2R 8837   0.920   6.848   6.820  0.4968  0.1367 -0.0115
   91SAPS   H2S 8838   0.760   6.931   6.811  0.9253 -0.2060 -0.8216
   91SAPS    C3 8839   0.837   6.484   6.634 -0.5609  0.3239  0.5533
   91SAPS    HX 8840   0.911   6.544   6.577  0.2651 -0.2814  0.9732
   91SAPS    HY 8841   0.813   6.404   6.561 -0.2004  0.8403 -0.1423
   91SAPS   O31 8842   0.896   6.426   6.758 -0.0822  0.2136 -0.0559
   91SAPS   C31 8843   0.996   6.491   6.821  0.2264  0.1115  0.2610
   91SAPS   O32 8844   1.060   6.583   6.772  0.4669 -0.0127 -0.4396
   91SAPS   C32 8845   1.017   6.431   6.959 -0.0960  0.4292 -0.8157
   91SAPS   H2X 8846   0.927   6.372   6.987  0.2780  0.8109  1.3458
   91SAPS   H2Y 8847   1.010   6.514   7.033 -3.3395 -0.3472 -0.1020
   91SAPS   C23 8848   0.840   6.903   7.015 -0.4271  0.1458  0.3621
   91SAPS   H3R 8849   0.750   6.870   7.072 -0.3235 -2.3544 -0.7824
   91SAPS   H3S 8850   0.855   7.013   7.016  1.1506 -0.0425  1.7023
   91SAPS   C24 8851   0.966   6.847   7.088 -0.2519 -0.4993 -0.1316
   91SAPS   H4R 8852   1.057   6.886   7.037  2.0089 -2.2114  2.3368
   91SAPS   H4S 8853   0.969   6.736   7.080 -2.0358 -0.5147 -1.0789
   91SAPS   C25 8854   0.968   6.883   7.235  0.1565 -0.0916 -0.2228
   91SAPS   H5R 8855   0.966   6.992   7.250 -0.5354 -0.1796  0.3324
   91SAPS   C26 8856   0.941   6.802   7.339  0.4316 -0.4468  0.4680
   91SAPS   H6R 8857   0.954   6.844   7.440  1.6452  1.3275 -0.3561
   91SAPS   C27 8858   0.909   6.658   7.344  0.8372  0.1303  0.0310
   91SAPS   H7R 8859   0.943   6.625   7.445  1.8816  0.9145 -0.0498
   91SAPS   H7S 8860   0.966   6.602   7.267 -0.0191  1.1305 -1.3674
   91SAPS   C28 8861   0.766   6.618   7.337 -0.2748 -0.2360  0.2897
   91SAPS   H8R 8862   0.747   6.544   7.258  2.3622 -0.3652 -0.3247
   91SAPS   C29 8863   0.666   6.651   7.415 -0.0468  0.1374 -0.1256
   91SAPS   H9R 8864   0.568   6.603   7.401  0.3144 -0.1982 -1.7345
   91SAPS  C210 8865   0.683   6.750   7.525  0.0508 -0.2305 -0.0186
   91SAPS  H10R 8866   0.725   6.842   7.479  0.6237 -0.9527 -0.9628
   91SAPS  H10S 8867   0.765   6.714   7.592  2.7176  1.3478 -2.2351
   91SAPS  C211 8868   0.545   6.773   7.595  0.1260 -0.4770 -0.8275
   91SAPS  H11R 8869   0.462   6.811   7.534 -1.2514  0.1255  1.3068
   91SAPS  C212 8870   0.525   6.754   7.728  0.3486 -0.0321  0.0012
   91SAPS  H12R 8871   0.431   6.787   7.774  1.0096  0.5283  0.9776
   91SAPS  C213 8872   0.626   6.687   7.821  0.0671 -0.0533 -0.3654
   91SAPS  H13R 8873   0.705   6.762   7.838 -0.4162  0.4692 -0.3777
   91SAPS  H13S 8874   0.667   6.602   7.762 -0.0719  0.5813 -1.4014
   91SAPS  C214 8875   0.579   6.637   7.952  0.0672  0.4177  0.1864
   91SAPS  H14R 8876   0.568   6.528   7.969  1.7006  0.4940  2.1720
   91SAPS  C215 8877   0.546   6.717   8.054  0.2375  0.3527 -0.4796
   91SAPS  H15R 8878   0.513   6.674   8.150  0.7087 -0.5824 -0.7215
   91SAPS  C216 8879   0.549   6.872   8.052 -0.0361 -0.1881 -0.0017
   91SAPS  H16R 8880   0.464   6.901   8.118 -2.7431 -2.8386 -2.0791
   91SAPS  H16S 8881   0.535   6.912   7.950 -1.3218 -0.8561 -0.1104
   91SAPS  C217 8882   0.673   6.937   8.101  0.6019  0.1897 -0.4391
   91SAPS  H17R 8883   0.756   6.909   8.032  0.6383 -0.1287 -0.2708
   91SAPS  H17S 8884   0.700   6.914   8.206 -0.4244  0.3426 -0.1390
   91SAPS  C218 8885   0.665   7.096   8.113 -0.5884  0.2960  0.6659
   91SAPS  H18R 8886   0.578   7.130   8.172 -0.1008 -1.1941  2.3035
   91SAPS  H18S 8887   0.666   7.139   8.010 -1.7060 -1.4423 -0.1093
   91SAPS  C219 8888   0.798   7.147   8.173  0.7829  0.8479 -0.3616
   91SAPS  H19R 8889   0.886   7.098   8.126  0.5731 -1.2196  1.2348
   91SAPS  H19S 8890   0.799   7.113   8.279  1.1247  0.6705 -0.4203
   91SAPS  C220 8891   0.807   7.299   8.179  0.8865  0.9848  0.5486
   91SAPS  H20R 8892   0.723   7.333   8.243 -0.8475  0.8864 -1.5549
   91SAPS  H20S 8893   0.772   7.337   8.081  0.3991  0.8537  0.6708
   91SAPS  H20T 8894   0.902   7.350   8.206  1.9139  0.5540 -2.0063
   91SAPS   C33 8895   1.153   6.349   6.974 -0.3547 -0.3951 -0.4228
   91SAPS   H3X 8896   1.184   6.299   6.881 -0.0800 -1.3478  0.1685
   91SAPS   H3Y 8897   1.154   6.272   7.054  2.8523  0.5250  0.5564
   91SAPS   C34 8898   1.277   6.438   6.999  0.4303 -0.5767 -0.4436
   91SAPS   H4X 8899   1.287   6.515   6.920  1.2954  1.5233  1.5946
   91SAPS   H4Y 8900   1.364   6.369   6.994  0.1500 -1.6902  4.4712
   91SAPS   C35 8901   1.284   6.503   7.137  0.5172  0.3797  0.3163
   91SAPS   H5X 8902   1.240   6.435   7.212 -1.2361 -0.2311 -1.1814
   91SAPS   H5Y 8903   1.217   6.592   7.146 -1.8428 -0.8111 -3.3307
   91SAPS   C36 8904   1.427   6.547   7.174 -0.5216  0.3468 -0.3363
   91SAPS   H6X 8905   1.446   6.648   7.134 -0.9751  0.6555  0.2109
   91SAPS   H6Y 8906   1.489   6.473   7.120 -0.5043  1.9607 -2.6391
   91SAPS   C37 8907   1.463   6.528   7.323  0.1084  0.7370 -0.0758
   91SAPS   H7X 8908   1.572   6.538   7.343  0.3535 -1.4763  0.0096
   91SAPS   H7Y 8909   1.435   6.423   7.345 -2.4415  1.0861 -1.3426
   91SAPS   C38 8910   1.376   6.611   7.412 -0.3683 -0.3389 -0.5526
   91SAPS   H8X 8911   1.272   6.582   7.385  0.6655 -3.0970 -1.9439
   91SAPS   H8Y 8912   1.398   6.716   7.385  0.4714  0.2009  2.0094
   91SAPS   C39 8913   1.407   6.595   7.566  0.1685  0.1176  0.6248
   91SAPS   H9X 8914   1.374   6.493   7.595 -0.5188  0.1017 -0.1719
   91SAPS   H9Y 8915   1.346   6.668   7.623  1.6855  0.7737  1.4714
   91SAPS  C310 8916   1.551   6.605   7.610 -0.4405 -0.2015  0.0261
   91SAPS  H10X 8917   1.595   6.700   7.572 -0.0922  0.0907  1.1233
   91SAPS  H10Y 8918   1.601   6.516   7.567 -1.2739  0.2397 -1.9606
   91SAPS  C311 8919   1.564   6.591   7.763  0.3609 -0.4514  0.2333
   91SAPS  H11X 8920   1.515   6.498   7.799  0.7265 -0.1642  1.5092
   91SAPS  H11Y 8921   1.519   6.677   7.817  0.8220 -0.3676  0.4819
   91SAPS  C312 8922   1.710   6.588   7.796 -0.2559  0.2987  0.7161
   91SAPS  H12X 8923   1.764   6.676   7.754  1.6571 -1.7202 -1.3266
   91SAPS  H12Y 8924   1.755   6.499   7.747 -1.9272 -0.1814 -0.0287
   91SAPS  C313 8925   1.722   6.584   7.947 -0.8893  0.6677  0.2949
   91SAPS  H13X 8926   1.826   6.550   7.969  0.2039  2.9560 -1.0021
   91SAPS  H13Y 8927   1.655   6.509   7.994  0.3902 -1.3799 -0.9908
   91SAPS  C314 8928   1.697   6.719   8.015 -0.1075 -0.1902 -0.0818
   91SAPS  H14X 8929   1.586   6.722   8.003 -0.4757 -3.8393  1.2026
   91SAPS  H14Y 8930   1.756   6.796   7.961  0.3626 -0.1727  0.4501
   91SAPS  C315 8931   1.733   6.709   8.162 -0.0060 -0.1651  0.3132
   91SAPS  H15X 8932   1.843   6.704   8.175  0.3125  0.0408 -1.8951
   91SAPS  H15Y 8933   1.687   6.620   8.210  0.4554 -0.1501  0.7838
   91SAPS  C316 8934   1.675   6.835   8.231 -0.5568 -0.3938 -0.1175
   91SAPS  H16X 8935   1.566   6.833   8.207 -0.7454  0.9822  0.5830
   91SAPS  H16Y 8936   1.722   6.930   8.199 -0.5252  0.2629  1.7546
   91SAPS  C317 8937   1.682   6.831   8.391 -1.0953 -0.5913  0.5454
   91SAPS  H17X 8938   1.787   6.838   8.426 -1.3252  2.3159  0.9451
   91SAPS  H17Y 8939   1.632   6.736   8.419 -1.2015 -0.5238  0.5864
   91SAPS  C318 8940   1.610   6.948   8.454  0.5602 -0.4679  0.2366
   91SAPS  H18X 8941   1.663   7.038   8.419  0.2423 -0.4395 -0.1714
   91SAPS  H18Y 8942   1.607   6.948   8.565  1.5393  1.9548  0.3263
   91SAPS  H18Z 8943   1.511   6.962   8.407  0.6622  0.6390  0.3412
   92SAPS     N 8944   2.457   6.220   6.136 -0.3479 -0.3535 -0.4351
   92SAPS   HN1 8945   2.504   6.301   6.090  3.1396  0.1538  3.4439
   92SAPS   HN2 8946   2.407   6.255   6.220 -0.7269 -2.0250  0.0703
   92SAPS   HN3 8947   2.540   6.169   6.170 -0.8104 -0.0184  1.2801
   92SAPS   C12 8948   2.370   6.141   6.051  0.6059  0.6913  0.3680
   92SAPS  H12A 8949   2.313   6.210   5.990  0.6470  0.6373  0.2672
   92SAPS   C13 8950   2.441   6.040   5.953 -0.7622 -0.8244  0.1629
   92SAPS  O13A 8951   2.564   6.051   5.941  0.8388  0.1747 -0.3769
   92SAPS  O13B 8952   2.378   5.950   5.889 -0.2374 -0.7796  0.3325
   92SAPS   C11 8953   2.271   6.065   6.142 -0.0267 -0.1302  0.4258
   92SAPS  H11A 8954   2.326   6.005   6.217  0.3056 -0.5775 -0.1662
   92SAPS  H11B 8955   2.230   5.982   6.080  0.0519 -0.9128  1.3974
   92SAPS     P 8956   2.165   6.204   6.341 -0.3206  0.4290 -0.1179
   92SAPS   O13 8957   2.282   6.294   6.354 -0.1499  0.0041  0.0148
   92SAPS   O14 8958   2.031   6.247   6.380 -0.1456  0.5572 -0.1217
   92SAPS   O12 8959   2.169   6.154   6.188 -0.2377  0.6840  0.1451
   92SAPS   O11 8960   2.208   6.072   6.427 -0.2896  0.4734 -0.1423
   92SAPS    C1 8961   2.114   5.964   6.444 -0.5954  0.0360 -0.0131
   92SAPS    HA 8962   2.017   5.983   6.393 -0.3637  2.0281  0.2044
   92SAPS    HB 8963   2.165   5.880   6.394 -0.8867 -0.9534  1.3046
   92SAPS    C2 8964   2.092   5.948   6.597 -0.0587  0.7492 -0.0282
   92SAPS    HS 8965   2.036   6.039   6.629  0.8239  2.0473 -1.9811
   92SAPS   O21 8966   2.221   5.941   6.653 -0.3500  0.2256 -0.2361
   92SAPS   C21 8967   2.236   6.004   6.772 -0.1142  0.1695 -0.0983
   92SAPS   O22 8968   2.146   6.054   6.834 -0.1406 -0.3301 -0.0173
   92SAPS   C22 8969   2.382   6.012   6.821  0.4292 -0.2376 -0.0839
   92SAPS   H2R 8970   2.405   5.904   6.833 -0.1708 -0.0852  3.4765
   92SAPS   H2S 8971   2.444   6.047   6.737  0.9513  0.0908  0.4340
   92SAPS    C3 8972   2.001   5.823   6.629 -0.4983 -0.1964  0.2595
   92SAPS    HX 8973   2.049   5.736   6.580 -1.0240 -0.3908  0.0832
   92SAPS    HY 8974   1.900   5.840   6.586 -0.2996 -2.7707 -1.4109
   92SAPS   O31 8975   1.997   5.782   6.766  0.7369  0.3865  0.1628
   92SAPS   C31 8976   1.915   5.858   6.841 -0.1027  0.5741  0.1525
   92SAPS   O32 8977   1.854   5.957   6.801  0.1682  0.4589 -0.6082
   92SAPS   C32 8978   1.924   5.812   6.989 -0.7251 -0.2542 -0.2809
   92SAPS   H2X 8979   1.962   5.708   6.995 -1.2029 -0.3419  2.1168
   92SAPS   H2Y 8980   1.820   5.808   7.027 -0.7908 -1.7794 -0.5440
   92SAPS   C23 8981   2.390   6.090   6.953 -0.3183  0.0713 -0.0657
   92SAPS   H3R 8982   2.346   6.037   7.040 -4.8415  1.9238 -0.9018
   92SAPS   H3S 8983   2.322   6.177   6.943  0.1537  0.6034  1.1658
   92SAPS   C24 8984   2.535   6.152   6.981  0.4888 -0.9406  0.0336
   92SAPS   H4R 8985   2.539   6.225   7.064  2.7203  0.2682 -1.0577
   92SAPS   H4S 8986   2.548   6.201   6.882  0.8222 -0.3675  0.3566
   92SAPS   C25 8987   2.634   6.046   7.012 -0.7929  0.4936  0.2394
   92SAPS   H5R 8988   2.656   5.981   6.926 -1.1846  0.0545  0.4668
   92SAPS   C26 8989   2.682   6.017   7.134 -0.1284  0.6095 -0.2774
   92SAPS   H6R 8990   2.761   5.942   7.141 -0.6817 -0.3647 -3.0250
   92SAPS   C27 8991   2.645   6.087   7.262 -0.1874  0.0913 -0.1431
   92SAPS   H7R 8992   2.551   6.145   7.254  0.4149  1.0104 -0.6390
   92SAPS   H7S 8993   2.720   6.163   7.291  1.1064 -1.3743  0.4774
   92SAPS   C28 8994   2.636   5.982   7.371  0.8164  0.4944 -0.0343
   92SAPS   H8R 8995   2.635   5.876   7.341  1.2017  0.9408 -1.7350
   92SAPS   C29 8996   2.610   6.006   7.500 -0.5269  0.1084 -0.1490
   92SAPS   H9R 8997   2.631   5.930   7.576  1.4251 -0.4803 -1.2001
   92SAPS  C210 8998   2.592   6.136   7.568 -0.1735 -0.4596 -0.1823
   92SAPS  H10R 8999   2.497   6.141   7.626 -0.6580 -3.3067 -0.5835
   92SAPS  H10S 9000   2.585   6.208   7.484 -1.3187 -2.6634 -2.0992
   92SAPS  C211 9001   2.711   6.172   7.643 -0.6004  1.0138 -0.4146
   92SAPS  H11R 9002   2.801   6.189   7.582  0.1688 -0.2696  0.2987
   92SAPS  C212 9003   2.718   6.157   7.772  0.0379 -0.6609 -0.2454
   92SAPS  H12R 9004   2.812   6.188   7.821  0.1000 -1.1337 -0.0593
   92SAPS  C213 9005   2.603   6.104   7.859  0.1427  0.9029 -0.0734
   92SAPS  H13R 9006   2.645   6.022   7.921 -1.4148  0.4964  0.4863
   92SAPS  H13S 9007   2.521   6.048   7.810 -2.0701  3.2900  0.6204
   92SAPS  C214 9008   2.562   6.210   7.948  0.8760  0.6878  0.3595
   92SAPS  H14R 9009   2.579   6.313   7.911  0.7262  0.1041 -1.4569
   92SAPS  C215 9010   2.521   6.190   8.077 -1.4404  0.2010  0.1266
   92SAPS  H15R 9011   2.484   6.268   8.145 -3.3054 -0.8738  0.4138
   92SAPS  C216 9012   2.503   6.055   8.140 -0.1995  0.1547 -0.0265
   92SAPS  H16R 9013   2.475   5.978   8.064 -2.0257  0.7453  0.0125
   92SAPS  H16S 9014   2.420   6.050   8.213 -0.7862  1.1099 -0.6117
   92SAPS  C217 9015   2.624   5.998   8.222 -0.0875  0.1502  0.7724
   92SAPS  H17R 9016   2.712   5.996   8.155 -1.1934  0.6803 -0.7576
   92SAPS  H17S 9017   2.594   5.894   8.244  0.3943 -0.1700 -0.0370
   92SAPS  C218 9018   2.660   6.083   8.349  0.8966 -0.0561  0.2056
   92SAPS  H18R 9019   2.704   6.176   8.308 -3.8818  1.7029 -1.7411
   92SAPS  H18S 9020   2.736   6.023   8.403 -0.3699 -0.5574  1.5245
   92SAPS  C219 9021   2.554   6.130   8.443 -0.1126 -0.8524 -0.2353
   92SAPS  H19R 9022   2.462   6.155   8.384  0.2633 -1.1631 -0.9622
   92SAPS  H19S 9023   2.595   6.217   8.500  2.5688 -1.6750 -0.7743
   92SAPS  C220 9024   2.505   6.025   8.541 -0.0443  0.4994  0.4229
   92SAPS  H20R 9025   2.591   5.987   8.600 -2.7178 -3.8205  2.0842
   92SAPS  H20S 9026   2.468   5.937   8.484 -1.3001  0.4297  1.2879
   92SAPS  H20T 9027   2.420   6.059   8.605  0.3330 -0.7114  1.6224
   92SAPS   C33 9028   2.009   5.905   7.079 -0.6879  0.1947 -0.2024
   92SAPS   H3X 9029   1.964   6.006   7.066  1.5472  1.0347 -2.1243
   92SAPS   H3Y 9030   2.115   5.908   7.046 -0.3365 -2.4693  0.4650
   92SAPS   C34 9031   2.025   5.855   7.223  0.0360  0.4588  0.1936
   92SAPS   H4X 9032   2.056   5.749   7.209  3.8386  1.0976  2.5658
   92SAPS   H4Y 9033   1.927   5.837   7.272  0.2491 -5.4523 -0.8564
   92SAPS   C35 9034   2.120   5.935   7.306  0.2051  0.1737  0.9053
   92SAPS   H5X 9035   2.102   6.043   7.290  1.9562  0.1108 -2.4398
   92SAPS   H5Y 9036   2.224   5.909   7.275 -0.3856 -0.3567 -0.7577
   92SAPS   C36 9037   2.117   5.910   7.461  0.1506  0.0550 -0.0448
   92SAPS   H6X 9038   2.133   5.800   7.463  2.6507  0.3842  0.4168
   92SAPS   H6Y 9039   2.021   5.945   7.505 -0.3128  0.0168 -1.0078
   92SAPS   C37 9040   2.233   5.970   7.542  0.2549 -0.7686  0.2007
   92SAPS   H7X 9041   2.223   6.080   7.534 -3.5459 -0.9532  0.7859
   92SAPS   H7Y 9042   2.328   5.946   7.488 -0.6703 -0.7947 -1.4766
   92SAPS   C38 9043   2.242   5.947   7.691  0.7959  0.0727 -0.2309
   92SAPS   H8X 9044   2.324   6.006   7.739  1.9751 -1.8426  0.2069
   92SAPS   H8Y 9045   2.269   5.840   7.703 -0.6995 -0.5336 -1.8732
   92SAPS   C39 9046   2.102   5.966   7.743 -0.8784  0.4301 -0.5898
   92SAPS   H9X 9047   2.032   5.884   7.717 -2.0140  1.4352 -0.7826
   92SAPS   H9Y 9048   2.052   6.052   7.694 -0.4947  0.7318 -0.4503
   92SAPS  C310 9049   2.114   5.994   7.896 -0.1117  0.2255  0.8181
   92SAPS  H10X 9050   2.162   6.094   7.909 -1.9649  1.1371  1.0471
   92SAPS  H10Y 9051   2.177   5.912   7.936  1.0850 -0.1134 -1.5546
   92SAPS  C311 9052   1.980   5.994   7.967  0.6967  0.8194 -0.3456
   92SAPS  H11X 9053   1.958   5.887   7.982 -1.5234  1.2920 -0.0012
   92SAPS  H11Y 9054   1.900   6.029   7.898  0.6522 -0.5387 -1.0138
   92SAPS  C312 9055   1.986   6.062   8.100  0.6063  0.4229  0.3692
   92SAPS  H12X 9056   1.887   6.099   8.134  0.4818  1.1094 -0.7243
   92SAPS  H12Y 9057   2.042   6.155   8.076  1.7301 -0.3045  0.0860
   92SAPS  C313 9058   2.049   5.983   8.217  0.0212 -0.6757  0.0109
   92SAPS  H13X 9059   2.154   5.960   8.188  0.4824 -2.1760  2.5810
   92SAPS  H13Y 9060   1.993   5.891   8.241  1.6009 -0.9346  3.1460
   92SAPS  C314 9061   2.070   6.078   8.334 -0.0173 -0.2538 -0.4075
   92SAPS  H14X 9062   2.133   6.161   8.295 -1.5156  0.8359 -0.6098
   92SAPS  H14Y 9063   2.129   6.027   8.413  0.4122  2.2779  1.0323
   92SAPS  C315 9064   1.942   6.128   8.398 -0.2740 -0.1534  0.1611
   92SAPS  H15X 9065   1.891   6.205   8.336 -1.6213 -1.2569 -0.1529
   92SAPS  H15Y 9066   1.971   6.183   8.491 -0.1528  0.1252 -0.0401
   92SAPS  C316 9067   1.833   6.020   8.415  0.4539  1.3509  0.4527
   92SAPS  H16X 9068   1.863   5.931   8.474  0.0275 -0.1681 -1.5158
   92SAPS  H16Y 9069   1.804   5.976   8.317 -2.9715  1.0772  1.4379
   92SAPS  C317 9070   1.705   6.082   8.465 -0.6453 -1.0599 -0.1732
   92SAPS  H17X 9071   1.630   6.000   8.476 -0.0933 -1.3638  1.7104
   92SAPS  H17Y 9072   1.676   6.160   8.392  1.3040 -0.1723 -0.0495
   92SAPS  C318 9073   1.713   6.143   8.603  0.1197 -0.2010 -0.3076
   92SAPS  H18X 9074   1.782   6.230   8.610  0.1538 -0.2042 -0.5801
   92SAPS  H18Y 9075   1.764   6.069   8.669  0.2256 -0.8290 -1.0787
   92SAPS  H18Z 9076   1.617   6.166   8.655 -0.0271 -2.0791  0.3310
   93SAPS     N 9077   1.954   5.213   6.234  0.0875 -0.1862 -0.0375
   93SAPS   HN1 9078   1.944   5.310   6.198 -2.3787 -0.8424 -1.3439
   93SAPS   HN2 9079   1.855   5.189   6.254 -0.1821  0.5189 -0.5127
   93SAPS   HN3 9080   2.016   5.220   6.317 -1.1479  1.1432  0.8177
   93SAPS   C12 9081   2.014   5.122   6.127  0.7434 -0.4249  0.2191
   93SAPS  H12A 9082   1.945   5.043   6.098 -0.4954  0.2982  1.0918
   93SAPS   C13 9083   2.043   5.204   5.996  0.2040  0.2426 -0.5799
   93SAPS  O13A 9084   2.006   5.327   5.992 -0.3994  0.2583  0.2015
   93SAPS  O13B 9085   2.116   5.149   5.911 -0.1745  0.1634 -0.0655
   93SAPS   C11 9086   2.150   5.069   6.194 -0.1668  0.3214  0.3007
   93SAPS  H11A 9087   2.195   5.015   6.108 -3.0373 -1.5168 -0.2048
   93SAPS  H11B 9088   2.116   4.992   6.267  0.6352  0.1489  0.4966
   93SAPS     P 9089   2.376   5.144   6.312 -0.0938 -0.6674  0.5365
   93SAPS   O13 9090   2.385   5.030   6.404  0.2142  0.1706 -0.3816
   93SAPS   O14 9091   2.453   5.127   6.188 -0.5314  0.5464 -0.1980
   93SAPS   O12 9092   2.228   5.168   6.259  0.1430 -0.4123  0.2163
   93SAPS   O11 9093   2.409   5.277   6.384  0.2042  0.1066 -0.3916
   93SAPS    C1 9094   2.303   5.343   6.447  0.4293 -0.2316 -0.2316
   93SAPS    HA 9095   2.246   5.410   6.379 -0.4857  0.2512  0.9770
   93SAPS    HB 9096   2.227   5.286   6.505 -1.8175  2.0515 -0.7399
   93SAPS    C2 9097   2.351   5.435   6.560  0.6256  0.5156  0.3462
   93SAPS    HS 9098   2.430   5.507   6.529  1.2964 -0.5527 -0.4852
   93SAPS   O21 9099   2.391   5.356   6.676  0.6722  0.4380  0.4060
   93SAPS   C21 9100   2.516   5.312   6.671 -0.2218  0.4169 -0.0232
   93SAPS   O22 9101   2.601   5.354   6.594  0.8575 -0.2830 -0.5731
   93SAPS   C22 9102   2.547   5.212   6.787  0.0156 -0.4544  0.1523
   93SAPS   H2R 9103   2.648   5.226   6.829 -0.4738 -1.5804  1.7880
   93SAPS   H2S 9104   2.478   5.240   6.869 -3.1910 -0.0758 -2.4577
   93SAPS    C3 9105   2.233   5.537   6.599 -0.7347 -0.1763 -0.3122
   93SAPS    HX 9106   2.212   5.591   6.504 -1.2581 -0.2717 -0.2581
   93SAPS    HY 9107   2.285   5.610   6.664  3.5710 -1.2933 -2.1259
   93SAPS   O31 9108   2.107   5.479   6.660  0.0946  0.0302 -0.0091
   93SAPS   C31 9109   2.119   5.459   6.789 -0.1869 -0.1749 -0.4848
   93SAPS   O32 9110   2.206   5.509   6.856  0.1848 -0.3924 -0.1080
   93SAPS   C32 9111   2.010   5.353   6.827 -0.6235 -0.5715  0.0012
   93SAPS   H2X 9112   2.026   5.259   6.769 -2.7932 -0.4939 -0.8174
   93SAPS   H2Y 9113   1.908   5.395   6.812  0.4163  1.0312 -3.3183
   93SAPS   C23 9114   2.526   5.068   6.758 -0.1737 -0.1744 -0.1758
   93SAPS   H3R 9115   2.577   5.043   6.663 -1.3154 -0.6389 -0.6925
   93SAPS   H3S 9116   2.416   5.066   6.738 -0.2586  0.9265  0.1501
   93SAPS   C24 9117   2.560   4.972   6.869 -0.3007 -0.5695  0.3834
   93SAPS   H4R 9118   2.553   4.878   6.811  2.5656  0.7445 -2.3703
   93SAPS   H4S 9119   2.479   4.968   6.945 -1.7186  2.0515 -0.8603
   93SAPS   C25 9120   2.697   4.991   6.926  0.6310  0.4442  0.0288
   93SAPS   H5R 9121   2.774   4.953   6.857  0.7937 -0.0117  0.4515
   93SAPS   C26 9122   2.736   5.050   7.044  0.4716  0.0212  0.2428
   93SAPS   H6R 9123   2.844   5.062   7.061  0.4329  1.2309 -0.2282
   93SAPS   C27 9124   2.648   5.127   7.142  0.0064  0.4007  0.3710
   93SAPS   H7R 9125   2.558   5.150   7.080 -0.1608  0.1402  0.5118
   93SAPS   H7S 9126   2.684   5.227   7.176 -0.8522  1.4262 -1.5650
   93SAPS   C28 9127   2.604   5.042   7.262 -0.3347 -0.6595 -0.3679
   93SAPS   H8R 9128   2.525   4.969   7.237 -0.6450  0.3764 -2.6706
   93SAPS   C29 9129   2.660   5.037   7.381  1.0249 -0.0310 -0.0464
   93SAPS   H9R 9130   2.614   4.967   7.451  0.8734  0.3562  0.2448
   93SAPS  C210 9131   2.774   5.121   7.432  0.7236 -0.1684  0.4887
   93SAPS  H10R 9132   2.728   5.194   7.501  1.8055  0.8207  0.1990
   93SAPS  H10S 9133   2.827   5.178   7.352  1.2367  2.0377  2.3072
   93SAPS  C211 9134   2.881   5.036   7.499  0.4391 -0.0810 -0.5351
   93SAPS  H11R 9135   2.943   4.972   7.434  2.0388 -0.2811  1.1016
   93SAPS  C212 9136   2.897   5.014   7.634  1.0942 -0.8570 -0.3646
   93SAPS  H12R 9137   2.981   4.951   7.668 -0.1359 -1.8970  0.8517
   93SAPS  C213 9138   2.802   5.070   7.749 -0.6324  0.7445 -0.4165
   93SAPS  H13R 9139   2.708   5.097   7.697 -0.5796 -0.1141 -0.9800
   93SAPS  H13S 9140   2.848   5.170   7.763  2.3964 -0.5635 -0.3608
   93SAPS  C214 9141   2.777   4.983   7.874 -0.1026 -0.1360  0.3101
   93SAPS  H14R 9142   2.756   4.879   7.846  0.4529  0.0573 -0.8848
   93SAPS  C215 9143   2.776   5.024   8.001 -0.7208 -0.0376  0.1102
   93SAPS  H15R 9144   2.779   4.947   8.079  2.1474 -0.0460  0.0959
   93SAPS  C216 9145   2.804   5.168   8.039  0.1586  0.4127  0.0206
   93SAPS  H16R 9146   2.716   5.235   8.028  0.5834  0.8815 -0.5991
   93SAPS  H16S 9147   2.890   5.205   7.978  0.2360 -0.9554 -0.7380
   93SAPS  C217 9148   2.834   5.189   8.196 -0.0711 -0.2041  0.3807
   93SAPS  H17R 9149   2.870   5.293   8.208 -1.9988  0.5948 -0.4378
   93SAPS  H17S 9150   2.923   5.125   8.218 -0.7886 -1.0752  0.8126
   93SAPS  C218 9151   2.703   5.169   8.268 -0.5050  0.4028 -0.2021
   93SAPS  H18R 9152   2.661   5.077   8.222 -1.3675  1.0910 -0.8167
   93SAPS  H18S 9153   2.637   5.257   8.256  1.4637  2.2555  1.7272
   93SAPS  C219 9154   2.718   5.154   8.417 -0.3193 -0.1147 -0.0404
   93SAPS  H19R 9155   2.622   5.162   8.473 -1.7049  0.1295 -2.3078
   93SAPS  H19S 9156   2.791   5.232   8.447 -0.9401  0.4469  0.0409
   93SAPS  C220 9157   2.770   5.012   8.454 -0.5080  0.6213 -0.1905
   93SAPS  H20R 9158   2.793   5.000   8.562  0.6523 -0.8600 -0.5602
   93SAPS  H20S 9159   2.858   4.982   8.393 -0.4613 -0.1197  0.2284
   93SAPS  H20T 9160   2.699   4.934   8.417 -1.2847  1.8983 -1.5177
   93SAPS   C33 9161   2.026   5.300   6.971  0.0257  0.0788 -0.2687
   93SAPS   H3X 9162   2.129   5.259   6.974  0.7607  1.6210 -2.1480
   93SAPS   H3Y 9163   1.954   5.216   6.985 -0.9153  1.1046  1.4268
   93SAPS   C34 9164   2.001   5.403   7.084 -0.0204 -0.8697 -0.3036
   93SAPS   H4X 9165   1.913   5.468   7.066  0.8889  0.3920 -0.3700
   93SAPS   H4Y 9166   2.088   5.473   7.081 -2.9900  3.1778 -0.6118
   93SAPS   C35 9167   1.984   5.339   7.224  0.4269 -0.5809 -0.3849
   93SAPS   H5X 9168   2.054   5.257   7.252  1.9460  1.6616  2.8767
   93SAPS   H5Y 9169   1.879   5.306   7.237  0.6508 -1.3097 -0.3713
   93SAPS   C36 9170   2.011   5.451   7.331 -0.3585 -0.7497  0.2181
   93SAPS   H6X 9171   1.938   5.532   7.310 -0.8205 -1.1722  0.1693
   93SAPS   H6Y 9172   2.112   5.490   7.308 -0.3211 -0.2932  1.1230
   93SAPS   C37 9173   2.007   5.405   7.473 -0.1227  0.5264  0.1844
   93SAPS   H7X 9174   2.091   5.333   7.482  0.8782  1.3468 -1.9283
   93SAPS   H7Y 9175   1.910   5.352   7.478  1.0342 -1.7978 -0.7299
   93SAPS   C38 9176   2.029   5.513   7.577  0.2806  0.1390 -0.5634
   93SAPS   H8X 9177   1.965   5.601   7.556  0.0646  0.2967  0.6662
   93SAPS   H8Y 9178   2.133   5.549   7.567  0.3106 -0.1962 -1.5734
   93SAPS   C39 9179   1.997   5.461   7.718  0.0342 -1.3174  0.0943
   93SAPS   H9X 9180   2.051   5.365   7.732 -1.4537 -2.4629 -1.5060
   93SAPS   H9Y 9181   1.888   5.450   7.736  0.0222  1.1721  2.0800
   93SAPS  C310 9182   2.049   5.565   7.823  0.0252 -0.0643 -0.2643
   93SAPS  H10X 9183   2.002   5.663   7.797 -1.3212 -0.4881  0.4695
   93SAPS  H10Y 9184   2.156   5.590   7.810 -0.8073  2.9721 -2.2500
   93SAPS  C311 9185   2.028   5.530   7.969  0.2134  0.3181  0.9724
   93SAPS  H11X 9186   2.071   5.428   7.979  0.6569 -0.2434 -4.0900
   93SAPS  H11Y 9187   1.919   5.539   7.989  0.1517  2.7312 -0.1525
   93SAPS  C312 9188   2.101   5.613   8.073  0.0155 -0.1167  0.5239
   93SAPS  H12X 9189   2.060   5.713   8.047  1.9070  0.4521 -0.4008
   93SAPS  H12Y 9190   2.211   5.609   8.059  0.2831  1.7005  1.6576
   93SAPS  C313 9191   2.080   5.566   8.212 -0.6978  0.5544  0.3844
   93SAPS  H13X 9192   2.089   5.456   8.226 -0.9842  0.7299  2.0526
   93SAPS  H13Y 9193   1.971   5.585   8.223 -0.6683  1.0678 -0.1424
   93SAPS  C314 9194   2.162   5.647   8.305 -0.2819 -0.2906  0.4525
   93SAPS  H14X 9195   2.124   5.751   8.299  1.9480  0.5615  0.3772
   93SAPS  H14Y 9196   2.271   5.654   8.284 -0.2879  2.0515  0.9279
   93SAPS  C315 9197   2.162   5.582   8.445 -0.0441  0.0476 -0.1818
   93SAPS  H15X 9198   2.209   5.482   8.436  0.3406  0.2299 -0.2248
   93SAPS  H15Y 9199   2.058   5.568   8.481 -0.1065  1.1083  0.0730
   93SAPS  C316 9200   2.242   5.663   8.549 -0.0166  0.4523  0.3369
   93SAPS  H16X 9201   2.184   5.757   8.564 -0.6430  0.0247  0.6434
   93SAPS  H16Y 9202   2.341   5.692   8.509  0.0167  0.1230  0.1774
   93SAPS  C317 9203   2.267   5.600   8.682  0.2738  0.0939 -0.7325
   93SAPS  H17X 9204   2.346   5.523   8.670 -1.3407 -1.6935 -0.3131
   93SAPS  H17Y 9205   2.177   5.553   8.727 -0.9503  2.3863 -0.6275
   93SAPS  C318 9206   2.313   5.690   8.788 -0.2632 -0.0270 -0.3228
   93SAPS  H18X 9207   2.247   5.773   8.824 -0.6640 -1.3959  2.4127
   93SAPS  H18Y 9208   2.402   5.744   8.750  0.2112 -0.0446  0.7235
   93SAPS  H18Z 9209   2.343   5.634   8.879  0.1883  1.0316  0.1982
   94SAPS     N 9210   2.118   1.422   5.943  0.1648 -0.7768  0.3617
   94SAPS   HN1 9211   2.145   1.350   6.013  3.6938  0.1401  0.1298
   94SAPS   HN2 9212   2.050   1.493   5.977  0.2052  0.0384 -1.1823
   94SAPS   HN3 9213   2.074   1.374   5.863 -1.0293  0.1418  0.4270
   94SAPS   C12 9214   2.248   1.488   5.908 -0.9328  1.2162 -0.3366
   94SAPS  H12A 9215   2.309   1.490   5.998  1.4254  0.1564 -1.8254
   94SAPS   C13 9216   2.306   1.408   5.794 -1.0682 -0.2349  0.5140
   94SAPS  O13A 9217   2.254   1.304   5.739 -0.7824  0.7058 -0.1457
   94SAPS  O13B 9218   2.414   1.462   5.744 -0.1755  0.0768  0.7979
   94SAPS   C11 9219   2.220   1.643   5.866 -0.4009 -0.4336 -0.3272
   94SAPS  H11A 9220   2.179   1.643   5.763  0.3886  1.3482 -0.6887
   94SAPS  H11B 9221   2.313   1.703   5.853 -0.2265 -0.4354  0.7900
   94SAPS     P 9222   2.087   1.854   5.954  0.3280 -0.3746 -0.4490
   94SAPS   O13 9223   2.164   1.929   5.857  0.3274 -0.2869 -0.5512
   94SAPS   O14 9224   1.938   1.864   5.942  0.2453  0.2792  0.3571
   94SAPS   O12 9225   2.127   1.706   5.958  0.2612 -0.0413 -0.1289
   94SAPS   O11 9226   2.135   1.912   6.093  0.3811  0.0637  0.2835
   94SAPS    C1 9227   2.060   1.888   6.213 -0.8224  0.0794 -0.3402
   94SAPS    HA 9228   2.026   1.782   6.213 -0.9090 -0.0451  3.7231
   94SAPS    HB 9229   2.120   1.894   6.306 -2.0288 -0.3197  0.4853
   94SAPS    C2 9230   1.942   1.992   6.221 -0.2517  0.5591 -0.2899
   94SAPS    HS 9231   1.881   1.981   6.129 -1.0324  0.3118  0.2467
   94SAPS   O21 9232   1.987   2.132   6.237  0.0496  0.5156 -0.0183
   94SAPS   C21 9233   1.888   2.219   6.226 -0.6997  0.6213  0.8257
   94SAPS   O22 9234   1.777   2.196   6.194  0.6418  0.3084 -0.3900
   94SAPS   C22 9235   1.950   2.355   6.254 -0.4002  0.1089 -0.2442
   94SAPS   H2R 9236   1.868   2.426   6.279  1.0256  2.0036 -0.7897
   94SAPS   H2S 9237   2.018   2.354   6.342 -1.8937  0.6942  0.9554
   94SAPS    C3 9238   1.854   1.952   6.345  0.3511  0.2316 -0.6513
   94SAPS    HX 9239   1.829   1.845   6.325 -1.3699  0.3245  0.7825
   94SAPS    HY 9240   1.753   1.998   6.344 -0.0117 -0.5036  0.4216
   94SAPS   O31 9241   1.923   1.955   6.477  0.3391  0.1590  0.7870
   94SAPS   C31 9242   1.901   2.073   6.538 -0.5331 -0.6136  0.4435
   94SAPS   O32 9243   1.832   2.160   6.494 -0.3584  0.5918 -0.0735
   94SAPS   C32 9244   1.995   2.086   6.655  0.1708  0.6191  0.8255
   94SAPS   H2X 9245   2.090   2.135   6.624  0.4447 -1.6407 -2.4328
   94SAPS   H2Y 9246   2.028   1.986   6.691 -1.1005 -0.2207 -0.2754
   94SAPS   C23 9247   2.031   2.415   6.130  1.1596  0.2860 -0.3547
   94SAPS   H3R 9248   1.967   2.397   6.041 -1.6451 -2.2243  1.9371
   94SAPS   H3S 9249   2.130   2.365   6.126  1.3440  0.5960  0.2407
   94SAPS   C24 9250   2.065   2.565   6.140 -0.4750  1.1236  0.5461
   94SAPS   H4R 9251   1.960   2.602   6.146 -1.1388  0.1388 -2.8537
   94SAPS   H4S 9252   2.109   2.603   6.045  0.0907  0.3928  0.5086
   94SAPS   C25 9253   2.157   2.601   6.255  0.0290  0.8018  0.1505
   94SAPS   H5R 9254   2.262   2.573   6.240  0.0914 -0.2487  2.2013
   94SAPS   C26 9255   2.126   2.655   6.373 -0.0299  0.4627  0.1017
   94SAPS   H6R 9256   2.210   2.700   6.428  0.9765  0.8737 -1.7091
   94SAPS   C27 9257   1.988   2.694   6.419  0.3430 -0.0190 -0.2507
   94SAPS   H7R 9258   1.922   2.608   6.446  1.0198 -0.6518 -0.5611
   94SAPS   H7S 9259   1.949   2.732   6.322  1.2846  1.4380 -0.0867
   94SAPS   C28 9260   1.973   2.794   6.531 -0.8065  0.0164  0.1860
   94SAPS   H8R 9261   1.896   2.870   6.514  0.4218  1.2374 -0.0858
   94SAPS   C29 9262   2.033   2.801   6.649  0.1357  0.4654  0.0447
   94SAPS   H9R 9263   2.003   2.891   6.704 -0.1581  1.6620 -1.9542
   94SAPS  C210 9264   2.142   2.710   6.708  0.0575 -0.9309 -0.0691
   94SAPS  H10R 9265   2.143   2.611   6.657  1.1221 -0.8940 -0.1499
   94SAPS  H10S 9266   2.121   2.692   6.815  2.4297  0.5514  0.7346
   94SAPS  C211 9267   2.276   2.776   6.686 -0.2915 -0.1404  0.2898
   94SAPS  H11R 9268   2.313   2.782   6.583  0.2616 -3.8767  0.1057
   94SAPS  C212 9269   2.350   2.834   6.784  0.1943  0.0379  0.0555
   94SAPS  H12R 9270   2.447   2.875   6.752 -0.4006  0.9539 -0.6417
   94SAPS  C213 9271   2.322   2.835   6.930 -0.6564 -0.6433 -0.1373
   94SAPS  H13R 9272   2.397   2.771   6.980 -0.7949 -0.4167  0.3787
   94SAPS  H13S 9273   2.225   2.784   6.950  0.7934 -3.6147 -0.2465
   94SAPS  C214 9274   2.321   2.978   6.984 -0.2286 -0.3501 -0.2623
   94SAPS  H14R 9275   2.321   3.061   6.912  0.0510 -0.0395  0.0888
   94SAPS  C215 9276   2.327   3.011   7.119  0.0510  0.0479  0.0229
   94SAPS  H15R 9277   2.299   3.112   7.153 -2.0723 -0.8370  1.1304
   94SAPS  C216 9278   2.334   2.918   7.236 -0.2263  0.1828 -0.0952
   94SAPS  H16R 9279   2.434   2.915   7.285 -1.0566 -3.6268  1.7382
   94SAPS  H16S 9280   2.319   2.817   7.192  0.6339  0.5211 -1.2241
   94SAPS  C217 9281   2.230   2.955   7.338  0.5905 -0.9944 -0.0197
   94SAPS  H17R 9282   2.126   2.959   7.301  1.6536  0.0304 -3.3108
   94SAPS  H17S 9283   2.247   3.060   7.372 -1.3671 -0.4074 -0.7558
   94SAPS  C218 9284   2.225   2.857   7.461  0.5273 -0.1027  0.2013
   94SAPS  H18R 9285   2.332   2.844   7.487  0.7563  0.4902 -0.4224
   94SAPS  H18S 9286   2.192   2.759   7.420 -2.3480 -0.3620  2.7759
   94SAPS  C219 9287   2.141   2.907   7.577 -0.2512 -0.0879  0.3596
   94SAPS  H19R 9288   2.104   2.828   7.645 -0.0230  1.3102  2.1886
   94SAPS  H19S 9289   2.048   2.952   7.536  0.9205  3.1218  0.8581
   94SAPS  C220 9290   2.210   3.012   7.662  0.0203 -0.0670  0.4547
   94SAPS  H20R 9291   2.224   3.103   7.599 -1.1245  0.2681  0.6581
   94SAPS  H20S 9292   2.307   2.971   7.698 -0.1963 -0.7547  0.2627
   94SAPS  H20T 9293   2.143   3.041   7.745 -1.7625 -1.5066 -0.4202
   94SAPS   C33 9294   1.930   2.161   6.774  0.3144  0.0886 -0.5764
   94SAPS   H3X 9295   1.835   2.110   6.798  0.1347  1.5200  2.1844
   94SAPS   H3Y 9296   1.903   2.263   6.737 -2.8548 -0.8640 -1.1518
   94SAPS   C34 9297   2.017   2.165   6.901 -0.5775  0.3404  0.4591
   94SAPS   H4X 9298   2.115   2.213   6.880  0.1534 -0.8647  1.0490
   94SAPS   H4Y 9299   2.045   2.059   6.915  2.3372  0.8489 -0.7207
   94SAPS   C35 9300   1.940   2.235   7.014 -0.6117 -0.1993  0.1185
   94SAPS   H5X 9301   1.910   2.330   6.965 -0.8265 -0.1498  0.3451
   94SAPS   H5Y 9302   2.007   2.262   7.099  3.0301 -0.7993 -2.2896
   94SAPS   C36 9303   1.825   2.152   7.073  0.3942 -0.1906 -0.3595
   94SAPS   H6X 9304   1.872   2.059   7.111  1.9311 -0.2347 -2.2272
   94SAPS   H6Y 9305   1.758   2.118   6.991  0.6355 -3.1818  0.5834
   94SAPS   C37 9306   1.748   2.234   7.177 -0.5939 -1.1509 -0.7231
   94SAPS   H7X 9307   1.658   2.181   7.215 -1.0456  0.1575  0.0671
   94SAPS   H7Y 9308   1.726   2.326   7.120  2.5667 -1.1509 -2.1850
   94SAPS   C38 9309   1.838   2.265   7.295  0.2817  1.0527  0.1548
   94SAPS   H8X 9310   1.922   2.333   7.270  1.3252  0.4044  1.7375
   94SAPS   H8Y 9311   1.869   2.167   7.337 -2.7860 -0.2337 -0.2878
   94SAPS   C39 9312   1.762   2.331   7.405 -0.0045  0.8159  0.1549
   94SAPS   H9X 9313   1.679   2.267   7.441  1.1180 -1.4945 -1.1825
   94SAPS   H9Y 9314   1.728   2.428   7.362  0.1690  0.6765 -0.2982
   94SAPS  C310 9315   1.852   2.371   7.523 -0.3963 -0.0050  0.1785
   94SAPS  H10X 9316   1.782   2.418   7.595  0.3697  1.2202  0.1415
   94SAPS  H10Y 9317   1.933   2.442   7.498 -1.0934  1.8443  2.7492
   94SAPS  C311 9318   1.900   2.260   7.622 -0.2078  0.1100 -0.4000
   94SAPS  H11X 9319   1.941   2.178   7.560 -0.0448  1.1281 -1.6629
   94SAPS  H11Y 9320   1.805   2.217   7.663  0.1922 -0.7259 -0.3230
   94SAPS  C312 9321   1.994   2.294   7.734 -0.3841 -0.0091 -0.0201
   94SAPS  H12X 9322   1.935   2.373   7.784 -0.3046 -1.6269  2.8027
   94SAPS  H12Y 9323   2.088   2.346   7.704  0.1084 -0.2227  1.1186
   94SAPS  C313 9324   2.035   2.181   7.832 -0.2611 -0.3060  0.4593
   94SAPS  H13X 9325   1.943   2.131   7.869 -0.5760 -0.1572 -0.1009
   94SAPS  H13Y 9326   2.082   2.232   7.919 -1.1759  1.9187 -0.2593
   94SAPS  C314 9327   2.136   2.080   7.776 -0.3428 -0.1036 -0.5359
   94SAPS  H14X 9328   2.224   2.138   7.741 -0.0431  0.0974  0.5378
   94SAPS  H14Y 9329   2.092   2.031   7.686 -0.9575  1.4137 -1.1041
   94SAPS  C315 9330   2.198   1.979   7.881  0.2387  0.0746  0.0017
   94SAPS  H15X 9331   2.113   1.937   7.938  1.0294  2.2216  3.0476
   94SAPS  H15Y 9332   2.259   2.030   7.959  0.4535 -2.8192  1.8548
   94SAPS  C316 9333   2.260   1.859   7.816 -0.2557  0.3295  0.3559
   94SAPS  H16X 9334   2.301   1.785   7.888 -1.3085  0.0216  0.6563
   94SAPS  H16Y 9335   2.345   1.896   7.754 -0.9619 -0.3421 -1.0703
   94SAPS  C317 9336   2.181   1.774   7.714 -0.2746  0.2410  0.0184
   94SAPS  H17X 9337   2.258   1.720   7.656  0.8738  1.2694  0.5264
   94SAPS  H17Y 9338   2.122   1.843   7.650 -1.5360  0.5338  1.4194
   94SAPS  C318 9339   2.097   1.660   7.773  0.6862  0.5218 -0.2085
   94SAPS  H18X 9340   2.148   1.610   7.858  2.8123  0.6762 -1.3191
   94SAPS  H18Y 9341   2.070   1.586   7.695  0.5504 -0.7786  1.0146
   94SAPS  H18Z 9342   2.000   1.706   7.803  1.4501  1.3957  0.9904
   95SAPS     N 9343   5.590   6.154   6.133 -0.6288  0.9624 -0.6213
   95SAPS   HN1 9344   5.578   6.055   6.161 -0.3834  0.4001 -2.3706
   95SAPS   HN2 9345   5.689   6.160   6.103 -0.2894  1.5324  0.5483
   95SAPS   HN3 9346   5.561   6.209   6.216 -2.2010 -2.8231  1.5750
   95SAPS   C12 9347   5.508   6.201   6.014  0.2289  0.0503 -0.5610
   95SAPS  H12A 9348   5.508   6.309   6.017  0.2360  0.0562  2.5069
   95SAPS   C13 9349   5.572   6.154   5.880 -0.6991 -0.0077 -0.5049
   95SAPS  O13A 9350   5.660   6.063   5.876  0.0792  0.0396  0.2825
   95SAPS  O13B 9351   5.528   6.209   5.778 -0.1001 -0.1318 -0.3618
   95SAPS   C11 9352   5.364   6.136   6.026 -0.4205 -0.4767 -0.1939
   95SAPS  H11A 9353   5.379   6.026   6.018  1.0524 -0.3374  0.3110
   95SAPS  H11B 9354   5.319   6.183   5.936  0.1369  2.3125  0.8761
   95SAPS     P 9355   5.194   6.068   6.205 -0.0937  0.1052  0.1758
   95SAPS   O13 9356   5.088   6.040   6.104  0.1748 -0.2982  0.0513
   95SAPS   O14 9357   5.262   5.948   6.258 -0.5602 -0.3063 -0.7539
   95SAPS   O12 9358   5.298   6.171   6.147  0.3140 -0.2391 -0.3189
   95SAPS   O11 9359   5.125   6.148   6.319 -0.5102 -0.2065 -0.0012
   95SAPS    C1 9360   5.217   6.219   6.406 -0.8253 -0.3390 -0.3036
   95SAPS    HA 9361   5.325   6.216   6.380 -0.7656 -2.4381  0.0328
   95SAPS    HB 9362   5.183   6.322   6.431  0.8168  0.6903 -2.0931
   95SAPS    C2 9363   5.219   6.155   6.551  0.4147  0.0912  0.0737
   95SAPS    HS 9364   5.251   6.049   6.539  2.2407  0.5135  0.7829
   95SAPS   O21 9365   5.086   6.163   6.601 -0.4715 -0.1848 -0.4520
   95SAPS   C21 9366   5.061   6.059   6.692  0.3166  0.1678  0.5337
   95SAPS   O22 9367   5.130   5.963   6.720  0.2111  0.0686  0.0808
   95SAPS   C22 9368   4.925   6.089   6.756  0.4051 -0.2498  0.2860
   95SAPS   H2R 9369   4.865   6.001   6.724  0.9663  0.1147 -1.9435
   95SAPS   H2S 9370   4.936   6.090   6.867 -0.9219 -0.1191  0.4310
   95SAPS    C3 9371   5.325   6.220   6.639  0.0367  0.0627  0.1404
   95SAPS    HX 9372   5.310   6.329   6.652  0.4913 -0.0402  1.9127
   95SAPS    HY 9373   5.424   6.215   6.589 -1.6933 -0.0085 -3.5714
   95SAPS   O31 9374   5.327   6.167   6.775 -0.1404  0.2949 -0.8444
   95SAPS   C31 9375   5.399   6.058   6.789 -0.6357 -0.2137 -0.8375
   95SAPS   O32 9376   5.446   5.994   6.698 -0.2765 -0.5184 -0.2550
   95SAPS   C32 9377   5.415   6.021   6.944 -0.3574 -0.3771  0.2601
   95SAPS   H2X 9378   5.350   6.084   7.008  0.9396 -0.1472  1.3956
   95SAPS   H2Y 9379   5.520   6.050   6.963 -0.2651 -0.8223  0.4584
   95SAPS   C23 9380   4.854   6.219   6.714 -0.3274 -0.2134 -0.0127
   95SAPS   H3R 9381   4.856   6.245   6.606 -0.0637 -0.6968 -0.1249
   95SAPS   H3S 9382   4.908   6.299   6.770 -2.5545  1.3841 -0.0495
   95SAPS   C24 9383   4.715   6.240   6.767  0.5375 -0.0128 -0.3114
   95SAPS   H4R 9384   4.713   6.221   6.877 -3.3028  0.4334 -0.1586
   95SAPS   H4S 9385   4.646   6.160   6.732  1.8190 -1.2455 -0.0870
   95SAPS   C25 9386   4.647   6.369   6.729 -0.7492  0.2658  0.7306
   95SAPS   H5R 9387   4.683   6.418   6.637  0.5029  3.0275  2.5446
   95SAPS   C26 9388   4.550   6.428   6.797  0.3323 -0.2915  0.0894
   95SAPS   H6R 9389   4.508   6.526   6.771  1.0117  0.0490  0.2471
   95SAPS   C27 9390   4.495   6.370   6.929 -0.5923  0.0213  0.6169
   95SAPS   H7R 9391   4.558   6.425   7.002  1.6847 -0.1377 -1.1115
   95SAPS   H7S 9392   4.500   6.260   6.945 -4.1447 -0.9586 -3.1489
   95SAPS   C28 9393   4.358   6.424   6.948  0.4168 -0.4374 -0.3616
   95SAPS   H8R 9394   4.288   6.417   6.864 -1.7087  2.0934  1.0300
   95SAPS   C29 9395   4.308   6.465   7.067 -0.4546  0.3894 -0.4618
   95SAPS   H9R 9396   4.201   6.491   7.062 -0.1482  1.5453 -1.6275
   95SAPS  C210 9397   4.367   6.482   7.200  0.4839  0.8787  0.8049
   95SAPS  H10R 9398   4.344   6.581   7.246 -1.6372  0.1681  1.3806
   95SAPS  H10S 9399   4.475   6.467   7.178 -0.0921 -1.3695 -0.8546
   95SAPS  C211 9400   4.321   6.373   7.286 -0.0139 -0.7338 -0.2275
   95SAPS  H11R 9401   4.241   6.306   7.251 -2.3814  0.4465  2.5579
   95SAPS  C212 9402   4.368   6.359   7.412 -0.3466  0.2938  0.3752
   95SAPS  H12R 9403   4.330   6.267   7.460 -0.2699 -1.0232 -1.9592
   95SAPS  C213 9404   4.469   6.451   7.481 -0.3944 -0.5636 -0.1928
   95SAPS  H13R 9405   4.512   6.521   7.406 -0.8449  1.4087  1.2925
   95SAPS  H13S 9406   4.558   6.402   7.526  0.4448  2.4091  1.6370
   95SAPS  C214 9407   4.398   6.533   7.587 -0.0205  0.2208 -0.0221
   95SAPS  H14R 9408   4.353   6.625   7.547  1.5546  0.8874 -0.2923
   95SAPS  C215 9409   4.397   6.517   7.722  0.8911 -0.5111  0.8037
   95SAPS  H15R 9410   4.352   6.597   7.782 -4.2364 -1.5876 -1.0559
   95SAPS  C216 9411   4.466   6.408   7.804 -0.1445 -0.4577 -0.0927
   95SAPS  H16R 9412   4.559   6.377   7.752 -0.3213 -1.2132  0.0194
   95SAPS  H16S 9413   4.403   6.316   7.796 -0.8451  0.0507 -0.6102
   95SAPS  C217 9414   4.502   6.445   7.949  0.4323  0.5041  0.1918
   95SAPS  H17R 9415   4.417   6.476   8.013 -0.8013  1.7489 -1.9652
   95SAPS  H17S 9416   4.580   6.524   7.949 -0.2130  1.1665 -1.5014
   95SAPS  C218 9417   4.549   6.314   8.027  0.0658 -0.4064 -0.8895
   95SAPS  H18R 9418   4.646   6.275   7.990  0.0239 -3.2897  1.5991
   95SAPS  H18S 9419   4.483   6.225   8.017  1.8391 -1.8522 -0.2821
   95SAPS  C219 9420   4.572   6.346   8.176  0.6285  0.1613 -0.5875
   95SAPS  H19R 9421   4.472   6.375   8.217 -1.2011  0.1325 -4.5205
   95SAPS  H19S 9422   4.641   6.432   8.168  0.1206  0.4139 -3.1629
   95SAPS  C220 9423   4.630   6.228   8.252  0.1452  0.4481  0.2665
   95SAPS  H20R 9424   4.554   6.154   8.285 -0.5245  1.3212  0.7166
   95SAPS  H20S 9425   4.679   6.270   8.343  1.1260  1.5664 -0.7270
   95SAPS  H20T 9426   4.711   6.181   8.192 -0.2872  0.0748 -0.0302
   95SAPS   C33 9427   5.394   5.871   6.970 -0.7020  0.2258 -0.0495
   95SAPS   H3X 9428   5.474   5.809   6.925 -0.2063 -1.1332  2.5314
   95SAPS   H3Y 9429   5.301   5.839   6.918 -1.9023  1.0352  1.5195
   95SAPS   C34 9430   5.375   5.839   7.114  0.1767 -0.2022  0.1458
   95SAPS   H4X 9431   5.340   5.734   7.125  2.1932 -0.7572  2.0150
   95SAPS   H4Y 9432   5.293   5.904   7.150  1.0398  1.4430 -0.7615
   95SAPS   C35 9433   5.505   5.850   7.205 -0.1187  0.4158 -0.3080
   95SAPS   H5X 9434   5.552   5.951   7.205  0.7199  0.0354 -0.3184
   95SAPS   H5Y 9435   5.585   5.790   7.157  0.6245  0.5235  0.7634
   95SAPS   C36 9436   5.479   5.805   7.351 -0.6603  0.0721 -0.4050
   95SAPS   H6X 9437   5.446   5.699   7.350 -1.4478  0.3004 -0.0021
   95SAPS   H6Y 9438   5.403   5.872   7.396  1.4080  1.7653  0.7658
   95SAPS   C37 9439   5.615   5.811   7.440  0.3398  0.1880  0.1159
   95SAPS   H7X 9440   5.630   5.918   7.468  0.9575 -0.4538  2.4538
   95SAPS   H7Y 9441   5.704   5.766   7.392  2.9071  1.8504  2.9403
   95SAPS   C38 9442   5.589   5.723   7.567 -0.2567  0.4809  0.1437
   95SAPS   H8X 9443   5.595   5.614   7.545  2.5270  0.1271  2.1236
   95SAPS   H8Y 9444   5.490   5.746   7.612 -0.7239 -0.4706 -0.3645
   95SAPS   C39 9445   5.701   5.752   7.672  0.8722  0.3989  0.5191
   95SAPS   H9X 9446   5.701   5.860   7.697 -2.1971  0.2149  1.7582
   95SAPS   H9Y 9447   5.802   5.711   7.647  0.5262  0.7229 -1.5533
   95SAPS  C310 9448   5.663   5.675   7.801  0.9180  0.3944  0.7374
   95SAPS  H10X 9449   5.653   5.566   7.786 -1.5393  0.2006  2.9910
   95SAPS  H10Y 9450   5.557   5.698   7.827  0.2612 -2.9737  1.4479
   95SAPS  C311 9451   5.743   5.712   7.927  1.1620 -0.2642 -0.8441
   95SAPS  H11X 9452   5.731   5.819   7.952 -0.2221  0.0603 -2.7293
   95SAPS  H11Y 9453   5.850   5.705   7.898  1.4544  0.0985  0.0811
   95SAPS  C312 9454   5.699   5.631   8.051  0.4796 -0.0212 -1.0711
   95SAPS  H12X 9455   5.700   5.522   8.029  1.9994 -0.1137 -0.6328
   95SAPS  H12Y 9456   5.595   5.653   8.085  0.5100 -1.0694 -0.2281
   95SAPS  C313 9457   5.769   5.674   8.182 -0.7215  0.5679  0.1294
   95SAPS  H13X 9458   5.746   5.777   8.214 -0.0192 -0.2499  3.6426
   95SAPS  H13Y 9459   5.880   5.675   8.183 -0.7186  0.3307  0.1805
   95SAPS  C314 9460   5.732   5.594   8.307  0.4155  0.1904 -0.1476
   95SAPS  H14X 9461   5.826   5.545   8.340 -0.5708 -0.7385  1.4068
   95SAPS  H14Y 9462   5.667   5.509   8.277  1.9383 -0.7386 -0.8927
   95SAPS  C315 9463   5.680   5.671   8.423 -0.2892 -0.1386  0.1149
   95SAPS  H15X 9464   5.588   5.728   8.397  0.1764  1.3828  1.6681
   95SAPS  H15Y 9465   5.754   5.751   8.443  1.9044 -2.0353  0.0277
   95SAPS  C316 9466   5.657   5.582   8.544 -0.1477 -0.3532 -0.5552
   95SAPS  H16X 9467   5.729   5.499   8.557  0.6025 -0.0846 -2.5962
   95SAPS  H16Y 9468   5.557   5.535   8.542 -0.0005 -1.3333  3.7659
   95SAPS  C317 9469   5.661   5.678   8.674 -0.1411  0.0626 -0.4121
   95SAPS  H17X 9470   5.748   5.747   8.665 -0.4265  0.6964  1.2392
   95SAPS  H17Y 9471   5.670   5.627   8.773 -0.6588 -0.3802 -0.5902
   95SAPS  C318 9472   5.538   5.762   8.695  0.8556  0.7822 -0.1016
   95SAPS  H18X 9473   5.442   5.711   8.671  0.3062  1.6144  0.2582
   95SAPS  H18Y 9474   5.545   5.854   8.632 -0.3242  1.3338  0.5269
   95SAPS  H18Z 9475   5.530   5.805   8.797  0.0093 -0.2216  0.2659
   96SAPS     N 9476   6.266   0.660   6.284 -0.4703  0.0527  0.5588
   96SAPS   HN1 9477   6.348   0.679   6.346  0.2218 -2.8451  0.6823
   96SAPS   HN2 9478   6.288   0.691   6.187 -1.6989 -1.1172 -0.1225
   96SAPS   HN3 9479   6.190   0.709   6.335 -1.6965  0.8948 -1.9367
   96SAPS   C12 9480   6.239   0.511   6.287 -0.2055  0.4111 -0.0388
   96SAPS  H12A 9481   6.195   0.482   6.382  0.7910  0.1413  0.3473
   96SAPS   C13 9482   6.147   0.467   6.174 -0.1729  0.3198 -0.0274
   96SAPS  O13A 9483   6.107   0.553   6.091 -0.0253 -0.1660  0.5119
   96SAPS  O13B 9484   6.128   0.343   6.159 -0.6751 -0.0679  0.6955
   96SAPS   C11 9485   6.367   0.425   6.266  0.8107 -0.1199  0.2316
   96SAPS  H11A 9486   6.391   0.414   6.158 -2.0653 -2.0698 -0.3221
   96SAPS  H11B 9487   6.338   0.320   6.288 -2.0675  0.9862  2.1788
   96SAPS     P 9488   6.626   0.480   6.292  0.1437  0.0282  0.1692
   96SAPS   O13 9489   6.689   0.351   6.250  0.2913 -0.1592 -0.6045
   96SAPS   O14 9490   6.635   0.578   6.183 -0.0675  0.1320 -0.1656
   96SAPS   O12 9491   6.478   0.456   6.338  0.1228 -0.1851 -0.3521
   96SAPS   O11 9492   6.703   0.537   6.411 -0.6257 -0.0879  0.2732
   96SAPS    C1 9493   6.705   0.464   6.537  0.3161  0.5296  0.4384
   96SAPS    HA 9494   6.653   0.367   6.526 -0.5132  0.9182  0.9025
   96SAPS    HB 9495   6.813   0.450   6.559  0.6117  2.3939  0.3230
   96SAPS    C2 9496   6.625   0.539   6.645  0.4418  0.0288 -0.6907
   96SAPS    HS 9497   6.527   0.567   6.600  0.4348  0.1264 -0.6153
   96SAPS   O21 9498   6.704   0.658   6.667 -0.1515 -0.2443 -0.3074
   96SAPS   C21 9499   6.637   0.753   6.729 -0.4281  0.4381 -0.8849
   96SAPS   O22 9500   6.521   0.750   6.749  1.0736  0.3760  0.2081
   96SAPS   C22 9501   6.736   0.863   6.779  0.2363 -0.5495 -0.3663
   96SAPS   H2R 9502   6.831   0.809   6.796  0.9450  0.7141 -0.2540
   96SAPS   H2S 9503   6.760   0.928   6.693  3.9748 -0.5955  0.5030
   96SAPS    C3 9504   6.610   0.457   6.779 -0.5602 -0.0603 -1.1981
   96SAPS    HX 9505   6.574   0.359   6.741 -1.3972  0.7312 -2.5397
   96SAPS    HY 9506   6.534   0.506   6.844  2.8437  0.5469  2.6472
   96SAPS   O31 9507   6.741   0.445   6.844  0.4540 -1.0917 -0.2694
   96SAPS   C31 9508   6.732   0.416   6.971 -0.0906  0.1757 -0.0642
   96SAPS   O32 9509   6.624   0.386   7.021 -0.4265 -0.1819 -0.6025
   96SAPS   C32 9510   6.873   0.381   7.024  0.4003 -0.6153  0.0137
   96SAPS   H2X 9511   6.935   0.471   7.002  2.2799 -1.7699  0.3856
   96SAPS   H2Y 9512   6.914   0.298   6.964  2.5287  1.7555 -2.0547
   96SAPS   C23 9513   6.680   0.932   6.906  0.0241 -1.2651  0.1687
   96SAPS   H3R 9514   6.653   0.870   6.995 -0.6555  0.6235  1.3282
   96SAPS   H3S 9515   6.591   0.996   6.886  1.1526  1.4714  3.0910
   96SAPS   C24 9516   6.784   1.032   6.970 -0.1536 -0.3375  0.4256
   96SAPS   H4R 9517   6.731   1.109   7.030  1.6317  1.4492 -0.1994
   96SAPS   H4S 9518   6.817   1.091   6.882  0.6706 -1.6214 -0.1441
   96SAPS   C25 9519   6.914   0.994   7.022 -0.1849  0.0509 -0.1938
   96SAPS   H5R 9520   6.990   0.981   6.943  1.4609 -2.1852  1.5770
   96SAPS   C26 9521   6.949   0.985   7.152 -0.4864  0.6058 -0.0555
   96SAPS   H6R 9522   7.042   0.934   7.182 -1.4940 -1.7446 -0.6998
   96SAPS   C27 9523   6.844   0.995   7.260  0.1945 -0.5888 -0.8971
   96SAPS   H7R 9524   6.776   1.079   7.235  1.2293  0.5636  0.0354
   96SAPS   H7S 9525   6.884   1.038   7.354 -0.8095  0.6189 -1.0014
   96SAPS   C28 9526   6.765   0.873   7.286 -0.0167  0.3429  0.3746
   96SAPS   H8R 9527   6.762   0.805   7.199 -0.1281 -0.3539  0.9159
   96SAPS   C29 9528   6.716   0.823   7.402  0.8129  0.1145 -0.1946
   96SAPS   H9R 9529   6.672   0.722   7.402  0.1691  0.3796  0.6963
   96SAPS  C210 9530   6.729   0.890   7.537  0.5449 -1.4040  0.3283
   96SAPS  H10R 9531   6.637   0.870   7.597 -0.9800  0.4951 -1.2315
   96SAPS  H10S 9532   6.722   0.999   7.517 -0.4502 -1.2203  1.5259
   96SAPS  C211 9533   6.855   0.860   7.613 -0.4686 -0.7407  0.2827
   96SAPS  H11R 9534   6.948   0.864   7.554 -0.9158  0.1719 -0.3791
   96SAPS  C212 9535   6.862   0.847   7.746 -0.2967 -0.5200  0.1161
   96SAPS  H12R 9536   6.963   0.823   7.784  1.1761  1.3554 -2.2946
   96SAPS  C213 9537   6.757   0.851   7.846  0.3951 -0.5775 -0.2471
   96SAPS  H13R 9538   6.688   0.767   7.827 -0.4778  0.2390 -0.7937
   96SAPS  H13S 9539   6.696   0.942   7.823 -0.6141 -0.4034  2.7249
   96SAPS  C214 9540   6.787   0.854   7.994  0.5318  0.4886 -0.6069
   96SAPS  H14R 9541   6.735   0.936   8.045  0.5536 -0.0213  0.2533
   96SAPS  C215 9542   6.875   0.774   8.060 -0.5035 -0.1073  0.5390
   96SAPS  H15R 9543   6.864   0.785   8.169  1.3594  1.9115  0.5708
   96SAPS  C216 9544   6.961   0.655   8.007  0.1843  0.1146  0.6038
   96SAPS  H16R 9545   6.949   0.648   7.897  1.0915  0.6311  0.4560
   96SAPS  H16S 9546   6.916   0.565   8.054 -1.6807  1.1613  0.9047
   96SAPS  C217 9547   7.109   0.669   8.035  0.2676  0.4655  0.4549
   96SAPS  H17R 9548   7.122   0.669   8.145 -0.2276 -2.6239  0.6165
   96SAPS  H17S 9549   7.137   0.764   7.983  0.7329  0.0003 -0.1784
   96SAPS  C218 9550   7.200   0.546   7.981 -0.2520  0.2394  0.6312
   96SAPS  H18R 9551   7.170   0.450   8.029  2.3230 -1.2946 -0.6542
   96SAPS  H18S 9552   7.308   0.557   8.004  0.3575 -3.8984  0.4980
   96SAPS  C219 9553   7.186   0.518   7.829  0.1951 -0.3413  0.5190
   96SAPS  H19R 9554   7.235   0.604   7.777  0.4074  0.0519  1.3451
   96SAPS  H19S 9555   7.081   0.532   7.796  0.2931  1.8840  0.9517
   96SAPS  C220 9556   7.230   0.379   7.779  0.2794 -0.0136  1.0460
   96SAPS  H20R 9557   7.144   0.314   7.806 -0.4911 -0.6163 -2.2966
   96SAPS  H20S 9558   7.327   0.362   7.831  1.2685  0.7707 -0.4499
   96SAPS  H20T 9559   7.232   0.368   7.668 -1.4410 -1.5020  1.1223
   96SAPS   C33 9560   6.868   0.351   7.174 -0.0166  0.1149 -0.0859
   96SAPS   H3X 9561   6.963   0.326   7.226 -0.4357  3.5740  2.8142
   96SAPS   H3Y 9562   6.793   0.274   7.203  2.3332 -2.0722  0.5332
   96SAPS   C34 9563   6.834   0.481   7.246 -0.3100 -0.2646 -0.4593
   96SAPS   H4X 9564   6.732   0.522   7.231  0.4827  1.5395 -1.1304
   96SAPS   H4Y 9565   6.913   0.550   7.210  0.3731 -0.1594  1.1271
   96SAPS   C35 9566   6.854   0.469   7.400 -0.3965  0.3161 -0.1522
   96SAPS   H5X 9567   6.801   0.555   7.448  0.3300  1.2713 -1.0307
   96SAPS   H5Y 9568   6.963   0.486   7.410 -0.1636  0.0428 -2.0088
   96SAPS   C36 9569   6.836   0.333   7.476  0.3676  0.9699  0.8319
   96SAPS   H6X 9570   6.899   0.255   7.429  1.4264  1.8950  0.6773
   96SAPS   H6Y 9571   6.734   0.292   7.457  0.7814 -0.6442  1.9466
   96SAPS   C37 9572   6.870   0.342   7.627  0.0531  0.1835 -0.4648
   96SAPS   H7X 9573   6.821   0.435   7.664 -1.5262 -0.0277 -1.9212
   96SAPS   H7Y 9574   6.979   0.347   7.646  0.0698 -2.2068  0.3974
   96SAPS   C38 9575   6.834   0.212   7.692 -0.5520  0.1048 -0.7495
   96SAPS   H8X 9576   6.888   0.128   7.644 -1.8428 -2.1972  1.5865
   96SAPS   H8Y 9577   6.726   0.190   7.678 -0.5255 -2.2772  2.0003
   96SAPS   C39 9578   6.850   0.211   7.846 -0.0038 -0.2978 -0.1157
   96SAPS   H9X 9579   6.957   0.213   7.874  0.2100 -0.5311 -0.9041
   96SAPS   H9Y 9580   6.798   0.115   7.867  0.8148 -0.9191 -0.8629
   96SAPS  C310 9581   6.785   0.331   7.914 -0.1188  0.5872  0.0179
   96SAPS  H10X 9582   6.696   0.354   7.851  0.0635 -0.4968 -0.6590
   96SAPS  H10Y 9583   6.849   0.423   7.916  0.3700  0.2434  2.2500
   96SAPS  C311 9584   6.741   0.297   8.053 -0.1660  0.0868  0.0760
   96SAPS  H11X 9585   6.653   0.230   8.041 -0.9943  0.9210  1.2647
   96SAPS  H11Y 9586   6.712   0.395   8.095  0.3812  0.0962  0.4405
   96SAPS  C312 9587   6.855   0.239   8.142  0.1859 -0.1380 -0.3406
   96SAPS  H12X 9588   6.939   0.311   8.135 -1.7431  2.1396 -1.3484
   96SAPS  H12Y 9589   6.881   0.140   8.099  1.8337 -0.3934  1.1521
   96SAPS  C313 9590   6.817   0.214   8.286  0.7437 -0.8223 -0.0985
   96SAPS  H13X 9591   6.906   0.182   8.344  1.0372 -0.5557 -0.4053
   96SAPS  H13Y 9592   6.745   0.129   8.288 -2.7551  1.8538 -1.4167
   96SAPS  C314 9593   6.751   0.342   8.364 -0.0273  0.0413  0.1216
   96SAPS  H14X 9594   6.696   0.319   8.458 -4.5055  4.7843 -0.8576
   96SAPS  H14Y 9595   6.668   0.391   8.309 -0.3542  0.0569  0.6272
   96SAPS  C315 9596   6.869   0.434   8.402 -1.2149 -0.1170 -0.0053
   96SAPS  H15X 9597   6.923   0.468   8.311  0.9305 -2.3279  0.3425
   96SAPS  H15Y 9598   6.937   0.374   8.466 -1.7505  0.2708  0.9567
   96SAPS  C316 9599   6.830   0.557   8.481 -0.0539  0.2993 -0.1861
   96SAPS  H16X 9600   6.767   0.529   8.569 -1.2503  0.4212 -0.9742
   96SAPS  H16Y 9601   6.760   0.616   8.418  0.6340  2.4063  0.9270
   96SAPS  C317 9602   6.943   0.658   8.524  0.0437 -0.6573 -0.0631
   96SAPS  H17X 9603   7.001   0.632   8.616 -0.6688  0.9436  0.8905
   96SAPS  H17Y 9604   6.896   0.754   8.555  2.1207  0.5107 -0.3960
   96SAPS  C318 9605   7.056   0.705   8.429  0.5338 -0.2623 -0.3744
   96SAPS  H18X 9606   7.110   0.785   8.483 -0.1475 -0.8912  1.3500
   96SAPS  H18Y 9607   7.013   0.749   8.337 -0.0563 -2.2603 -1.1133
   96SAPS  H18Z 9608   7.119   0.619   8.396 -2.1911 -1.8290 -1.8591
   97SAPS     N 9609   1.153   5.474   6.190  0.0467 -0.3034 -0.0505
   97SAPS   HN1 9610   1.086   5.511   6.261  2.1980  0.7278  1.5630
   97SAPS   HN2 9611   1.157   5.534   6.105  0.7263 -1.4739 -0.8751
   97SAPS   HN3 9612   1.125   5.380   6.156  2.1352 -1.0591  0.2138
   97SAPS   C12 9613   1.289   5.463   6.249 -0.1725 -0.4849 -0.1925
   97SAPS  H12A 9614   1.340   5.406   6.173  0.4738 -0.6441  0.3492
   97SAPS   C13 9615   1.364   5.597   6.277 -0.5558 -0.5907  0.6994
   97SAPS  O13A 9616   1.337   5.706   6.222  0.5094 -0.4528 -0.1588
   97SAPS  O13B 9617   1.483   5.572   6.307  0.1184 -0.2193 -0.8909
   97SAPS   C11 9618   1.279   5.388   6.384 -0.4309 -0.1572  0.2705
   97SAPS  H11A 9619   1.218   5.450   6.453  1.1499  0.0529  1.5481
   97SAPS  H11B 9620   1.376   5.381   6.439 -0.1680 -0.7128 -0.2454
   97SAPS     P 9621   1.299   5.133   6.359  0.0202 -0.3396  0.3363
   97SAPS   O13 9622   1.198   5.027   6.344  0.3000  0.2774 -0.0144
   97SAPS   O14 9623   1.406   5.142   6.255  0.3529 -0.0579  0.1859
   97SAPS   O12 9624   1.219   5.264   6.369  0.3199 -0.1418  0.3840
   97SAPS   O11 9625   1.373   5.121   6.502  0.1928 -1.2323 -0.8341
   97SAPS    C1 9626   1.300   5.093   6.625 -0.4476  0.2169 -0.7091
   97SAPS    HA 9627   1.192   5.117   6.616 -0.4353  0.5668 -0.0218
   97SAPS    HB 9628   1.317   4.986   6.649  0.8069  0.2053 -1.5669
   97SAPS    C2 9629   1.373   5.169   6.736 -0.0776 -0.3327 -0.3472
   97SAPS    HS 9630   1.481   5.141   6.735  0.0107 -0.0036 -0.3986
   97SAPS   O21 9631   1.308   5.155   6.865 -0.2152 -0.5276  0.3656
   97SAPS   C21 9632   1.343   5.041   6.923  0.3357 -0.4521  0.0219
   97SAPS   O22 9633   1.410   4.952   6.876 -0.0747  0.1895 -0.0996
   97SAPS   C22 9634   1.270   5.016   7.053 -0.1797 -0.6461 -0.1802
   97SAPS   H2R 9635   1.175   5.072   7.051 -1.7571 -3.0883 -3.2050
   97SAPS   H2S 9636   1.241   4.908   7.049 -0.7582 -0.4632 -1.6210
   97SAPS    C3 9637   1.386   5.319   6.711 -0.1957 -0.8770  0.3696
   97SAPS    HX 9638   1.282   5.349   6.686  0.0366 -0.2971  0.0620
   97SAPS    HY 9639   1.457   5.349   6.630  0.2741  0.4857  1.2454
   97SAPS   O31 9640   1.425   5.390   6.841  0.3432 -0.1729 -0.2536
   97SAPS   C31 9641   1.550   5.374   6.884 -0.5145  0.1664 -0.5991
   97SAPS   O32 9642   1.642   5.329   6.820 -0.3018 -0.0340  0.4114
   97SAPS   C32 9643   1.557   5.406   7.034  0.1814  0.1901  0.1610
   97SAPS   H2X 9644   1.627   5.335   7.083  2.6391  2.2159 -0.1547
   97SAPS   H2Y 9645   1.458   5.387   7.079  0.6244 -1.6073  0.4622
   97SAPS   C23 9646   1.363   5.022   7.182  0.6602  0.2040  0.3614
   97SAPS   H3R 9647   1.398   5.127   7.173  1.7229 -0.2343 -0.8759
   97SAPS   H3S 9648   1.452   4.956   7.194  1.1558  0.4082 -1.8051
   97SAPS   C24 9649   1.282   5.014   7.311 -0.2137 -0.1782  0.0634
   97SAPS   H4R 9650   1.247   4.913   7.341 -0.1737 -0.1612  0.1671
   97SAPS   H4S 9651   1.204   5.093   7.304  1.0071  0.8938 -2.4848
   97SAPS   C25 9652   1.366   5.056   7.429  0.1572  0.1932  0.4481
   97SAPS   H5R 9653   1.442   4.989   7.473 -1.3932 -0.2518  2.6022
   97SAPS   C26 9654   1.362   5.178   7.493 -0.0594  0.1192 -0.5235
   97SAPS   H6R 9655   1.430   5.191   7.578  1.8237 -1.1211 -1.7847
   97SAPS   C27 9656   1.273   5.297   7.460  0.1447  0.5973 -0.4632
   97SAPS   H7R 9657   1.282   5.301   7.349  2.3845  1.0748 -0.3047
   97SAPS   H7S 9658   1.327   5.387   7.498  1.4411 -1.6528  3.6197
   97SAPS   C28 9659   1.122   5.285   7.501 -0.3201 -0.1756  1.0341
   97SAPS   H8R 9660   1.046   5.273   7.422  0.6583 -1.1574  0.1985
   97SAPS   C29 9661   1.063   5.290   7.622 -0.0293 -0.2608 -0.7187
   97SAPS   H9R 9662   0.955   5.288   7.643  0.2705  1.1698  1.2206
   97SAPS  C210 9663   1.138   5.291   7.747 -0.1712  0.1566 -0.1604
   97SAPS  H10R 9664   1.226   5.222   7.745  0.4027  0.8543  0.2311
   97SAPS  H10S 9665   1.077   5.249   7.830 -1.7680  1.2540 -0.7352
   97SAPS  C211 9666   1.196   5.422   7.792 -0.2439 -0.5890  0.8376
   97SAPS  H11R 9667   1.242   5.475   7.707 -0.3641  0.3348  1.3444
   97SAPS  C212 9668   1.205   5.469   7.921 -0.6776  0.5099 -0.4970
   97SAPS  H12R 9669   1.256   5.564   7.941  0.8081 -0.4912  0.7668
   97SAPS  C213 9670   1.172   5.399   8.051 -0.0530  0.3378 -0.0929
   97SAPS  H13R 9671   1.259   5.342   8.089 -0.4221 -1.1242 -1.3184
   97SAPS  H13S 9672   1.102   5.315   8.032  1.3573 -1.3241  1.6071
   97SAPS  C214 9673   1.109   5.491   8.156  0.4050 -0.4616  0.7695
   97SAPS  H14R 9674   1.090   5.592   8.118  4.4796 -0.1555 -1.0335
   97SAPS  C215 9675   1.100   5.472   8.284  0.8709  0.2349 -0.0277
   97SAPS  H15R 9676   1.057   5.546   8.352  2.6555  1.9230 -0.6598
   97SAPS  C216 9677   1.147   5.356   8.368 -0.2161  0.0039 -0.2463
   97SAPS  H16R 9678   1.222   5.298   8.310  1.4285  1.6066  0.1665
   97SAPS  H16S 9679   1.059   5.298   8.404 -2.1080  3.6694  1.6036
   97SAPS  C217 9680   1.227   5.411   8.491  0.3099  0.0444 -0.5254
   97SAPS  H17R 9681   1.163   5.477   8.554 -1.2397 -2.5160  0.7595
   97SAPS  H17S 9682   1.316   5.469   8.459  0.4443  0.4109  0.4765
   97SAPS  C218 9683   1.252   5.292   8.590 -0.0425  0.2005 -0.1726
   97SAPS  H18R 9684   1.172   5.214   8.597  2.4483 -2.4604  0.7497
   97SAPS  H18S 9685   1.260   5.341   8.690  0.6465 -2.1169  0.9835
   97SAPS  C219 9686   1.376   5.213   8.566 -0.2745  0.2691  0.1241
   97SAPS  H19R 9687   1.369   5.158   8.470 -1.4239  0.6292 -0.0141
   97SAPS  H19S 9688   1.389   5.143   8.651 -0.3487 -0.9203 -0.8083
   97SAPS  C220 9689   1.490   5.306   8.555  0.2719 -0.1234  0.1062
   97SAPS  H20R 9690   1.476   5.404   8.604  3.8029  1.1657 -1.1873
   97SAPS  H20S 9691   1.508   5.330   8.448  0.3806  2.1318  0.5813
   97SAPS  H20T 9692   1.582   5.260   8.597 -1.2154 -1.3539  2.1949
   97SAPS   C33 9693   1.603   5.554   7.055 -0.3309  0.0845  0.2321
   97SAPS   H3X 9694   1.508   5.612   7.055 -0.7784 -0.6333  0.4458
   97SAPS   H3Y 9695   1.667   5.591   6.972 -0.4214  0.9674  0.5409
   97SAPS   C34 9696   1.679   5.589   7.186 -0.3382 -0.2337 -0.8865
   97SAPS   H4X 9697   1.685   5.700   7.190 -0.4390 -0.0749 -3.4662
   97SAPS   H4Y 9698   1.782   5.549   7.181  0.1653  1.0565 -1.1554
   97SAPS   C35 9699   1.620   5.536   7.319  0.0512 -0.3740 -0.0397
   97SAPS   H5X 9700   1.605   5.427   7.329  0.4239 -0.5859 -1.5964
   97SAPS   H5Y 9701   1.518   5.579   7.318  0.9269  1.9414  1.0902
   97SAPS   C36 9702   1.679   5.587   7.450 -0.0370  0.0017  0.6617
   97SAPS   H6X 9703   1.718   5.690   7.435  2.0200 -0.8721 -0.3953
   97SAPS   H6Y 9704   1.774   5.534   7.474  0.9181  1.9178  1.3735
   97SAPS   C37 9705   1.589   5.566   7.575 -0.0445  0.1348  0.0725
   97SAPS   H7X 9706   1.566   5.459   7.595  0.4854  0.0981  0.5015
   97SAPS   H7Y 9707   1.497   5.629   7.568  0.4768  0.9358  0.3561
   97SAPS   C38 9708   1.657   5.630   7.693  0.5331 -0.0104  0.3621
   97SAPS   H8X 9709   1.666   5.737   7.664  0.2526 -0.2702 -0.7327
   97SAPS   H8Y 9710   1.758   5.588   7.712  0.1713 -0.9155  0.3294
   97SAPS   C39 9711   1.570   5.631   7.816  0.9169 -0.4926  0.3228
   97SAPS   H9X 9712   1.545   5.530   7.857  0.4285 -0.9545 -1.0519
   97SAPS   H9Y 9713   1.471   5.664   7.778  1.3103 -0.7073 -0.9438
   97SAPS  C310 9714   1.633   5.730   7.920  0.4696 -0.7506 -0.1231
   97SAPS  H10X 9715   1.590   5.830   7.901  0.8817 -0.8286 -1.5602
   97SAPS  H10Y 9716   1.740   5.733   7.889  0.2379 -2.2555 -1.1784
   97SAPS  C311 9717   1.609   5.681   8.056 -0.2814 -0.3170  0.5573
   97SAPS  H11X 9718   1.622   5.570   8.059 -0.2987 -0.3206  0.4992
   97SAPS  H11Y 9719   1.499   5.695   8.071  0.2805  3.2399  2.3376
   97SAPS  C312 9720   1.706   5.752   8.157  0.1800 -0.1900 -0.6048
   97SAPS  H12X 9721   1.685   5.860   8.146 -0.0322  0.0002  1.3584
   97SAPS  H12Y 9722   1.813   5.745   8.128  0.9699 -1.0521  2.1520
   97SAPS  C313 9723   1.675   5.714   8.305 -0.2030 -0.0634  0.2652
   97SAPS  H13X 9724   1.759   5.750   8.368 -0.2507 -0.5076  0.5900
   97SAPS  H13Y 9725   1.680   5.604   8.322  2.5259  0.1418  1.3711
   97SAPS  C314 9726   1.537   5.751   8.355 -0.4851 -0.3366  0.0382
   97SAPS  H14X 9727   1.464   5.694   8.293  2.0182 -0.0789 -3.4864
   97SAPS  H14Y 9728   1.508   5.855   8.328  3.4468  0.4249 -2.0596
   97SAPS  C315 9729   1.511   5.718   8.500 -0.0588 -0.6619 -0.0259
   97SAPS  H15X 9730   1.581   5.773   8.566 -0.0784 -0.3811 -0.2374
   97SAPS  H15Y 9731   1.526   5.608   8.511  0.8220 -0.5464 -0.0588
   97SAPS  C316 9732   1.365   5.748   8.542  0.0144  0.5168 -0.1629
   97SAPS  H16X 9733   1.291   5.705   8.472  0.4453  2.2254 -1.7845
   97SAPS  H16Y 9734   1.340   5.857   8.546 -0.0980  0.4673  0.6221
   97SAPS  C317 9735   1.335   5.695   8.682 -0.0306 -0.3303 -0.5103
   97SAPS  H17X 9736   1.394   5.602   8.697  0.1002  0.1307  2.3249
   97SAPS  H17Y 9737   1.228   5.667   8.689 -0.1906  0.4598  0.4531
   97SAPS  C318 9738   1.353   5.797   8.795  0.6758  0.4326  0.2380
   97SAPS  H18X 9739   1.425   5.875   8.763 -0.6110  1.0127 -1.3729
   97SAPS  H18Y 9740   1.375   5.757   8.896  0.4204 -2.0855 -0.6281
   97SAPS  H18Z 9741   1.267   5.866   8.807 -0.0797 -0.6045  0.9777
   98SAPS     N 9742   4.276   0.642   5.904 -0.2878 -0.0856 -0.0487
   98SAPS   HN1 9743   4.307   0.715   5.971  0.7944 -0.6335  0.0713
   98SAPS   HN2 9744   4.345   0.564   5.911 -0.8687 -0.6124 -0.1476
   98SAPS   HN3 9745   4.276   0.675   5.805  0.8692  2.4178  0.7175
   98SAPS   C12 9746   4.143   0.588   5.939 -0.4988 -0.5980  1.0410
   98SAPS  H12A 9747   4.130   0.597   6.045 -0.0751 -0.1405  1.0604
   98SAPS   C13 9748   4.018   0.666   5.878  0.0077 -0.3477 -0.8720
   98SAPS  O13A 9749   4.038   0.757   5.796  0.8958 -0.5519  0.3947
   98SAPS  O13B 9750   3.908   0.638   5.926  0.3667  0.8414  0.5972
   98SAPS   C11 9751   4.124   0.441   5.887 -1.0643  0.3719  0.3172
   98SAPS  H11A 9752   4.143   0.446   5.778 -0.5658  2.6877  0.4795
   98SAPS  H11B 9753   4.018   0.411   5.904 -0.5575 -0.0856  3.3150
   98SAPS     P 9754   4.188   0.254   6.073  0.0213 -0.3541  0.2072
   98SAPS   O13 9755   4.092   0.152   6.032  0.4549  0.1345 -0.1870
   98SAPS   O14 9756   4.316   0.206   6.126  0.1100 -0.1266 -0.3284
   98SAPS   O12 9757   4.218   0.351   5.948 -0.2760  0.0220 -0.1225
   98SAPS   O11 9758   4.117   0.354   6.171 -0.0992 -0.1882 -0.1350
   98SAPS    C1 9759   4.200   0.428   6.259 -0.4636 -0.1119  0.7260
   98SAPS    HA 9760   4.291   0.480   6.221 -0.7512  3.0257  3.8013
   98SAPS    HB 9761   4.128   0.508   6.288 -1.2789 -0.8747  0.8407
   98SAPS    C2 9762   4.249   0.362   6.395 -0.0762 -0.7057  0.9901
   98SAPS    HS 9763   4.311   0.277   6.361  0.1862 -0.5473  1.0707
   98SAPS   O21 9764   4.125   0.328   6.457 -0.2836  0.5431 -0.0784
   98SAPS   C21 9765   4.132   0.219   6.531 -0.0557 -0.1338 -0.0616
   98SAPS   O22 9766   4.223   0.146   6.538 -0.2771 -0.1770 -0.1228
   98SAPS   C22 9767   4.006   0.213   6.616  0.1050  1.2169 -1.0351
   98SAPS   H2R 9768   3.994   0.297   6.688  0.2511 -0.7858  1.4870
   98SAPS   H2S 9769   3.918   0.207   6.550 -0.1559 -0.6672 -0.5778
   98SAPS    C3 9770   4.340   0.457   6.477  0.9001  0.1796 -0.1707
   98SAPS    HX 9771   4.283   0.552   6.484  1.7473  0.5979  1.7028
   98SAPS    HY 9772   4.433   0.488   6.424  0.7044  1.0260 -0.0355
   98SAPS   O31 9773   4.364   0.417   6.615  0.2622  0.8275 -0.3121
   98SAPS   C31 9774   4.454   0.320   6.631 -0.4075  0.3634  0.4347
   98SAPS   O32 9775   4.538   0.284   6.543  0.2602 -0.5261 -0.8880
   98SAPS   C32 9776   4.436   0.252   6.761  0.5668 -0.2285 -1.0395
   98SAPS   H2X 9777   4.329   0.223   6.766  0.6664 -0.6792 -1.4192
   98SAPS   H2Y 9778   4.457   0.318   6.848  1.9934 -3.2522  1.0898
   98SAPS   C23 9779   3.996   0.090   6.719 -0.3065  0.6463 -0.2971
   98SAPS   H3R 9780   4.096   0.067   6.763 -1.3448 -4.3931 -0.0696
   98SAPS   H3S 9781   3.967   0.011   6.646  0.0530 -1.0806  1.3566
   98SAPS   C24 9782   3.886   0.112   6.829  0.0261 -0.2697  0.9587
   98SAPS   H4R 9783   3.797   0.155   6.778  0.8656  0.5345  0.1409
   98SAPS   H4S 9784   3.913   0.173   6.917 -2.9222  1.3099  0.9083
   98SAPS   C25 9785   3.851  -0.028   6.866 -0.3686 -0.0269 -0.1572
   98SAPS   H5R 9786   3.789  -0.072   6.786 -0.3657  2.2018 -1.4680
   98SAPS   C26 9787   3.865  -0.083   6.988  0.0511  0.0383  0.0127
   98SAPS   H6R 9788   3.831  -0.185   7.011  2.4578 -0.3763  2.2112
   98SAPS   C27 9789   3.919  -0.018   7.113  0.7307 -0.1798  0.2369
   98SAPS   H7R 9790   3.874  -0.072   7.199 -0.0529  1.0470  0.6327
   98SAPS   H7S 9791   3.870   0.082   7.115 -0.8133 -0.6666 -4.0572
   98SAPS   C28 9792   4.066   0.016   7.115  0.4691  0.1306 -0.2458
   98SAPS   H8R 9793   4.127   0.028   7.024 -0.4298  1.3396 -0.7168
   98SAPS   C29 9794   4.127   0.031   7.240 -0.0075  0.5772  0.9142
   98SAPS   H9R 9795   4.236   0.046   7.243  0.3200 -1.1070 -0.6694
   98SAPS  C210 9796   4.058   0.015   7.379 -0.2915 -0.5077  0.9797
   98SAPS  H10R 9797   4.119  -0.058   7.436  1.6050  0.7586  0.6628
   98SAPS  H10S 9798   3.953  -0.021   7.375 -0.9376  1.1641 -3.1918
   98SAPS  C211 9799   4.035   0.150   7.439 -0.5117 -0.4495 -0.4550
   98SAPS  H11R 9800   3.993   0.226   7.372 -1.3119  0.2337  0.7740
   98SAPS  C212 9801   4.070   0.194   7.563  0.1298 -0.2112  0.0317
   98SAPS  H12R 9802   4.052   0.299   7.588 -0.0704  0.1722 -1.6377
   98SAPS  C213 9803   4.144   0.106   7.661  0.6485  0.2485  0.5232
   98SAPS  H13R 9804   4.226   0.168   7.705 -0.4358  2.8753 -0.9384
   98SAPS  H13S 9805   4.189   0.022   7.603  0.2613  0.6860 -0.4159
   98SAPS  C214 9806   4.051   0.046   7.761  0.4678 -0.0168  0.1184
   98SAPS  H14R 9807   3.968  -0.007   7.712  0.7853 -0.7510  0.3595
   98SAPS  C215 9808   4.050   0.058   7.893 -0.3719  0.1006  0.5183
   98SAPS  H15R 9809   3.971   0.012   7.953  1.0813 -2.6215  0.4898
   98SAPS  C216 9810   4.156   0.126   7.980 -0.0433  0.1393 -0.1718
   98SAPS  H16R 9811   4.236   0.171   7.917  0.2218  0.2535  0.2461
   98SAPS  H16S 9812   4.204   0.053   8.049 -2.1884 -1.3705 -0.1914
   98SAPS  C217 9813   4.092   0.232   8.065 -0.1069  0.0074  0.3194
   98SAPS  H17R 9814   4.036   0.305   8.003  2.0592  2.5620  1.1787
   98SAPS  H17S 9815   4.176   0.291   8.108  1.0983 -1.9350  0.7937
   98SAPS  C218 9816   4.002   0.192   8.183  0.5045 -0.1000  0.0351
   98SAPS  H18R 9817   3.938   0.117   8.133  2.3064 -1.8200  0.1754
   98SAPS  H18S 9818   3.943   0.276   8.224 -0.0775  0.0477 -1.0666
   98SAPS  C219 9819   4.068   0.116   8.298 -0.2187 -0.7400  0.3212
   98SAPS  H19R 9820   4.107   0.023   8.252 -0.4682 -0.0167 -1.4317
   98SAPS  H19S 9821   3.989   0.092   8.373 -1.3756 -0.3154 -0.7277
   98SAPS  C220 9822   4.189   0.178   8.363 -0.2791 -0.5274 -0.0782
   98SAPS  H20R 9823   4.163   0.269   8.421 -1.6985 -1.3109  0.5802
   98SAPS  H20S 9824   4.259   0.204   8.281  1.2047 -2.5726  0.4369
   98SAPS  H20T 9825   4.239   0.108   8.434 -1.2748 -0.2009  0.9721
   98SAPS   C33 9826   4.522   0.127   6.787  0.3269  0.3141  0.5089
   98SAPS   H3X 9827   4.631   0.149   6.786  0.0593  1.7473  0.3374
   98SAPS   H3Y 9828   4.495   0.044   6.718  0.1634  0.1313  0.7916
   98SAPS   C34 9829   4.491   0.063   6.927 -0.4433 -0.1605  0.4435
   98SAPS   H4X 9830   4.545  -0.030   6.952  1.7428  1.0373  0.4389
   98SAPS   H4Y 9831   4.383   0.039   6.939 -0.5103  0.6503  1.5912
   98SAPS   C35 9832   4.515   0.155   7.042  0.6069 -0.1011  0.0487
   98SAPS   H5X 9833   4.443   0.239   7.054 -0.5779 -1.3532  2.3163
   98SAPS   H5Y 9834   4.614   0.204   7.038  0.2116  0.8920  1.4080
   98SAPS   C36 9835   4.509   0.069   7.176 -0.5958  0.3712  0.4984
   98SAPS   H6X 9836   4.591  -0.006   7.178  0.2827  1.3144  0.6542
   98SAPS   H6Y 9837   4.415   0.010   7.175 -0.0406 -0.5543 -1.7801
   98SAPS   C37 9838   4.534   0.163   7.292 -0.5343 -0.0984 -0.0751
   98SAPS   H7X 9839   4.447   0.230   7.311 -0.7481 -0.9332  2.2571
   98SAPS   H7Y 9840   4.623   0.225   7.271 -1.2167  0.9655  0.1024
   98SAPS   C38 9841   4.549   0.081   7.426  0.2977 -0.4529  0.6987
   98SAPS   H8X 9842   4.633   0.008   7.430 -0.0362 -0.8071  1.4991
   98SAPS   H8Y 9843   4.448   0.034   7.422 -1.6224  3.1732  2.3423
   98SAPS   C39 9844   4.562   0.169   7.544  0.1347  0.0064 -0.7328
   98SAPS   H9X 9845   4.468   0.228   7.548  0.1574  0.0038  1.6352
   98SAPS   H9Y 9846   4.643   0.245   7.546  1.3211 -1.2064  1.1575
   98SAPS  C310 9847   4.565   0.104   7.683  0.3145  0.8857 -0.1123
   98SAPS  H10X 9848   4.665   0.056   7.694  0.4044  0.6577 -1.7250
   98SAPS  H10Y 9849   4.484   0.028   7.689  0.6091  0.6098  0.4527
   98SAPS  C311 9850   4.553   0.212   7.794 -0.6033  0.2344 -0.5744
   98SAPS  H11X 9851   4.454   0.259   7.779 -0.5081  0.5644 -0.1981
   98SAPS  H11Y 9852   4.629   0.291   7.773  1.1438 -1.4469 -0.8218
   98SAPS  C312 9853   4.568   0.153   7.937  0.1973  0.0927  0.8094
   98SAPS  H12X 9854   4.659   0.091   7.922 -1.4526 -1.8304 -2.4313
   98SAPS  H12Y 9855   4.478   0.089   7.942 -0.9213  1.3326 -1.6847
   98SAPS  C313 9856   4.576   0.262   8.042  0.2961  0.9841  0.2744
   98SAPS  H13X 9857   4.497   0.338   8.023 -1.1263  0.4287  3.3236
   98SAPS  H13Y 9858   4.670   0.321   8.031  0.4553  1.1063  1.9717
   98SAPS  C314 9859   4.566   0.204   8.182 -0.2071 -0.1392  1.0398
   98SAPS  H14X 9860   4.466   0.156   8.178  0.2470 -1.2520 -3.5797
   98SAPS  H14Y 9861   4.575   0.284   8.258  1.1634  1.5059 -0.7421
   98SAPS  C315 9862   4.659   0.087   8.223 -0.2229 -1.0506  0.1084
   98SAPS  H15X 9863   4.765   0.111   8.202 -0.5240 -0.6631 -1.0361
   98SAPS  H15Y 9864   4.639   0.007   8.148  1.3310 -1.4221  0.0598
   98SAPS  C316 9865   4.623   0.034   8.366 -0.5546 -0.1799  0.2658
   98SAPS  H16X 9866   4.526  -0.019   8.352 -0.5323 -0.3897  0.8795
   98SAPS  H16Y 9867   4.603   0.114   8.440  1.5725  1.2026 -0.5598
   98SAPS  C317 9868   4.717  -0.072   8.415 -0.0596  0.2873  0.2096
   98SAPS  H17X 9869   4.812  -0.021   8.442 -0.8067  0.7691  2.1095
   98SAPS  H17Y 9870   4.725  -0.145   8.332  0.4303  1.6171 -0.9571
   98SAPS  C318 9871   4.661  -0.143   8.537 -0.2213  0.3955 -0.7806
   98SAPS  H18X 9872   4.615  -0.072   8.609 -1.0181 -0.2104 -0.6612
   98SAPS  H18Y 9873   4.737  -0.199   8.595 -0.5569  0.6404 -0.0932
   98SAPS  H18Z 9874   4.574  -0.211   8.519  0.0357  0.1006 -0.9336
   99SAPS     N 9875   5.590   3.845   6.266 -0.5658 -0.0636 -0.4128
   99SAPS   HN1 9876   5.627   3.929   6.315 -0.4702  0.2015 -0.9397
   99SAPS   HN2 9877   5.525   3.795   6.331  1.6600 -4.5587 -1.3048
   99SAPS   HN3 9878   5.662   3.772   6.253 -2.2213 -1.6156 -1.3089
   99SAPS   C12 9879   5.537   3.887   6.135 -0.3974 -0.0236  0.5530
   99SAPS  H12A 9880   5.505   3.990   6.144 -1.4971 -0.3695  0.6545
   99SAPS   C13 9881   5.634   3.885   6.013  0.6957 -0.2907  0.6210
   99SAPS  O13A 9882   5.743   3.830   6.022 -0.0429  0.0351  0.6156
   99SAPS  O13B 9883   5.604   3.940   5.904  0.4490 -0.2932 -0.2258
   99SAPS   C11 9884   5.441   3.771   6.098  0.1591 -0.6271 -0.9426
   99SAPS  H11A 9885   5.490   3.671   6.100  0.0103 -0.6969  1.4130
   99SAPS  H11B 9886   5.398   3.787   5.996  0.6439 -0.8879 -1.1907
   99SAPS     P 9887   5.269   3.644   6.246 -0.0419  0.2371  0.1154
   99SAPS   O13 9888   5.128   3.683   6.279 -0.4152 -0.4508 -0.1471
   99SAPS   O14 9889   5.288   3.526   6.161  0.2275  0.0977  0.1006
   99SAPS   O12 9890   5.341   3.773   6.191  0.4778  0.3398 -0.0895
   99SAPS   O11 9891   5.341   3.611   6.379  0.3933  0.0553 -0.3222
   99SAPS    C1 9892   5.384   3.479   6.412 -0.1573 -0.1510 -0.7302
   99SAPS    HA 9893   5.415   3.421   6.322  0.1712 -0.1731 -0.6042
   99SAPS    HB 9894   5.478   3.485   6.471  0.6658 -0.0518 -2.0150
   99SAPS    C2 9895   5.279   3.400   6.496 -0.1279  0.7623  0.3550
   99SAPS    HS 9896   5.188   3.395   6.432  0.2838  0.9405 -0.2618
   99SAPS   O21 9897   5.258   3.480   6.602 -0.3977 -0.2381  0.6003
   99SAPS   C21 9898   5.131   3.494   6.642  0.3733  0.3179  0.1582
   99SAPS   O22 9899   5.040   3.429   6.594  1.1037 -0.1078  0.2925
   99SAPS   C22 9900   5.121   3.596   6.747 -0.1067  0.7832 -0.2329
   99SAPS   H2R 9901   5.011   3.615   6.757 -0.6698 -0.7052 -2.7320
   99SAPS   H2S 9902   5.177   3.563   6.837  1.6322  2.1538 -0.7677
   99SAPS    C3 9903   5.322   3.265   6.539 -0.0343  0.8526  0.4531
   99SAPS    HX 9904   5.425   3.275   6.580  1.3106 -4.3991 -0.8429
   99SAPS    HY 9905   5.325   3.212   6.442 -0.0068 -1.0135  1.4095
   99SAPS   O31 9906   5.234   3.210   6.640 -0.4700 -0.3231 -0.6363
   99SAPS   C31 9907   5.120   3.167   6.595  0.5542  0.0292 -0.4176
   99SAPS   O32 9908   5.089   3.151   6.479 -0.3080  0.2510 -0.5082
   99SAPS   C32 9909   5.040   3.121   6.721  0.5480  0.7864  0.1343
   99SAPS   H2X 9910   4.940   3.168   6.712 -0.3318 -1.3964 -2.8109
   99SAPS   H2Y 9911   5.087   3.157   6.815 -0.7650  2.1352  0.3102
   99SAPS   C23 9912   5.191   3.733   6.712 -0.8343 -0.0810 -0.1963
   99SAPS   H3R 9913   5.161   3.762   6.608  1.6763  1.7249 -0.5029
   99SAPS   H3S 9914   5.301   3.721   6.706 -0.8749 -4.1961  2.9782
   99SAPS   C24 9915   5.153   3.851   6.807 -0.2303 -0.8422 -0.3670
   99SAPS   H4R 9916   5.186   3.952   6.775 -2.3698 -0.7934 -2.8034
   99SAPS   H4S 9917   5.213   3.820   6.895  3.4842  1.5825 -1.7813
   99SAPS   C25 9918   5.003   3.867   6.832 -0.1339  0.4111 -0.3923
   99SAPS   H5R 9919   4.948   3.896   6.741 -1.2721 -1.9867 -0.5365
   99SAPS   C26 9920   4.943   3.858   6.949  0.3463  0.2417 -0.2157
   99SAPS   H6R 9921   4.833   3.861   6.944  0.3988  1.7677 -1.5032
   99SAPS   C27 9922   5.004   3.823   7.082  0.1182 -0.2852  0.1437
   99SAPS   H7R 9923   5.114   3.830   7.069 -0.0459 -1.4930 -2.3710
   99SAPS   H7S 9924   4.972   3.721   7.111 -1.6014  0.0853 -0.3378
   99SAPS   C28 9925   4.963   3.927   7.184 -0.7521  0.0114  0.5411
   99SAPS   H8R 9926   4.902   4.011   7.148 -0.0064  0.2996 -0.0745
   99SAPS   C29 9927   4.986   3.921   7.316 -0.7054 -0.0781  0.3282
   99SAPS   H9R 9928   4.930   3.999   7.370 -2.3131 -0.3321 -0.8924
   99SAPS  C210 9929   5.062   3.816   7.397 -0.3204  0.2086 -0.3496
   99SAPS  H10R 9930   5.108   3.739   7.331  1.4004 -0.1894  1.2540
   99SAPS  H10S 9931   4.983   3.760   7.451 -2.0231  2.3543 -0.4231
   99SAPS  C211 9932   5.160   3.866   7.498  0.5063 -0.8094  0.2967
   99SAPS  H11R 9933   5.258   3.894   7.455 -0.6846  1.0148 -1.3706
   99SAPS  C212 9934   5.137   3.896   7.629  0.2876  0.4103 -0.0081
   99SAPS  H12R 9935   5.223   3.934   7.687 -0.9088  1.2275  1.2925
   99SAPS  C213 9936   5.019   3.875   7.718  0.3805 -0.2131  0.4790
   99SAPS  H13R 9937   5.042   3.789   7.785 -0.4677  0.3613  1.5363
   99SAPS  H13S 9938   4.931   3.836   7.663  0.4726  1.7791 -1.1982
   99SAPS  C214 9939   4.980   3.996   7.794 -1.1013 -0.3130  0.4911
   99SAPS  H14R 9940   4.901   4.059   7.750 -0.4304  0.0895 -0.1607
   99SAPS  C215 9941   5.022   4.021   7.917  0.0723  0.0828 -0.0091
   99SAPS  H15R 9942   4.968   4.098   7.975  1.9279  0.6676  1.0331
   99SAPS  C216 9943   5.127   3.945   7.994  0.1177  0.7905 -0.0427
   99SAPS  H16R 9944   5.230   3.986   7.983 -0.4303  2.1332 -0.3648
   99SAPS  H16S 9945   5.143   3.844   7.952  0.4651  0.9355 -0.2675
   99SAPS  C217 9946   5.099   3.935   8.143  0.3122  0.4628  0.3192
   99SAPS  H17R 9947   5.003   3.884   8.164 -0.2965  0.7366 -1.6386
   99SAPS  H17S 9948   5.094   4.036   8.188  4.0846 -0.2177  2.8112
   99SAPS  C218 9949   5.208   3.860   8.223 -0.8722  0.6807 -0.0541
   99SAPS  H18R 9950   5.302   3.905   8.184 -0.6332  2.1517  2.0625
   99SAPS  H18S 9951   5.209   3.752   8.199  0.7450  0.5405  0.5031
   99SAPS  C219 9952   5.198   3.877   8.376  0.4793 -0.5098  0.5906
   99SAPS  H19R 9953   5.109   3.816   8.401 -0.3211  0.6566  0.6572
   99SAPS  H19S 9954   5.172   3.984   8.392 -1.5120 -0.7918 -0.3897
   99SAPS  C220 9955   5.309   3.835   8.465 -0.0944 -0.6416  0.4909
   99SAPS  H20R 9956   5.395   3.904   8.449  0.6964 -2.0042 -1.4089
   99SAPS  H20S 9957   5.338   3.729   8.452  0.0109 -0.4582 -0.9152
   99SAPS  H20T 9958   5.277   3.848   8.571  0.8501 -1.4848  0.8916
   99SAPS   C33 9959   5.021   2.963   6.728  0.5717 -0.9469 -0.0080
   99SAPS   H3X 9960   5.120   2.914   6.744  1.2217  0.0730 -0.7555
   99SAPS   H3Y 9961   4.989   2.932   6.626  2.3576 -0.8451 -0.6454
   99SAPS   C34 9962   4.932   2.916   6.847 -0.2546 -0.3743  1.1896
   99SAPS   H4X 9963   4.980   2.930   6.947  0.6848 -0.8317  0.8124
   99SAPS   H4Y 9964   4.884   2.817   6.838 -3.7196  1.1731  0.9126
   99SAPS   C35 9965   4.797   2.992   6.862  0.0156 -0.0507 -0.0358
   99SAPS   H5X 9966   4.728   2.977   6.776 -1.2749  0.8067  0.8052
   99SAPS   H5Y 9967   4.823   3.100   6.875 -2.8733  1.0659 -2.3775
   99SAPS   C36 9968   4.715   2.949   6.984  0.0586 -0.0625 -0.1903
   99SAPS   H6X 9969   4.692   2.841   6.993  1.6687 -0.4013  0.1467
   99SAPS   H6Y 9970   4.622   3.010   6.981  0.7592  1.0494 -0.1258
   99SAPS   C37 9971   4.781   2.976   7.121  0.8636  0.1760 -0.1764
   99SAPS   H7X 9972   4.831   3.075   7.125  0.7998  0.2099 -0.2124
   99SAPS   H7Y 9973   4.852   2.891   7.131  0.5451 -0.2079 -1.0632
   99SAPS   C38 9974   4.675   2.987   7.229 -0.1025 -0.9298 -0.1122
   99SAPS   H8X 9975   4.616   2.894   7.235  0.6310 -1.4383 -0.5754
   99SAPS   H8Y 9976   4.608   3.074   7.212  1.9196  0.5858 -0.7520
   99SAPS   C39 9977   4.739   3.001   7.371  0.5295 -0.7309 -0.0750
   99SAPS   H9X 9978   4.799   3.094   7.380 -0.4545  0.0188 -0.9883
   99SAPS   H9Y 9979   4.798   2.908   7.377  4.4331  1.4138 -1.7516
   99SAPS  C310 9980   4.629   3.008   7.472  0.6320  0.3196 -0.3944
   99SAPS  H10X 9981   4.561   2.921   7.465  0.7198  0.1172  0.9305
   99SAPS  H10Y 9982   4.557   3.088   7.446 -0.7248 -0.5164  0.6382
   99SAPS  C311 9983   4.676   3.034   7.621  0.2963  0.6673  0.3087
   99SAPS  H11X 9984   4.733   3.129   7.619 -0.7896  1.3159 -0.3245
   99SAPS  H11Y 9985   4.742   2.951   7.654  1.7196  2.1249  1.2662
   99SAPS  C312 9986   4.555   3.055   7.715  0.1743  0.4128 -0.2001
   99SAPS  H12X 9987   4.481   2.972   7.710 -0.2741  0.8715 -1.6958
   99SAPS  H12Y 9988   4.506   3.149   7.680 -2.7212 -0.7866  0.3311
   99SAPS  C313 9989   4.627   3.063   7.849  0.0700 -0.1439 -0.2542
   99SAPS  H13X 9990   4.681   3.160   7.857 -1.4615  0.6719  0.4649
   99SAPS  H13Y 9991   4.693   2.974   7.858  1.0194  0.4516 -1.0589
   99SAPS  C314 9992   4.531   3.049   7.969  0.3009 -0.3682 -0.1439
   99SAPS  H14X 9993   4.509   2.941   7.980 -0.2694 -0.3081 -0.6707
   99SAPS  H14Y 9994   4.436   3.097   7.938  0.1747 -1.4857 -1.6086
   99SAPS  C315 9995   4.571   3.103   8.106 -0.0280  0.1046 -0.3456
   99SAPS  H15X 9996   4.605   3.208   8.097 -0.8230  0.3882 -0.0527
   99SAPS  H15Y 9997   4.655   3.042   8.149 -2.2075 -1.4059  2.0982
   99SAPS  C316 9998   4.462   3.090   8.217 -0.4723 -0.4513  0.3758
   99SAPS  H16X 9999   4.433   2.984   8.234 -0.5536 -0.4553  0.2188
   99SAPS  H16Y10000   4.370   3.141   8.181  1.2087  1.5362 -1.3176
   99SAPS  C31710001   4.496   3.132   8.356  0.5076  0.5000  0.3013
   99SAPS  H17X10002   4.477   3.241   8.369  1.0251  0.5380  0.7609
   99SAPS  H17Y10003   4.606   3.125   8.366  0.8511  0.9419 -2.3671
   99SAPS  C31810004   4.408   3.054   8.455  0.0531  1.0681 -0.5403
   99SAPS  H18X10005   4.381   3.121   8.540  1.4044  3.0315 -1.5817
   99SAPS  H18Y10006   4.472   2.967   8.480 -1.5032  0.2593  0.8840
   99SAPS  H18Z10007   4.317   3.014   8.405 -0.3804  2.0729 -0.5799
  100SAPS     N10008   0.928   5.117   6.339 -0.7121  0.1709  0.0044
  100SAPS   HN110009   0.898   5.051   6.413 -0.5818 -0.3551 -0.4088
  100SAPS   HN210010   1.028   5.105   6.314 -1.4079 -0.6225 -2.7339
  100SAPS   HN310011   0.916   5.210   6.383 -1.8958 -0.1827  0.4575
  100SAPS   C1210012   0.859   5.091   6.206 -0.2349  0.1745  0.3379
  100SAPS  H12A10013   0.761   5.136   6.210  0.1067  1.1763 -1.5216
  100SAPS   C1310014   0.939   5.153   6.089 -0.0757 -1.3011  0.2886
  100SAPS  O13A10015   1.051   5.214   6.110 -0.1335 -0.4384 -1.0840
  100SAPS  O13B10016   0.898   5.147   5.972  0.0364 -0.2643 -0.1644
  100SAPS   C1110017   0.851   4.934   6.188 -0.3373 -0.7363 -0.4856
  100SAPS  H11A10018   0.945   4.890   6.147 -0.0378 -0.3433 -0.2220
  100SAPS  H11B10019   0.775   4.921   6.107  0.3224  1.6699 -1.5983
  100SAPS     P10020   0.654   4.887   6.359  0.0304 -0.2168  0.3828
  100SAPS   O1310021   0.638   5.010   6.442  0.1676  0.6420 -0.5177
  100SAPS   O1410022   0.556   4.871   6.256 -0.3782  0.5897  0.4256
  100SAPS   O1210023   0.807   4.868   6.305  0.5218  0.1603 -0.8463
  100SAPS   O1110024   0.648   4.760   6.454  0.2238 -0.5251  0.1555
  100SAPS    C110025   0.532   4.685   6.492  0.4760 -0.3929  0.7165
  100SAPS    HA10026   0.474   4.638   6.410  1.3387  0.5123 -0.4474
  100SAPS    HB10027   0.579   4.597   6.541  0.8618 -1.2080 -1.0430
  100SAPS    C210028   0.439   4.769   6.596 -0.0216 -0.1368  0.1533
  100SAPS    HS10029   0.375   4.828   6.527  1.7993  0.5821 -0.9764
  100SAPS   O2110030   0.525   4.844   6.680  0.1860 -0.5715 -0.4035
  100SAPS   C2110031   0.487   4.970   6.691  0.2801  0.3977 -0.2899
  100SAPS   O2210032   0.381   5.024   6.650 -0.2090  0.5106 -0.0790
  100SAPS   C2210033   0.604   5.044   6.764 -0.5803  0.0507  0.7262
  100SAPS   H2R10034   0.623   4.986   6.857  0.7485 -0.2491  0.2919
  100SAPS   H2S10035   0.697   5.050   6.704 -0.3673 -1.4264  0.8796
  100SAPS    C310036   0.347   4.677   6.680 -0.1170 -0.3803 -0.0105
  100SAPS    HX10037   0.417   4.599   6.718  0.1417 -0.8921 -1.4682
  100SAPS    HY10038   0.282   4.612   6.619  0.6004 -2.6400  1.4998
  100SAPS   O3110039   0.278   4.743   6.784  0.2873  1.1967 -0.0477
  100SAPS   C3110040   0.157   4.784   6.755  0.5843 -0.3291  0.2188
  100SAPS   O3210041   0.105   4.788   6.642 -0.5305 -0.4796 -0.0403
  100SAPS   C3210042   0.079   4.804   6.885  0.3834 -0.3218  0.4497
  100SAPS   H2X10043   0.095   4.718   6.954 -1.3051  0.3897  1.7967
  100SAPS   H2Y10044  -0.030   4.818   6.872  0.2301 -0.3613  1.6135
  100SAPS   C2310045   0.566   5.194   6.795 -0.4032 -0.1243  0.2514
  100SAPS   H3R10046   0.523   5.239   6.702 -4.8531 -1.0624  1.6167
  100SAPS   H3S10047   0.659   5.245   6.826  1.6057 -2.5431 -1.4091
  100SAPS   C2410048   0.476   5.206   6.917  0.2241 -0.2031 -0.8802
  100SAPS   H4R10049   0.532   5.178   7.008 -0.4789  1.2239  0.0328
  100SAPS   H4S10050   0.398   5.127   6.920  0.1847 -0.1417  1.3028
  100SAPS   C2510051   0.421   5.349   6.933 -0.0250 -0.3377 -0.8097
  100SAPS   H5R10052   0.495   5.425   6.902  0.6194 -1.1248 -1.2439
  100SAPS   C2610053   0.301   5.384   6.975 -0.6126  0.5811  0.1108
  100SAPS   H6R10054   0.265   5.488   6.977 -0.0974  0.9132 -2.7941
  100SAPS   C2710055   0.201   5.280   7.027  0.4795  0.5583  0.5992
  100SAPS   H7R10056   0.219   5.236   7.128 -2.9575 -0.9973  0.6755
  100SAPS   H7S10057   0.192   5.191   6.960  2.0714 -0.1164  1.2361
  100SAPS   C2810058   0.058   5.334   7.030  0.4462 -0.3786  0.0315
  100SAPS   H8R10059   0.000   5.289   6.948  1.3492  0.6727 -1.2241
  100SAPS   C2910060  -0.010   5.414   7.115  0.4772 -0.2173 -0.1385
  100SAPS   H9R10061  -0.118   5.421   7.093  0.5217 -2.3499 -1.2502
  100SAPS  C21010062   0.045   5.475   7.244  0.5939  0.5069  0.4723
  100SAPS  H10R10063   0.097   5.570   7.221 -0.4943  1.5650  2.1803
  100SAPS  H10S10064   0.120   5.403   7.283  0.2663  0.8768  1.8438
  100SAPS  C21110065  -0.056   5.518   7.349  0.2868  0.2842  0.0881
  100SAPS  H11R10066  -0.158   5.547   7.318  0.3047  1.0655  0.7273
  100SAPS  C21210067  -0.025   5.516   7.478  0.2952  1.0603  0.4469
  100SAPS  H12R10068  -0.089   5.544   7.563 -1.3069  2.0808 -1.0257
  100SAPS  C21310069   0.106   5.452   7.538  0.3743 -0.4114  0.1064
  100SAPS  H13R10070   0.145   5.504   7.629 -0.3075  1.0371 -0.3882
  100SAPS  H13S10071   0.188   5.458   7.464  0.5333  4.7364  0.3196
  100SAPS  C21410072   0.072   5.310   7.572 -0.6490  0.5237 -0.2612
  100SAPS  H14R10073   0.021   5.255   7.492 -0.4913 -0.2386  0.1556
  100SAPS  C21510074   0.097   5.232   7.679 -0.5859 -0.0818  0.2047
  100SAPS  H15R10075   0.051   5.132   7.685  0.1792 -0.3529  3.4498
  100SAPS  C21610076   0.176   5.275   7.801 -0.1084  0.1888 -0.0182
  100SAPS  H16R10077   0.195   5.385   7.803 -0.9569  0.3338  1.6177
  100SAPS  H16S10078   0.273   5.221   7.806 -1.0865 -1.6909 -0.5778
  100SAPS  C21710079   0.102   5.246   7.934 -0.5323 -0.3153 -0.3143
  100SAPS  H17R10080   0.110   5.141   7.971 -0.6278 -1.3416 -3.0100
  100SAPS  H17S10081  -0.000   5.289   7.927  0.2442  2.1983  2.1263
  100SAPS  C21810082   0.181   5.309   8.053 -0.4467 -0.5455 -0.0956
  100SAPS  H18R10083   0.168   5.414   8.019 -1.4005 -0.3433  0.8624
  100SAPS  H18S10084   0.289   5.284   8.046  0.2649  2.0968  0.2013
  100SAPS  C21910085   0.145   5.277   8.200 -0.4920  0.2209 -0.1249
  100SAPS  H19R10086   0.047   5.324   8.226  0.3621  1.2028  1.4686
  100SAPS  H19S10087   0.211   5.324   8.276 -1.1945 -0.7098  1.1032
  100SAPS  C22010088   0.145   5.125   8.248 -0.3048 -0.9443  0.0878
  100SAPS  H20R10089   0.244   5.089   8.281 -0.0784 -0.2576  0.1786
  100SAPS  H20S10090   0.100   5.056   8.173 -1.2732 -1.5046  1.1490
  100SAPS  H20T10091   0.081   5.111   8.338 -2.2544  3.1186 -0.4129
  100SAPS   C3310092   0.127   4.936   6.955  0.0111  0.8565 -0.2254
  100SAPS   H3X10093   0.076   5.019   6.900 -1.2696  0.2349 -0.0083
  100SAPS   H3Y10094   0.236   4.955   6.946 -0.1092  1.6816 -0.0503
  100SAPS   C3410095   0.095   4.925   7.105  1.1449  0.0798 -0.8693
  100SAPS   H4X10096   0.144   5.008   7.159 -0.8035  0.6104  0.1577
  100SAPS   H4Y10097   0.149   4.843   7.157  2.0639 -0.0951 -2.0559
  100SAPS   C3510098  -0.062   4.923   7.144  0.1923 -0.6893  0.3671
  100SAPS   H5X10099  -0.100   4.818   7.148  0.1511 -0.7017 -0.2002
  100SAPS   H5Y10100  -0.109   4.956   7.048 -0.3584 -0.5549  0.6788
  100SAPS   C3610101  -0.102   4.995   7.277  0.3556  0.8816 -0.0603
  100SAPS   H6X10102  -0.209   4.975   7.297  0.7592 -2.2205 -0.4491
  100SAPS   H6Y10103  -0.089   5.104   7.261 -1.0084  0.8504 -1.7513
  100SAPS   C3710104  -0.025   4.946   7.399 -0.8630  0.2340 -0.4480
  100SAPS   H7X10105  -0.062   5.004   7.486 -1.6852  2.1811 -2.0134
  100SAPS   H7Y10106   0.083   4.966   7.381 -0.8144  0.7822  0.4001
  100SAPS   C3810107  -0.035   4.795   7.426  0.3401 -0.3451 -0.4481
  100SAPS   H8X10108   0.021   4.738   7.349  0.2251 -0.8911 -0.1333
  100SAPS   H8Y10109  -0.142   4.767   7.413  0.2138  0.8094 -2.2326
  100SAPS   C3910110   0.032   4.755   7.558  0.2694  0.5651 -0.4304
  100SAPS   H9X10111   0.132   4.803   7.557 -0.2579  1.7339  0.8156
  100SAPS   H9Y10112   0.035   4.644   7.562 -0.1581  0.5721  2.9961
  100SAPS  C31010113  -0.034   4.807   7.685  0.1848  0.8295  0.1235
  100SAPS  H10X10114  -0.140   4.816   7.652 -0.0634 -0.5777  0.4452
  100SAPS  H10Y10115   0.001   4.910   7.706  0.2943  0.6980  0.6201
  100SAPS  C31110116  -0.021   4.729   7.816  0.4848  0.8923  0.0587
  100SAPS  H11X10117   0.088   4.718   7.835  0.2592 -0.4420  0.6689
  100SAPS  H11Y10118  -0.067   4.628   7.807 -0.4238  1.3353 -0.4542
  100SAPS  C31210119  -0.067   4.810   7.937  0.1671  0.5073 -0.5572
  100SAPS  H12X10120  -0.176   4.820   7.920  0.0542  2.7397  1.1717
  100SAPS  H12Y10121  -0.033   4.915   7.932 -0.5869  0.8113  0.4099
  100SAPS  C31310122  -0.017   4.742   8.073 -0.2385 -0.8337  0.0541
  100SAPS  H13X10123   0.092   4.757   8.055 -0.7008 -0.0266 -2.3171
  100SAPS  H13Y10124  -0.014   4.631   8.083 -0.0598 -0.7618  0.8997
  100SAPS  C31410125  -0.086   4.798   8.199 -0.4579 -0.0861 -0.2918
  100SAPS  H14X10126  -0.196   4.782   8.207 -0.2729 -0.2004  3.0298
  100SAPS  H14Y10127  -0.084   4.908   8.190  0.5322 -0.0690  0.0139
  100SAPS  C31510128  -0.030   4.737   8.331  0.1140  0.0865  0.3544
  100SAPS  H15X10129   0.081   4.739   8.326  0.1698 -1.8964 -0.1284
  100SAPS  H15Y10130  -0.062   4.631   8.335 -2.3154  0.7809  0.5315
  100SAPS  C31610131  -0.081   4.811   8.456 -0.6402 -0.0487  0.4668
  100SAPS  H16X10132  -0.062   4.919   8.443  0.5389 -0.2807  0.1885
  100SAPS  H16Y10133  -0.016   4.778   8.540 -0.2198  0.3495  0.3017
  100SAPS  C31710134  -0.230   4.787   8.486 -0.3178 -0.7317 -0.2749
  100SAPS  H17X10135  -0.257   4.679   8.480  2.4765 -1.6083  0.8242
  100SAPS  H17Y10136  -0.285   4.846   8.410 -3.8643 -1.1637  1.7753
  100SAPS  C31810137  -0.283   4.845   8.622 -0.0995 -0.0741 -0.5969
  100SAPS  H18X10138  -0.231   4.798   8.708 -2.7436 -0.9146  0.6630
  100SAPS  H18Y10139  -0.392   4.824   8.624 -0.3503  1.1842 -0.4594
  100SAPS  H18Z10140  -0.258   4.953   8.624 -2.3693  0.5210  1.5779
  101OSM      N10141   0.217   4.619  11.169  0.1777  0.4299  0.6766
  101OSM    C1510142   0.136   4.622  11.053 -0.2913  0.1213 -0.3462
  101OSM   H15A10143   0.176   4.559  10.975 -1.6265 -0.6184 -0.4616
  101OSM   H15B10144   0.126   4.723  11.014  2.4395  0.9210  0.8160
  101OSM   H15C10145   0.036   4.591  11.080 -0.3820  1.5669  1.1776
  101OSM    C1410146   0.336   4.704  11.149  0.5870 -1.0520  0.0995
  101OSM   H14A10147   0.311   4.804  11.119 -0.8126 -1.1722  0.7948
  101OSM   H14B10148   0.398   4.673  11.066  1.1035  0.2271 -0.0194
  101OSM   H14C10149   0.394   4.728  11.237 -0.6957  1.3978  0.3515
  101OSM    C1310150   0.144   4.668  11.287 -0.3881 -0.4312 -0.5020
  101OSM   H13A10151   0.107   4.769  11.281  1.2104  0.5722  3.5027
  101OSM   H13B10152   0.207   4.668  11.375  0.8317 -1.2772 -1.3504
  101OSM   H13C10153   0.062   4.598  11.301 -0.5854 -0.6419 -2.4386
  101OSM    C1210154   0.262   4.480  11.209 -0.1663  0.5604  0.8826
  101OSM   H12A10155   0.174   4.422  11.234 -2.4518  3.9586  1.3935
  101OSM   H12B10156   0.316   4.493  11.301  1.0361  0.5692  0.1929
  101OSM    C1110157   0.346   4.389  11.113 -0.2469  0.6257 -0.0772
  101OSM   H11A10158   0.344   4.292  11.167 -1.0305  0.6746 -0.0161
  101OSM   H11B10159   0.449   4.431  11.109 -0.1546  0.4247  0.1945
  101OSM      P10160   0.358   4.367  10.865 -0.3036  0.1608 -0.4970
  101OSM    O1310161   0.408   4.503  10.834  0.5718 -0.3907 -0.4304
  101OSM    O1410162   0.464   4.264  10.884  0.1430  0.0999  0.2517
  101OSM    O1110163   0.256   4.318  10.754  0.1960 -0.1515  0.6307
  101OSM    O1210164   0.277   4.367  10.993  0.5325 -0.0977 -0.6165
  101OSM    C1S10165   0.169   4.399  10.677  0.0649 -0.4016  0.0451
  101OSM    H1S10166   0.165   4.502  10.720  0.1787 -1.2623  2.2655
  101OSM    H1T10167   0.071   4.347  10.671  0.2134 -0.8483  1.1853
  101OSM     NF10168   0.154   4.501  10.449  0.8319 -0.0909  0.2941
  101OSM    HNF10169   0.088   4.459  10.386  0.1534 -2.8200  2.6013
  101OSM    C2S10170   0.230   4.410  10.534 -0.3406 -0.2693 -0.3268
  101OSM    H2S10171   0.332   4.447  10.555 -1.2227  1.6756  0.8512
  101OSM    C3S10172   0.250   4.266  10.465 -0.4260  0.0822  0.4254
  101OSM    H3S10173   0.148   4.229  10.445 -0.7035  1.5629 -1.1710
  101OSM     O310174   0.324   4.168  10.540  0.2477 -0.5515  0.1524
  101OSM    HO310175   0.324   4.206  10.628 -0.3402  1.7331 -0.7633
  101OSM    C4S10176   0.299   4.282  10.326 -0.2412 -0.2128 -0.3790
  101OSM    H4S10177   0.223   4.254  10.253  0.2253  1.3514 -1.5187
  101OSM    C5S10178   0.423   4.310  10.294 -1.1065 -0.6896 -0.6619
  101OSM    H5S10179   0.489   4.346  10.374 -1.0203 -1.8554 -0.1902
  101OSM    C6S10180   0.490   4.327  10.157  0.2961 -0.1317 -0.4204
  101OSM    H6S10181   0.575   4.256  10.146  1.6061  1.4232 -0.7423
  101OSM    H6T10182   0.523   4.433  10.151 -1.5904  0.4913 -0.3233
  101OSM    C7S10183   0.395   4.304  10.037 -0.0003  0.0286  0.2219
  101OSM    H7S10184   0.340   4.398  10.017  2.2205  1.0854 -1.2801
  101OSM    H7T10185   0.318   4.230  10.069 -0.1891  0.5388  0.9941
  101OSM    C8S10186   0.460   4.255   9.913  0.0764  1.1559  0.0452
  101OSM    H8S10187   0.526   4.169   9.933 -1.3138  0.3891  1.5364
  101OSM    H8T10188   0.518   4.340   9.869  2.2233 -1.5723 -2.8267
  101OSM    C9S10189   0.357   4.215   9.804  0.0700  0.2847  0.3456
  101OSM    H9S10190   0.281   4.295   9.808  0.0169  0.2925 -0.4948
  101OSM    H9T10191   0.306   4.117   9.815  0.8783 -0.6549 -2.9451
  101OSM   C10S10192   0.419   4.200   9.663  0.0532  0.4527 -0.2946
  101OSM   H10S10193   0.497   4.122   9.655 -0.5755 -0.1874 -0.2817
  101OSM   H10T10194   0.468   4.295   9.632  0.1691  0.2662 -0.6932
  101OSM   C11S10195   0.327   4.170   9.548 -0.9284  0.6618 -0.8021
  101OSM   H11S10196   0.245   4.244   9.544 -1.5234  0.3578  2.7285
  101OSM   H11T10197   0.271   4.079   9.577  0.3846  0.5280  1.5950
  101OSM   C12S10198   0.399   4.164   9.414  0.1762  0.1268  0.3332
  101OSM   H12S10199   0.476   4.085   9.409 -1.1485 -1.1371 -2.0243
  101OSM   H12T10200   0.455   4.257   9.388  0.4969  0.0145  0.6186
  101OSM   C13S10201   0.300   4.142   9.302 -0.2638 -0.3121  0.4185
  101OSM   H13S10202   0.217   4.216   9.299 -0.2384 -0.3072 -0.7498
  101OSM   H13T10203   0.240   4.050   9.318  0.4399 -0.6585  1.1509
  101OSM   C14S10204   0.362   4.130   9.161 -0.2752  0.7332 -0.2612
  101OSM   H14S10205   0.419   4.035   9.156 -0.8251  0.4147 -0.5445
  101OSM   H14T10206   0.442   4.207   9.149  1.0696 -0.8723 -2.1082
  101OSM   C15S10207   0.265   4.151   9.054  0.2861 -0.7821 -0.3131
  101OSM   H15S10208   0.235   4.258   9.053  1.7337 -0.2412  2.6281
  101OSM   H15T10209   0.173   4.098   9.086 -1.1122  1.3742 -0.5775
  101OSM   C16S10210   0.319   4.106   8.922  0.6869  0.3408 -0.0748
  101OSM   H16S10211   0.231   4.079   8.860 -0.3929  0.3732  1.4191
  101OSM   H16T10212   0.375   4.011   8.937 -0.8951 -0.5045  0.7313
  101OSM   C17S10213   0.416   4.207   8.859 -0.9238  0.3808  0.3239
  101OSM   H17S10214   0.497   4.234   8.931  0.5913 -1.2338 -0.7039
  101OSM   H17T10215   0.363   4.302   8.838 -0.0314  0.5519 -1.2752
  101OSM   C18S10216   0.487   4.157   8.733  0.0383 -0.2707 -0.2467
  101OSM   H18S10217   0.440   4.065   8.690  0.8474 -0.3984 -0.8996
  101OSM   H18T10218   0.594   4.133   8.748  0.2620  1.2863  0.8554
  101OSM   H18U10219   0.471   4.237   8.658 -0.5392  1.9037  2.0794
  101OSM    C1F10220   0.157   4.634  10.465 -0.0744  0.5625  0.2937
  101OSM     OF10221   0.247   4.686  10.527  0.0477 -0.3176  0.2604
  101OSM    C2F10222   0.062   4.710  10.379  0.1160  0.5159 -0.5445
  101OSM    H2F10223  -0.032   4.666  10.419  0.9880 -1.7791 -0.8694
  101OSM    H2G10224   0.077   4.690  10.271  1.9975  0.5006 -0.3090
  101OSM    C3F10225   0.075   4.859  10.396 -0.1941  0.0995  0.6932
  101OSM    H3F10226   0.184   4.876  10.388  0.0046 -0.6928  1.5837
  101OSM    H3G10227   0.046   4.889  10.499  0.6904  0.4310  0.8524
  101OSM    C4F10228  -0.009   4.927  10.291  0.7982  0.0813 -0.2895
  101OSM    H4F10229  -0.114   4.920  10.327  0.5256  0.3663 -1.0270
  101OSM    H4G10230  -0.011   4.882  10.190  0.3882  1.3531 -0.8647
  101OSM    C5F10231   0.037   5.075  10.273 -0.0031 -0.3181 -0.2735
  101OSM    H5F10232   0.140   5.081  10.231  0.6271  0.7496  1.3115
  101OSM    H5G10233   0.049   5.113  10.377 -0.8478  1.6150 -0.8244
  101OSM    C6F10234  -0.052   5.167  10.188 -0.1518 -0.1552  0.8525
  101OSM    H6F10235  -0.011   5.270  10.179 -0.1066 -0.3716 -2.5274
  101OSM    H6G10236  -0.144   5.180  10.249 -2.5205  1.0921 -2.6579
  101OSM    C7F10237  -0.088   5.114  10.039 -0.2035 -0.2747  0.5453
  101OSM    H7F10238  -0.142   5.018  10.042 -1.1989  0.3032  1.4267
  101OSM    H7G10239   0.012   5.099   9.992  0.7204 -0.9950  2.6506
  101OSM    C8F10240  -0.162   5.231   9.974 -0.9419  0.9982  0.5476
  101OSM    H8F10241  -0.125   5.333   9.997  0.6101  0.3546  1.0734
  101OSM    H8G10242  -0.261   5.239  10.022 -0.8593  2.0449  0.5649
  101OSM    C9F10243  -0.164   5.207   9.822 -0.4829 -0.2058 -0.1077
  101OSM    H9F10244  -0.115   5.114   9.791 -0.2343 -0.2121  0.3006
  101OSM   C10F10245  -0.223   5.286   9.732 -0.0222  0.6832 -0.1743
  101OSM   H10F10246  -0.217   5.265   9.625 -1.1449  2.2528 -0.5748
  101OSM   C11F10247  -0.298   5.411   9.762 -0.0951  0.1906  0.0557
  101OSM   H11F10248  -0.355   5.411   9.857 -1.9603  2.7544 -0.9448
  101OSM   H11G10249  -0.381   5.418   9.688 -1.4051 -1.2970  1.3177
  101OSM   C12F10250  -0.207   5.541   9.750  0.0343 -0.4792 -0.0763
  101OSM   H12F10251  -0.097   5.525   9.754  0.6055  1.8063 -2.8752
  101OSM   H12G10252  -0.247   5.625   9.811  0.3468 -0.0374 -0.4719
  101OSM   C13F10253  -0.224   5.607   9.611  0.3279  0.6182  0.2239
  101OSM   H13F10254  -0.157   5.695   9.601 -0.2589  0.8132 -2.5249
  101OSM   H13G10255  -0.326   5.648   9.595 -0.3007 -1.1025 -0.3364
  101OSM   C14F10256  -0.202   5.509   9.489 -0.1242  0.3280 -1.1424
  101OSM   H14F10257  -0.272   5.423   9.488 -0.7399  0.8016 -0.1420
  101OSM   H14G10258  -0.100   5.471   9.508 -0.7361  0.2384  2.5814
  101OSM   C15F10259  -0.218   5.582   9.359  0.4488  0.3675 -0.1797
  101OSM   H15F10260  -0.170   5.682   9.357  1.0813  0.0975 -2.8968
  101OSM   H15G10261  -0.327   5.581   9.336  0.7046 -0.5700 -1.4998
  101OSM   C16F10262  -0.158   5.503   9.249  0.6547 -0.0761  0.5794
  101OSM   H16F10263  -0.212   5.406   9.249  0.8295 -0.1780  0.8934
  101OSM   H16G10264  -0.053   5.472   9.270  0.4467 -1.4426 -0.2783
  101OSM   C17F10265  -0.177   5.576   9.114  0.0539  0.1983 -0.2384
  101OSM   H17F10266  -0.109   5.664   9.106 -0.8568  0.7836 -2.0419
  101OSM   H17G10267  -0.280   5.611   9.094  0.4000  0.2956 -2.0667
  101OSM   C18F10268  -0.121   5.507   8.992 -0.0926  0.1090  0.1145
  101OSM   H18F10269  -0.163   5.404   8.979 -2.1044 -0.0909  5.5561
  101OSM   H18G10270  -0.014   5.488   9.015 -0.0099  0.5143  0.0622
  101OSM   H18H10271  -0.127   5.572   8.902 -0.0647  1.3389  0.9785
  102OSM      N10272   5.300   4.386  10.907 -0.1860 -0.3156  0.4512
  102OSM    C1510273   5.387   4.279  10.965  0.9483 -0.1752  0.4451
  102OSM   H15A10274   5.490   4.286  10.932  1.1554 -3.3157  0.1047
  102OSM   H15B10275   5.345   4.189  10.922 -0.2157  1.4957 -2.1666
  102OSM   H15C10276   5.384   4.267  11.072  0.7208  1.8704  0.7081
  102OSM    C1410277   5.159   4.337  10.912 -0.3588 -0.1500 -0.4956
  102OSM   H14A10278   5.105   4.414  10.857  2.2640  0.2759 -2.7022
  102OSM   H14B10279   5.121   4.322  11.012  2.5800  0.2835  0.7986
  102OSM   H14C10280   5.140   4.247  10.856 -0.7056 -0.5312  0.2286
  102OSM    C1310281   5.321   4.509  10.992 -0.3023 -0.2664 -0.0338
  102OSM   H13A10282   5.272   4.594  10.946  0.7953  0.2895 -0.2034
  102OSM   H13B10283   5.422   4.545  10.994 -1.1828  2.4680  2.8327
  102OSM   H13C10284   5.281   4.497  11.091 -1.0317 -0.7500 -0.3733
  102OSM    C1210285   5.328   4.417  10.759  0.7722  0.0980  0.1952
  102OSM   H12A10286   5.258   4.496  10.737 -0.0740 -0.4302  0.9629
  102OSM   H12B10287   5.311   4.326  10.704  0.2505  0.2610  0.0808
  102OSM    C1110288   5.470   4.477  10.726  0.2821  0.2315  0.4354
  102OSM   H11A10289   5.479   4.487  10.615  1.8451 -0.9076  0.4318
  102OSM   H11B10290   5.544   4.402  10.761  0.1701  0.0452  0.2764
  102OSM      P10291   5.615   4.695  10.774  0.0847  0.0733 -0.1373
  102OSM    O1310292   5.583   4.823  10.841  0.3027 -0.6095 -0.0373
  102OSM    O1410293   5.742   4.625  10.807  0.3929  0.1972  0.6243
  102OSM    O1110294   5.620   4.725  10.617 -0.0925 -0.2510 -0.0272
  102OSM    O1210295   5.490   4.599  10.793 -0.1141 -0.3189 -0.4909
  102OSM    C1S10296   5.497   4.760  10.556 -0.1042  0.6063  0.2039
  102OSM    H1S10297   5.463   4.856  10.600  2.1908  2.1009 -1.0745
  102OSM    H1T10298   5.416   4.685  10.565 -2.3265  2.7438 -0.7087
  102OSM     NF10299   5.382   4.821  10.342 -0.0931  0.0763 -0.0339
  102OSM    HNF10300   5.336   4.759  10.279 -0.3387  1.1238 -0.9172
  102OSM    C2S10301   5.506   4.775  10.401  0.1844  0.0865 -0.2067
  102OSM    H2S10302   5.577   4.859  10.382  1.4888 -1.0363 -0.3982
  102OSM    C3S10303   5.571   4.648  10.335  0.2454  0.5018 -0.0398
  102OSM    H3S10304   5.507   4.559  10.320  1.0381  0.3398 -3.2360
  102OSM     O310305   5.690   4.598  10.400  0.2477 -0.0050 -0.2359
  102OSM    HO310306   5.679   4.647  10.482 -0.3224  1.2601 -1.0380
  102OSM    C4S10307   5.599   4.679  10.190 -0.2765  0.1510  0.1062
  102OSM    H4S10308   5.513   4.648  10.129 -1.4789 -0.9303  2.2531
  102OSM    C5S10309   5.715   4.733  10.146  0.1262 -0.6693  0.9153
  102OSM    H5S10310   5.797   4.761  10.214  1.1318  2.0326 -1.2491
  102OSM    C6S10311   5.741   4.768   9.990  0.2012 -0.4929 -0.5342
  102OSM    H6S10312   5.790   4.677   9.951  1.3005 -0.5346  0.8416
  102OSM    H6T10313   5.818   4.848   9.980  0.7301 -1.0564 -1.0330
  102OSM    C7S10314   5.629   4.795   9.896 -0.3454  0.1115 -0.3102
  102OSM    H7S10315   5.574   4.887   9.925  1.4592  0.7955  1.1338
  102OSM    H7T10316   5.559   4.709   9.893 -0.6240  0.3520 -1.5883
  102OSM    C8S10317   5.679   4.803   9.747 -0.6864 -0.2230  0.4216
  102OSM    H8S10318   5.748   4.716   9.741 -2.5022 -1.7776  1.1212
  102OSM    H8T10319   5.740   4.895   9.736  1.8481 -1.6882  1.2998
  102OSM    C9S10320   5.568   4.814   9.644  0.2151 -0.0342  0.6708
  102OSM    H9S10321   5.508   4.903   9.670  0.6667  0.2469  0.7484
  102OSM    H9T10322   5.497   4.728   9.650  1.1936 -0.9893 -0.5975
  102OSM   C10S10323   5.631   4.818   9.504  0.5060  0.4091  0.2743
  102OSM   H10S10324   5.676   4.718   9.487 -1.2933 -0.0237 -2.7183
  102OSM   H10T10325   5.709   4.897   9.494  1.2268 -0.1472  1.3432
  102OSM   C11S10326   5.532   4.858   9.403  0.0466  0.0452  0.4761
  102OSM   H11S10327   5.532   4.969   9.403  1.8700  0.0824 -0.2508
  102OSM   H11T10328   5.434   4.812   9.428  0.8147 -0.3913  3.0272
  102OSM   C12S10329   5.580   4.817   9.262  0.2860  0.1591  0.1095
  102OSM   H12S10330   5.580   4.706   9.265 -0.8472  0.0901  4.4295
  102OSM   H12T10331   5.683   4.849   9.232 -0.1798 -0.6403 -2.6421
  102OSM   C13S10332   5.488   4.871   9.148 -0.0491 -0.1137  0.1616
  102OSM   H13S10333   5.491   4.980   9.124 -0.3504 -0.6064 -2.4776
  102OSM   H13T10334   5.380   4.864   9.175  0.5663 -2.1727  2.3458
  102OSM   C14S10335   5.501   4.790   9.017  0.0085  0.0477  0.2221
  102OSM   H14S10336   5.483   4.681   9.030 -1.6905  0.5414  2.6749
  102OSM   H14T10337   5.602   4.804   8.973  1.1959 -2.3855  1.9426
  102OSM   C15S10338   5.398   4.837   8.916 -0.2518  0.0808  0.5588
  102OSM   H15S10339   5.397   4.947   8.901  1.6027  0.1930  1.0223
  102OSM   H15T10340   5.302   4.792   8.950 -0.8228  0.2224 -0.7783
  102OSM   C16S10341   5.415   4.760   8.783 -0.1641 -1.0526 -0.2832
  102OSM   H16S10342   5.411   4.652   8.806 -0.1844 -0.9076  0.4190
  102OSM   H16T10343   5.513   4.773   8.733 -0.8592  3.4402 -0.9276
  102OSM   C17S10344   5.307   4.792   8.672  0.3106  0.1767  0.0820
  102OSM   H17S10345   5.320   4.900   8.650  1.9620 -0.0140 -0.0154
  102OSM   H17T10346   5.205   4.773   8.710  0.4140 -2.1008 -0.5882
  102OSM   C18S10347   5.314   4.700   8.547  0.4824 -0.0242 -0.4704
  102OSM   H18S10348   5.260   4.604   8.566  0.2276 -0.0017 -1.0713
  102OSM   H18T10349   5.418   4.681   8.512  0.8310 -0.7248  0.8486
  102OSM   H18U10350   5.256   4.743   8.464 -0.6569 -2.2072 -0.8872
  102OSM    C1F10351   5.333   4.945  10.366  0.2112  0.0794 -0.2285
  102OSM     OF10352   5.388   5.020  10.445  0.1466  0.1224  0.4485
  102OSM    C2F10353   5.205   4.990  10.292 -0.1522 -0.1866  0.2768
  102OSM    H2F10354   5.146   5.050  10.365  0.1020 -0.7633  0.9584
  102OSM    H2G10355   5.153   4.896  10.266  0.1331  0.0699 -1.3326
  102OSM    C3F10356   5.229   5.085  10.169  0.1869  0.7300 -0.4795
  102OSM    H3F10357   5.325   5.135  10.190 -0.4355  0.3416  4.2525
  102OSM    H3G10358   5.140   5.151  10.171 -1.2976 -1.1777  2.4247
  102OSM    C4F10359   5.246   5.016  10.031  0.5649  0.5502  0.1076
  102OSM    H4F10360   5.166   4.943  10.007 -0.9093  2.2920 -0.4866
  102OSM    H4G10361   5.343   4.963  10.015 -1.1368 -3.1313  0.9868
  102OSM    C5F10362   5.227   5.115   9.918 -0.9107 -0.0268 -0.2995
  102OSM    H5F10363   5.305   5.193   9.929 -1.8837  0.9246 -0.0273
  102OSM    H5G10364   5.130   5.167   9.930 -0.4066  0.7600  0.4220
  102OSM    C6F10365   5.233   5.048   9.781  0.0748 -0.8836 -0.8932
  102OSM    H6F10366   5.144   4.982   9.770 -0.9014 -0.0288  1.2860
  102OSM    H6G10367   5.325   4.987   9.773  1.3995  0.6881  1.2820
  102OSM    C7F10368   5.234   5.141   9.663 -0.9643  0.1925  0.1836
  102OSM    H7F10369   5.330   5.197   9.659 -0.4460 -0.4413  2.5776
  102OSM    H7G10370   5.155   5.219   9.678  1.1203  1.9735  2.9375
  102OSM    C8F10371   5.220   5.064   9.530 -0.2396  0.5176 -0.2821
  102OSM    H8F10372   5.130   5.001   9.541 -0.0313  0.4465  1.2145
  102OSM    H8G10373   5.306   4.993   9.533  0.1221  0.9338 -0.5555
  102OSM    C9F10374   5.232   5.136   9.398  0.2290 -0.1929  0.3325
  102OSM    H9F10375   5.330   5.185   9.388  0.8405 -0.7870  2.7571
  102OSM   C10F10376   5.145   5.142   9.300 -0.5034  0.4617 -0.0363
  102OSM   H10F10377   5.164   5.219   9.223 -0.9932 -0.2122 -0.8477
  102OSM   C11F10378   5.013   5.072   9.305  0.0374 -0.3140  0.6811
  102OSM   H11F10379   4.982   5.043   9.408  2.3575 -0.7352  1.3256
  102OSM   H11G10380   5.017   4.975   9.252 -0.1775 -0.5483  1.0881
  102OSM   C12F10381   4.908   5.157   9.234 -0.0335 -0.1447 -0.6101
  102OSM   H12F10382   4.917   5.264   9.265  2.5123  0.0712 -1.8503
  102OSM   H12G10383   4.808   5.121   9.267  1.4590 -0.7116  3.9875
  102OSM   C13F10384   4.903   5.163   9.084  0.0045  0.0796 -0.1558
  102OSM   H13F10385   4.889   5.057   9.055  0.5354  0.3419 -1.4360
  102OSM   H13G10386   5.004   5.190   9.046 -0.8570 -0.1420 -2.8508
  102OSM   C14F10387   4.797   5.267   9.026 -0.2422  0.5679  0.8869
  102OSM   H14F10388   4.699   5.235   9.068 -0.7796 -0.0430 -0.7344
  102OSM   H14G10389   4.797   5.256   8.915  2.1229 -2.0794  1.0379
  102OSM   C15F10390   4.828   5.408   9.060  0.3316  0.0077 -0.1636
  102OSM   H15F10391   4.934   5.414   9.092  0.4229  1.9729 -0.7440
  102OSM   H15G10392   4.770   5.434   9.151 -0.7163 -3.1107  0.2042
  102OSM   C16F10393   4.803   5.510   8.953 -0.0243 -1.2385  0.6258
  102OSM   H16F10394   4.846   5.484   8.854  0.9126  0.8758  0.4176
  102OSM   H16G10395   4.851   5.601   8.995  1.7122 -1.8708  0.0798
  102OSM   C17F10396   4.662   5.553   8.927  0.1246 -0.3612  0.7227
  102OSM   H17F10397   4.621   5.582   9.026  0.1632  0.3448  0.5379
  102OSM   H17G10398   4.607   5.463   8.893 -0.2168  0.1225 -0.0222
  102OSM   C18F10399   4.649   5.661   8.821  0.4380 -0.2415  0.3601
  102OSM   H18F10400   4.546   5.674   8.783  1.0392 -1.3561 -1.8156
  102OSM   H18G10401   4.708   5.643   8.728  1.5769 -0.8393  1.1635
  102OSM   H18H10402   4.682   5.754   8.872 -1.4408 -0.7977  2.7408
  103OSM      N10403   1.061   6.416  11.399  0.2441 -0.0617 -0.3964
  103OSM    C1510404   1.051   6.309  11.501  0.5092 -0.4216  0.9573
  103OSM   H15A10405   1.063   6.208  11.463  1.1483  0.6624 -1.9680
  103OSM   H15B10406   0.955   6.314  11.551 -0.6286  1.1113 -1.2427
  103OSM   H15C10407   1.123   6.316  11.581  0.9982  0.6103  0.4410
  103OSM    C1410408   1.039   6.546  11.466 -0.1659  0.5736  0.5284
  103OSM   H14A10409   1.033   6.629  11.397 -0.1957 -0.0637 -0.2456
  103OSM   H14B10410   1.121   6.560  11.535  0.1420 -0.6737  0.4326
  103OSM   H14C10411   0.943   6.547  11.516  0.5673  1.0462  1.9942
  103OSM    C1310412   1.200   6.419  11.340 -0.6976  0.1331 -0.5839
  103OSM   H13A10413   1.219   6.501  11.273 -2.1085 -0.0563 -1.2473
  103OSM   H13B10414   1.220   6.326  11.288 -2.7408 -0.6530 -0.0543
  103OSM   H13C10415   1.274   6.440  11.416 -0.1962 -1.2074 -0.6796
  103OSM    C1210416   0.960   6.405  11.288 -0.0765 -0.1709  0.0076
  103OSM   H12A10417   0.966   6.481  11.212 -0.4569 -0.1114  0.0320
  103OSM   H12B10418   0.863   6.428  11.331 -1.9379 -3.1755 -2.1205
  103OSM    C1110419   0.956   6.272  11.201  0.0225 -0.1756  1.2225
  103OSM   H11A10420   0.877   6.278  11.123  2.2720 -0.3139 -1.1763
  103OSM   H11B10421   0.936   6.178  11.257  0.0523 -2.2451 -2.0178
  103OSM      P10422   1.116   6.094  11.077 -0.1028  0.3498 -0.0492
  103OSM    O1310423   1.241   6.099  11.001  0.5031 -0.1656 -0.2050
  103OSM    O1410424   1.117   5.994  11.184 -0.0281 -0.2919 -0.1701
  103OSM    O1110425   0.993   6.053  10.987  0.2613  0.4082 -0.2465
  103OSM    O1210426   1.080   6.239  11.133 -0.2979  0.2240 -0.1544
  103OSM    C1S10427   0.930   6.146  10.900 -0.1055 -0.4718 -0.8207
  103OSM    H1S10428   0.957   6.251  10.927 -2.8570  1.0694 -3.3424
  103OSM    H1T10429   0.819   6.144  10.898 -0.1747  0.2135  0.7961
  103OSM     NF10430   0.957   6.243  10.677 -0.1482  0.0727  0.7628
  103OSM    HNF10431   0.870   6.237  10.630 -0.4952  0.8580  1.2819
  103OSM    C2S10432   0.988   6.131  10.759 -0.0605 -0.1414  0.6922
  103OSM    H2S10433   1.099   6.123  10.763 -0.0870  0.1219  2.5158
  103OSM    C3S10434   0.937   5.997  10.691 -0.0967 -0.5172  0.3421
  103OSM    H3S10435   0.826   5.991  10.690 -0.3082  1.8158 -1.8942
  103OSM     O310436   0.980   5.883  10.765 -0.3637 -0.2308 -0.5733
  103OSM    HO310437   1.009   5.916  10.851 -1.1393 -0.3749 -0.2456
  103OSM    C4S10438   0.986   5.990  10.550  0.2471  0.2561 -0.0868
  103OSM    H4S10439   0.913   6.024  10.476  1.5715  2.9862 -0.2376
  103OSM    C5S10440   1.101   5.947  10.495 -0.2973 -0.2775 -0.3220
  103OSM    H5S10441   1.182   5.911  10.560 -0.0740 -2.3854 -1.6653
  103OSM    C6S10442   1.124   5.930  10.349  0.4700 -0.1840 -0.0849
  103OSM    H6S10443   1.176   5.832  10.339  1.0431  0.1424 -0.3742
  103OSM    H6T10444   1.185   6.016  10.314 -1.0684  0.7309 -0.6296
  103OSM    C7S10445   1.002   5.917  10.250 -0.0187  0.6156 -0.8571
  103OSM    H7S10446   0.934   6.005  10.261 -0.0311  0.3293  1.9834
  103OSM    H7T10447   0.946   5.826  10.278  0.5970  0.8801  1.4052
  103OSM    C8S10448   1.050   5.896  10.105  0.0585  0.7947 -0.0151
  103OSM    H8S10449   1.097   5.796  10.094 -0.9220 -0.0235  2.4277
  103OSM    H8T10450   1.132   5.970  10.092 -2.1158  3.3645  0.1397
  103OSM    C9S10451   0.945   5.941  10.003  0.3849  0.9571 -0.1071
  103OSM    H9S10452   0.892   6.032  10.038  0.7859  0.1675  2.7547
  103OSM    H9T10453   0.869   5.862   9.985  2.3949 -0.9896 -0.4657
  103OSM   C10S10454   1.010   5.967   9.866  0.3533  0.5073  0.5458
  103OSM   H10S10455   1.034   5.866   9.826 -0.1126  1.3170 -1.8908
  103OSM   H10T10456   1.107   6.021   9.880  1.2304 -0.0277 -2.7295
  103OSM   C11S10457   0.935   6.053   9.762 -0.4102  0.0159 -0.4107
  103OSM   H11S10458   0.945   6.160   9.792  1.0834 -0.4922  1.0620
  103OSM   H11T10459   0.829   6.023   9.771  0.1939 -1.7605  1.5114
  103OSM   C12S10460   0.986   6.032   9.621  0.6386 -0.0950  0.6065
  103OSM   H12S10461   0.970   5.924   9.599  1.6794 -0.1245 -0.0250
  103OSM   H12T10462   1.094   6.054   9.612  1.0111 -1.0831  2.2555
  103OSM   C13S10463   0.914   6.132   9.522 -0.2453  0.4663  0.6724
  103OSM   H13S10464   0.902   6.230   9.572 -4.0760 -0.0272  1.0117
  103OSM   H13T10465   0.817   6.078   9.517  0.8388 -1.9510  3.1672
  103OSM   C14S10466   0.975   6.132   9.380  0.1222 -0.0376 -0.2527
  103OSM   H14S10467   1.076   6.178   9.387  0.2866 -0.3150 -0.7092
  103OSM   H14T10468   0.923   6.191   9.301 -1.0593 -0.3520  0.2727
  103OSM   C15S10469   0.985   5.985   9.322 -0.1318 -0.3943 -0.5410
  103OSM   H15S10470   0.884   5.939   9.331 -0.5458  0.8799  2.6317
  103OSM   H15T10471   1.056   5.927   9.384 -0.4005  0.6793  0.8197
  103OSM   C16S10472   1.012   5.976   9.175 -0.5926 -0.1780  0.5711
  103OSM   H16S10473   1.117   5.942   9.161 -0.3036  1.0296 -0.3048
  103OSM   H16T10474   1.014   6.075   9.125  2.7141 -0.9206 -1.0581
  103OSM   C17S10475   0.909   5.894   9.095 -0.4325  0.7069 -0.5735
  103OSM   H17S10476   0.884   5.798   9.144 -0.3936  0.4600 -1.0304
  103OSM   H17T10477   0.957   5.879   8.996 -0.8615 -0.9961 -0.5574
  103OSM   C18S10478   0.779   5.965   9.058 -0.4544 -0.0949 -0.1084
  103OSM   H18S10479   0.796   6.074   9.045  0.0125 -0.1525  0.0209
  103OSM   H18T10480   0.712   5.943   9.144  2.0148  0.6232  2.1072
  103OSM   H18U10481   0.715   5.926   8.976 -0.0595  0.3846 -0.6504
  103OSM    C1F10482   1.023   6.356  10.677  0.2673 -0.2136  0.1714
  103OSM     OF10483   1.120   6.376  10.752 -0.4058 -0.2563 -0.0563
  103OSM    C2F10484   0.978   6.474  10.582  0.3356  0.4130 -0.8382
  103OSM    H2F10485   1.012   6.570  10.625 -0.8579  0.3882  0.2058
  103OSM    H2G10486   0.868   6.472  10.569 -0.3625 -1.2802  3.5804
  103OSM    C3F10487   1.044   6.476  10.440  0.4653 -0.1314 -0.9881
  103OSM    H3F10488   1.153   6.465  10.455  0.8279  3.3569 -0.1044
  103OSM    H3G10489   1.038   6.579  10.397  1.5155  1.3803  2.1695
  103OSM    C4F10490   1.010   6.363  10.342 -1.1983  0.5189 -0.8385
  103OSM    H4F10491   0.904   6.376  10.312 -1.1942 -0.4718 -1.3079
  103OSM    H4G10492   1.017   6.263  10.390 -2.3917  0.8379  0.0348
  103OSM    C5F10493   1.089   6.367  10.216  0.1764  0.8505  0.0013
  103OSM    H5F10494   1.065   6.265  10.178  0.0580  1.9565 -3.1971
  103OSM    H5G10495   1.199   6.381  10.221  0.1187  1.4831 -0.3753
  103OSM    C6F10496   1.040   6.461  10.102  0.6278  0.2302 -0.2731
  103OSM    H6F10497   0.944   6.506  10.135 -1.0403 -3.2732  0.1529
  103OSM    H6G10498   1.025   6.387  10.021 -2.4276  0.6857 -0.2251
  103OSM    C7F10499   1.128   6.578  10.059 -0.2665 -0.0760  0.6209
  103OSM    H7F10500   1.226   6.539  10.024  0.6322  3.9082 -1.9159
  103OSM    H7G10501   1.132   6.647  10.146  0.9957 -2.5454  2.6501
  103OSM    C8F10502   1.064   6.658   9.936  0.0326  0.2693  0.3371
  103OSM    H8F10503   0.984   6.724   9.976 -0.6131  0.5745 -1.4048
  103OSM    H8G10504   1.025   6.585   9.862  0.7173 -1.9974  2.0885
  103OSM    C9F10505   1.159   6.738   9.850 -0.0745  0.2409  0.6256
  103OSM    H9F10506   1.147   6.848   9.846 -0.6819  0.2619  2.1797
  103OSM   C10F10507   1.252   6.680   9.766  0.3939 -0.1125  0.6429
  103OSM   H10F10508   1.320   6.746   9.711  0.3388 -0.1092  0.5798
  103OSM   C11F10509   1.287   6.537   9.751  0.6769  1.0202  0.1418
  103OSM   H11F10510   1.248   6.461   9.822 -0.3082  0.2481 -1.1618
  103OSM   H11G10511   1.398   6.534   9.753  0.6463  0.0851  1.9859
  103OSM   C12F10512   1.258   6.489   9.607  0.9688 -0.7860  0.2361
  103OSM   H12F10513   1.149   6.506   9.594  1.2521  0.8069 -0.2394
  103OSM   H12G10514   1.262   6.378   9.608 -0.1865 -0.8798 -1.1766
  103OSM   C13F10515   1.332   6.554   9.491 -0.7356  0.0479  0.0329
  103OSM   H13F10516   1.321   6.664   9.506  1.3304  0.0879  1.5994
  103OSM   H13G10517   1.437   6.531   9.516 -0.6748 -0.0767 -0.3330
  103OSM   C14F10518   1.295   6.501   9.354  0.3631  0.0057 -0.4793
  103OSM   H14F10519   1.358   6.545   9.274 -0.5688 -2.6569 -2.8807
  103OSM   H14G10520   1.189   6.529   9.332  0.0671 -1.3978 -0.9205
  103OSM   C15F10521   1.326   6.347   9.339 -0.2112 -0.5297  0.2911
  103OSM   H15F10522   1.259   6.283   9.400 -1.1271 -1.8027 -1.9250
  103OSM   H15G10523   1.435   6.329   9.350 -0.1893 -2.0623 -1.9005
  103OSM   C16F10524   1.303   6.291   9.196  1.0649  0.2036  0.0148
  103OSM   H16F10525   1.341   6.373   9.131 -0.9513  2.8546  1.9183
  103OSM   H16G10526   1.193   6.285   9.185  0.8376  2.9182  0.0400
  103OSM   C17F10527   1.377   6.159   9.165  0.2203  0.5105  0.6026
  103OSM   H17F10528   1.335   6.085   9.236  1.5451 -1.2754 -0.3973
  103OSM   H17G10529   1.485   6.161   9.190  0.2074  0.6691  0.6466
  103OSM   C18F10530   1.360   6.105   9.020  0.0684 -0.3339  0.5201
  103OSM   H18F10531   1.393   6.189   8.956 -0.2850  0.1733  0.9950
  103OSM   H18G10532   1.253   6.090   8.996  0.3181 -2.4299  0.4995
  103OSM   H18H10533   1.411   6.008   9.002  0.0372  0.0704 -1.9807
  104OSM      N10534   5.240   6.228  10.904 -0.1973  0.0678 -0.8051
  104OSM    C1510535   5.219   6.206  10.759 -0.8165 -0.4134 -0.3215
  104OSM   H15A10536   5.220   6.102  10.731  1.0409 -0.0608 -1.7171
  104OSM   H15B10537   5.291   6.265  10.704 -2.0790  0.5512 -1.0136
  104OSM   H15C10538   5.123   6.242  10.723 -0.2388  1.2442 -0.2959
  104OSM    C1410539   5.385   6.236  10.925 -0.4151  0.1067  0.3179
  104OSM   H14A10540   5.423   6.145  10.882  1.9160  1.2756 -0.2524
  104OSM   H14B10541   5.413   6.239  11.029 -3.1652  0.9063  1.1387
  104OSM   H14C10542   5.439   6.313  10.872  1.0569 -1.1517 -0.0683
  104OSM    C1310543   5.178   6.363  10.929  0.4271  0.2297 -0.7907
  104OSM   H13A10544   5.071   6.353  10.914  0.2051  1.1551  0.0800
  104OSM   H13B10545   5.215   6.440  10.863 -0.6748  1.5639  0.0880
  104OSM   H13C10546   5.196   6.389  11.032 -0.0230 -1.0793 -0.3651
  104OSM    C1210547   5.177   6.114  10.980 -0.1688 -0.2174 -0.1227
  104OSM   H12A10548   5.170   6.150  11.081 -0.4849  0.5643 -0.4116
  104OSM   H12B10549   5.236   6.024  10.973  1.4427  0.7171  1.0515
  104OSM    C1110550   5.031   6.062  10.947  0.4668  0.0355  0.2446
  104OSM   H11A10551   5.002   5.993  11.029  0.0177 -1.3125 -1.0049
  104OSM   H11B10552   5.013   6.004  10.854  1.9821 -2.2860  1.2903
  104OSM      P10553   4.852   6.217  10.842 -0.1695 -0.0218 -0.1272
  104OSM    O1310554   4.734   6.135  10.860  0.3518 -0.1387  0.7796
  104OSM    O1410555   4.840   6.364  10.837  0.5997 -0.1625  0.2661
  104OSM    O1110556   4.929   6.173  10.711  0.3562  0.1406  0.2573
  104OSM    O1210557   4.946   6.179  10.960  0.8610  0.2113 -0.7279
  104OSM    C1S10558   4.923   6.249  10.590  0.7315 -1.1737 -0.8091
  104OSM    H1S10559   4.979   6.341  10.617  1.4178 -2.0461  0.9359
  104OSM    H1T10560   4.816   6.277  10.579  0.9479  0.6970  1.1628
  104OSM     NF10561   4.987   6.292  10.365 -0.1213  0.2454  0.0289
  104OSM    HNF10562   4.916   6.290  10.295 -0.2769  0.6906  0.1695
  104OSM    C2S10563   4.987   6.186  10.462  0.2046 -0.0543 -0.2589
  104OSM    H2S10564   5.092   6.162  10.488  0.9490  1.2759 -1.8015
  104OSM    C3S10565   4.904   6.065  10.421 -0.5069  0.5168  0.5141
  104OSM    H3S10566   4.801   6.097  10.395 -0.2806  1.2168  0.4654
  104OSM     O310567   4.901   5.966  10.527 -0.1567  0.3424 -0.1143
  104OSM    HO310568   4.903   6.014  10.610  5.4835 -0.6011  0.6849
  104OSM    C4S10569   4.964   6.002  10.297  0.6277 -0.1861 -0.5743
  104OSM    H4S10570   5.066   5.971  10.324  0.2035  0.0725  1.4747
  104OSM    C5S10571   4.911   6.009  10.175  0.0901 -0.4200 -0.2162
  104OSM    H5S10572   4.815   6.056  10.148 -0.3770 -2.6919 -2.9362
  104OSM    C6S10573   4.984   5.956  10.055  0.0158 -0.0408  0.3905
  104OSM    H6S10574   4.926   5.941   9.962 -1.6367  1.6516  1.0857
  104OSM    H6T10575   5.037   5.863  10.083  1.0458  0.8169  1.4532
  104OSM    C7S10576   5.116   6.043  10.024 -0.1127  0.1143  0.1481
  104OSM    H7S10577   5.181   5.986   9.954  0.8979  2.5026 -0.9637
  104OSM    H7T10578   5.175   6.059  10.116 -1.3967 -0.1351  1.0500
  104OSM    C8S10579   5.100   6.180   9.949 -0.5856 -0.6372  0.3756
  104OSM    H8S10580   5.071   6.249  10.031 -0.0884 -0.2137  0.1988
  104OSM    H8T10581   5.018   6.164   9.876 -1.4465 -0.4213  1.2752
  104OSM    C9S10582   5.223   6.227   9.880 -0.4692  1.0019  0.0827
  104OSM    H9S10583   5.254   6.146   9.811 -0.8100  0.5325  0.4729
  104OSM    H9T10584   5.305   6.260   9.947 -1.5121  5.0014 -0.3072
  104OSM   C10S10585   5.191   6.344   9.790 -0.1623  1.2214  0.5727
  104OSM   H10S10586   5.144   6.429   9.845  1.8879  3.9435 -1.6099
  104OSM   H10T10587   5.112   6.336   9.712 -0.6071  1.4358  0.9885
  104OSM   C11S10588   5.320   6.403   9.726  0.7574 -0.4690  0.8512
  104OSM   H11S10589   5.376   6.333   9.660 -2.5667  0.2175 -3.0515
  104OSM   H11T10590   5.384   6.440   9.810  2.0196  2.2604 -1.1720
  104OSM   C12S10591   5.277   6.518   9.640 -0.8005  0.0371 -0.3928
  104OSM   H12S10592   5.365   6.584   9.625 -1.8303  1.3973 -0.6742
  104OSM   H12T10593   5.213   6.587   9.699  1.2867  0.2212  1.7905
  104OSM   C13S10594   5.227   6.483   9.507 -0.4932  0.6868  0.4533
  104OSM   H13S10595   5.137   6.418   9.504 -1.1327  1.5659 -0.7875
  104OSM   H13T10596   5.309   6.424   9.460  0.8500  1.6510  1.5410
  104OSM   C14S10597   5.196   6.602   9.420 -0.2185  0.3990 -0.9212
  104OSM   H14S10598   5.275   6.680   9.420 -1.3247  1.6466  2.0161
  104OSM   H14T10599   5.107   6.652   9.462 -0.5090 -1.5518  0.9629
  104OSM   C15S10600   5.174   6.555   9.272  0.4817  0.7169  0.0408
  104OSM   H15S10601   5.094   6.478   9.284 -0.6031  1.5506 -1.5942
  104OSM   H15T10602   5.265   6.498   9.242 -1.3919 -2.1088 -0.6593
  104OSM   C16S10603   5.133   6.668   9.180  0.4999  0.4378  0.0002
  104OSM   H16S10604   5.214   6.743   9.166  2.1562 -1.5433 -1.7534
  104OSM   H16T10605   5.043   6.716   9.224  0.1777 -0.6854  0.5948
  104OSM   C17S10606   5.102   6.619   9.042  0.1560  0.7539  0.7362
  104OSM   H17S10607   5.044   6.525   9.056 -1.1762  1.3402 -0.6359
  104OSM   H17T10608   5.188   6.590   8.977 -0.5291  2.0570 -0.8130
  104OSM   C18S10609   5.011   6.717   8.973 -0.0397  0.4110  0.2251
  104OSM   H18S10610   5.053   6.819   8.972 -0.7979  0.7680 -2.1241
  104OSM   H18T10611   4.907   6.721   9.011 -0.3511 -1.5545 -0.2818
  104OSM   H18U10612   5.006   6.688   8.865 -2.1114  0.2099  0.3267
  104OSM    C1F10613   5.063   6.401  10.365 -0.4778 -0.7014  0.0156
  104OSM     OF10614   5.168   6.408  10.426  0.5797 -0.1047 -0.2351
  104OSM    C2F10615   5.017   6.517  10.282  0.2633 -0.4590  0.2648
  104OSM    H2F10616   4.921   6.550  10.327  1.3897  0.0371  2.4515
  104OSM    H2G10617   4.998   6.494  10.176  2.3054  0.3123 -0.3206
  104OSM    C3F10618   5.123   6.629  10.292 -0.0899 -0.9133  0.6391
  104OSM    H3F10619   5.215   6.587  10.247 -0.0339 -1.3910  1.1816
  104OSM    H3G10620   5.144   6.646  10.399  2.8157  0.9695 -0.1334
  104OSM    C4F10621   5.097   6.756  10.211  0.2143 -0.4845  0.0299
  104OSM    H4F10622   5.187   6.821  10.225 -0.0758  0.8774 -3.4322
  104OSM    H4G10623   5.011   6.815  10.249  2.0914  3.8119 -1.6714
  104OSM    C5F10624   5.082   6.725  10.065 -0.2099 -1.0870  0.3375
  104OSM    H5F10625   4.976   6.696  10.050  0.0109 -1.6236 -0.1934
  104OSM    H5G10626   5.151   6.639  10.055  3.6047  1.7435 -0.2154
  104OSM    C6F10627   5.125   6.828   9.960  0.5036 -0.3473  0.2810
  104OSM    H6F10628   5.234   6.817   9.942  0.7158  0.2811  1.1197
  104OSM    H6G10629   5.095   6.926  10.002 -2.5325 -1.4192  0.9000
  104OSM    C7F10630   5.063   6.809   9.825  0.0364 -0.2304  0.2729
  104OSM    H7F10631   4.967   6.865   9.829 -0.4049 -0.9557  0.2158
  104OSM    H7G10632   5.031   6.702   9.817 -2.2296  0.3091  1.1948
  104OSM    C8F10633   5.140   6.863   9.704 -0.7396  0.1600 -0.3812
  104OSM    H8F10634   5.082   6.850   9.610  0.1155 -3.5906 -0.5399
  104OSM    H8G10635   5.232   6.801   9.700 -1.9771 -2.1267  2.4803
  104OSM    C9F10636   5.161   7.012   9.722 -0.2090  0.2984  0.6365
  104OSM    H9F10637   5.116   7.056   9.813 -0.1588 -1.9031  1.8052
  104OSM   C10F10638   5.253   7.078   9.654  0.2820 -0.9828  0.7260
  104OSM   H10F10639   5.273   7.185   9.672 -1.1024 -0.4142 -0.8391
  104OSM   C11F10640   5.348   7.021   9.552  0.5848 -1.1528 -0.3991
  104OSM   H11F10641   5.331   6.913   9.535 -0.7165 -0.9361 -0.5794
  104OSM   H11G10642   5.453   7.032   9.586  0.4306 -3.9551  1.2542
  104OSM   C12F10643   5.339   7.104   9.415  0.0115  0.6238  0.1587
  104OSM   H12F10644   5.232   7.110   9.385  0.3585  1.3343 -0.9602
  104OSM   H12G10645   5.382   7.048   9.329 -1.3678  1.6817 -1.2595
  104OSM   C13F10646   5.384   7.245   9.420  0.1778  0.3944  0.0198
  104OSM   H13F10647   5.445   7.272   9.509  1.8893  1.4091 -1.3898
  104OSM   H13G10648   5.298   7.314   9.413  0.5488  0.9194  0.5678
  104OSM   C14F10649   5.473   7.282   9.296  1.4076  0.2379  0.2897
  104OSM   H14F10650   5.422   7.243   9.205  0.3609 -0.2830  1.0838
  104OSM   H14G10651   5.568   7.225   9.300  1.6371  0.6876  1.7250
  104OSM   C15F10652   5.496   7.433   9.277  0.3477  0.0115 -0.3673
  104OSM   H15F10653   5.559   7.458   9.365 -0.3286 -1.8374  0.7040
  104OSM   H15G10654   5.397   7.483   9.277 -0.7777 -2.0616  0.9063
  104OSM   C16F10655   5.556   7.474   9.146  0.4263 -0.4334 -0.6640
  104OSM   H16F10656   5.535   7.580   9.121  3.0656  0.1724 -0.5633
  104OSM   H16G10657   5.497   7.405   9.081 -0.1130  0.0565 -0.7051
  104OSM   C17F10658   5.705   7.441   9.119  0.4311 -0.1845  0.5063
  104OSM   H17F10659   5.709   7.435   9.009 -3.1600  0.6807  0.2105
  104OSM   H17G10660   5.725   7.347   9.174  3.0848 -0.3009 -0.4798
  104OSM   C18F10661   5.801   7.545   9.174  0.7569  0.9816  0.8623
  104OSM   H18F10662   5.774   7.643   9.131  0.5027 -0.1731 -1.8178
  104OSM   H18G10663   5.908   7.530   9.145  0.6249  1.6557 -0.0249
  104OSM   H18H10664   5.795   7.547   9.285 -2.3070 -2.0975  0.9311
  105OSM      N10665   4.415   6.273  11.117 -0.0922 -0.2424 -0.0226
  105OSM    C1510666   4.486   6.237  11.243 -1.2686 -0.2604  0.1025
  105OSM   H15A10667   4.546   6.147  11.239  0.4361  0.8552 -0.8899
  105OSM   H15B10668   4.421   6.231  11.329 -0.3129 -1.7564  0.7431
  105OSM   H15C10669   4.561   6.309  11.275 -1.4045  0.2448 -0.6809
  105OSM    C1410670   4.307   6.378  11.144  0.2500  0.2080 -0.9240
  105OSM   H14A10671   4.239   6.336  11.216  3.2211  0.1475  2.0584
  105OSM   H14B10672   4.258   6.412  11.054 -1.0972 -1.0218 -0.6923
  105OSM   H14C10673   4.365   6.454  11.194 -0.5557  0.2455 -0.0277
  105OSM    C1310674   4.517   6.339  11.036 -0.6422 -0.0630  0.0050
  105OSM   H13A10675   4.607   6.283  11.014  1.9121  0.8348  6.1168
  105OSM   H13B10676   4.552   6.427  11.088  1.7009 -1.5760  1.1881
  105OSM   H13C10677   4.474   6.366  10.941 -2.3058 -0.0805  0.7169
  105OSM    C1210678   4.361   6.149  11.057  0.1611 -0.4628 -0.4412
  105OSM   H12A10679   4.294   6.095  11.121 -0.0672 -0.5135 -0.7201
  105OSM   H12B10680   4.441   6.077  11.045  0.4554 -0.8408  2.9167
  105OSM    C1110681   4.291   6.162  10.914 -0.1874 -0.5171 -0.1021
  105OSM   H11A10682   4.338   6.232  10.842  2.0190 -0.9532  0.8212
  105OSM   H11B10683   4.187   6.197  10.929  0.2427  0.8216 -0.0889
  105OSM      P10684   4.174   5.945  10.824 -0.0834  0.1631  0.0429
  105OSM    O1310685   4.220   5.803  10.805  0.5510 -0.7213 -0.1927
  105OSM    O1410686   4.068   5.967  10.924  0.1930  0.4435  0.6058
  105OSM    O1110687   4.133   6.005  10.683 -0.0800  0.0711  0.1218
  105OSM    O1210688   4.300   6.036  10.848 -0.1288  0.4274  0.2429
  105OSM    C1S10689   4.234   6.015  10.583  0.5343 -0.7766 -0.0521
  105OSM    H1S10690   4.322   5.948  10.592  2.6234  2.0744  3.5498
  105OSM    H1T10691   4.278   6.117  10.592  0.8813 -0.8675 -0.6794
  105OSM     NF10692   4.288   5.981  10.355 -0.1388  0.2498 -0.5312
  105OSM    HNF10693   4.332   6.056  10.307  1.5415 -1.6014 -2.0706
  105OSM    C2S10694   4.174   6.009  10.446 -0.0100  0.2360  0.2729
  105OSM    H2S10695   4.111   5.918  10.445  2.4281 -1.5432  0.4975
  105OSM    C3S10696   4.105   6.143  10.424 -0.2131 -0.4069  0.7438
  105OSM    H3S10697   4.175   6.226  10.448 -0.1891  0.3764 -1.7890
  105OSM     O310698   3.982   6.165  10.495  0.0656  0.2397  0.0103
  105OSM    HO310699   3.988   6.094  10.560 -0.1331 -0.5669 -0.8280
  105OSM    C4S10700   4.073   6.154  10.283  0.4336 -0.0659  0.4525
  105OSM    H4S10701   3.980   6.104  10.252 -1.3404  1.6990  2.5738
  105OSM    C5S10702   4.142   6.220  10.190 -0.0917 -0.4013 -0.4404
  105OSM    H5S10703   4.230   6.275  10.225  0.3271 -1.6942  0.5857
  105OSM    C6S10704   4.109   6.208  10.040 -0.2700 -0.2900 -0.3837
  105OSM    H6S10705   4.009   6.159  10.030 -0.6247 -0.3241  2.4494
  105OSM    H6T10706   4.197   6.161   9.991  1.5601  1.7891  0.7398
  105OSM    C7S10707   4.103   6.342   9.971  0.3171 -0.5823  0.4608
  105OSM    H7S10708   4.198   6.398   9.984  1.4934 -2.2248 -0.6645
  105OSM    H7T10709   4.018   6.402  10.010 -0.1169 -0.6453 -0.3654
  105OSM    C8S10710   4.079   6.330   9.821  0.6266  0.0077  0.3483
  105OSM    H8S10711   4.082   6.432   9.779  2.4075  0.1734  0.7813
  105OSM    H8T10712   3.981   6.282   9.799  1.5922 -2.4595  1.0321
  105OSM    C9S10713   4.186   6.260   9.736  0.2103  0.5828  0.0013
  105OSM    H9S10714   4.209   6.153   9.754  0.6528  1.2142  4.4223
  105OSM    H9T10715   4.283   6.307   9.762  0.6056 -1.2655  2.2315
  105OSM   C10S10716   4.167   6.270   9.587  0.1958 -0.6980  1.1474
  105OSM   H10S10717   4.171   6.375   9.551  1.1367 -1.2955 -0.6225
  105OSM   H10T10718   4.060   6.241   9.574 -0.6796  2.6597 -0.1197
  105OSM   C11S10719   4.250   6.171   9.495  0.0694  0.3014  0.0227
  105OSM   H11S10720   4.203   6.168   9.395  1.9915  0.4163 -0.9318
  105OSM   H11T10721   4.257   6.067   9.532  0.4010  0.2403 -0.2045
  105OSM   C12S10722   4.392   6.225   9.461 -0.1287  0.3519 -0.1340
  105OSM   H12S10723   4.460   6.212   9.549 -0.7532  1.1490  0.4863
  105OSM   H12T10724   4.380   6.331   9.432 -0.7125  0.3067 -0.0651
  105OSM   C13S10725   4.453   6.136   9.349 -0.3974 -0.0858  0.0740
  105OSM   H13S10726   4.378   6.111   9.271 -1.1191  1.5109  0.2170
  105OSM   H13T10727   4.494   6.046   9.398 -2.8342 -0.2702  1.9240
  105OSM   C14S10728   4.572   6.202   9.287 -0.0579 -0.5763  0.9832
  105OSM   H14S10729   4.637   6.123   9.246 -0.7364  0.2495 -1.9262
  105OSM   H14T10730   4.631   6.252   9.367  0.5978  0.3435 -0.0346
  105OSM   C15S10731   4.532   6.301   9.177 -0.0190  0.2539 -0.0336
  105OSM   H15S10732   4.487   6.396   9.214  0.0897  0.6802 -0.9803
  105OSM   H15T10733   4.466   6.257   9.099  2.5290  1.0898 -2.8262
  105OSM   C16S10734   4.658   6.344   9.102  0.7444 -0.7697  0.1577
  105OSM   H16S10735   4.705   6.256   9.054 -0.4826 -1.4444  0.1373
  105OSM   H16T10736   4.726   6.402   9.167  1.0585  1.0754 -1.6942
  105OSM   C17S10737   4.616   6.454   8.994  0.4589  0.3431  0.0531
  105OSM   H17S10738   4.701   6.527   8.992  0.6222  0.3714  3.0690
  105OSM   H17T10739   4.522   6.512   9.006 -1.0892 -1.8382 -0.9021
  105OSM   C18S10740   4.595   6.391   8.859 -0.0130 -0.2542  0.7372
  105OSM   H18S10741   4.691   6.387   8.803 -0.5858 -0.3980 -0.2733
  105OSM   H18T10742   4.523   6.459   8.807 -1.8902 -1.6473  1.4047
  105OSM   H18U10743   4.553   6.290   8.878 -1.6956  0.6022  1.7944
  105OSM    C1F10744   4.355   5.868  10.340 -0.3927 -0.5135 -0.3245
  105OSM     OF10745   4.325   5.770  10.408  0.1660 -0.4625 -0.4750
  105OSM    C2F10746   4.459   5.876  10.231  0.3005 -0.5338 -0.5979
  105OSM    H2F10747   4.516   5.781  10.224  1.4190  0.1576 -1.2553
  105OSM    H2G10748   4.531   5.952  10.268  0.5438 -1.3903  0.7204
  105OSM    C3F10749   4.399   5.910  10.098 -0.2480  0.2006  0.0406
  105OSM    H3F10750   4.334   6.000  10.109  0.9307  1.2394 -1.1164
  105OSM    H3G10751   4.334   5.831  10.055 -0.2653  0.1115  0.2288
  105OSM    C4F10752   4.513   5.933   9.998  0.2579  0.0123  0.1836
  105OSM    H4F10753   4.548   5.831   9.969  0.0650  0.0682 -0.2609
  105OSM    H4G10754   4.602   5.977  10.048  0.8480 -0.5613 -0.3140
  105OSM    C5F10755   4.468   6.007   9.863  0.6628  0.3649 -0.2373
  105OSM    H5F10756   4.422   6.103   9.894 -0.7286  0.5423 -2.6566
  105OSM    H5G10757   4.390   5.945   9.814 -1.1739  0.1933  2.6617
  105OSM    C6F10758   4.586   6.026   9.763  0.3339  0.6190 -0.1061
  105OSM    H6F10759   4.623   6.131   9.765  1.0136  0.4587 -1.8303
  105OSM    H6G10760   4.543   6.034   9.661  2.5067  0.0233 -1.1260
  105OSM    C7F10761   4.712   5.934   9.753  0.9553  0.2428 -0.3242
  105OSM    H7F10762   4.676   5.830   9.736  0.2838  0.7415 -2.1755
  105OSM    H7G10763   4.747   5.918   9.857 -0.2338  0.3501  0.1149
  105OSM    C8F10764   4.825   5.977   9.661  0.1348  0.1836 -0.6617
  105OSM    H8F10765   4.907   5.904   9.671  0.4204  0.5252 -0.4983
  105OSM    H8G10766   4.870   6.076   9.684 -0.1730 -0.0881  1.2650
  105OSM    C9F10767   4.779   5.967   9.523 -0.0253 -0.5197  0.0560
  105OSM    H9F10768   4.680   6.014   9.510 -0.8072 -2.0930  0.1472
  105OSM   C10F10769   4.829   5.903   9.421 -0.5579 -0.6320 -0.2545
  105OSM   H10F10770   4.772   5.925   9.329 -1.6176 -0.9811  0.3072
  105OSM   C11F10771   4.953   5.817   9.404  0.8004  0.1428 -0.1916
  105OSM   H11F10772   4.918   5.730   9.344 -0.4418  0.1927  0.4203
  105OSM   H11G10773   4.985   5.787   9.505  3.8759 -0.5090 -1.2459
  105OSM   C12F10774   5.066   5.894   9.331  0.6510 -0.5174 -0.2037
  105OSM   H12F10775   5.143   5.814   9.323  1.1123 -0.1766  0.7031
  105OSM   H12G10776   5.102   5.975   9.398 -1.0497 -0.1282  0.2714
  105OSM   C13F10777   5.039   5.944   9.186  0.1412 -0.8190 -0.2221
  105OSM   H13F10778   4.972   6.032   9.173  2.5580  1.4494  1.6743
  105OSM   H13G10779   4.985   5.863   9.131 -1.0474  1.1752 -2.2004
  105OSM   C14F10780   5.164   5.967   9.105  0.0414  0.5889 -0.0683
  105OSM   H14F10781   5.233   5.881   9.117  1.5979  1.6515 -1.0707
  105OSM   H14G10782   5.206   6.065   9.135 -1.3212  1.1564  0.0941
  105OSM   C15F10783   5.134   5.982   8.950 -0.5891 -0.1957  0.4721
  105OSM   H15F10784   5.072   5.894   8.925 -1.3413  1.0044 -2.2822
  105OSM   H15G10785   5.226   5.970   8.889  0.6260  1.2855  1.9074
  105OSM   C16F10786   5.072   6.114   8.905  0.3215  0.2763  0.3955
  105OSM   H16F10787   5.133   6.203   8.933 -0.1459  1.4356 -2.0007
  105OSM   H16G10788   4.965   6.115   8.932 -0.8492 -0.0158 -3.6472
  105OSM   C17F10789   5.093   6.120   8.752 -0.3403 -0.6015 -0.8371
  105OSM   H17F10790   5.074   6.021   8.705 -1.2276 -0.9653  0.2493
  105OSM   H17G10791   5.198   6.150   8.733 -0.3789 -0.3115 -0.5989
  105OSM   C18F10792   5.010   6.221   8.677 -0.2388  0.6845  0.3876
  105OSM   H18F10793   4.977   6.295   8.753 -1.8403  1.0868 -0.6489
  105OSM   H18G10794   4.910   6.176   8.655 -0.1709  0.0371  1.3149
  105OSM   H18H10795   5.059   6.269   8.590 -1.0643 -0.5570 -0.8098
  106OSM      N10796   5.162   5.068  10.759 -0.4214  0.0416  0.3426
  106OSM    C1510797   5.263   4.961  10.748  0.4220  1.0137  0.0197
  106OSM   H15A10798   5.366   4.993  10.739  0.4472  0.3596 -2.9213
  106OSM   H15B10799   5.235   4.905  10.660 -1.4902 -0.1296  1.2942
  106OSM   H15C10800   5.253   4.901  10.837  1.2161  1.5437  0.4825
  106OSM    C1410801   5.182   5.119  10.901 -0.2375 -0.0724  0.7079
  106OSM   H14A10802   5.156   5.043  10.973 -2.6158 -0.3599 -0.3516
  106OSM   H14B10803   5.134   5.210  10.931  1.1787  1.8335 -2.2519
  106OSM   H14C10804   5.286   5.145  10.916 -0.9433  2.2833  1.9863
  106OSM    C1310805   5.196   5.168  10.661  0.1398 -0.3027  0.0473
  106OSM   H13A10806   5.166   5.127  10.566 -1.9434 -0.6574  0.8076
  106OSM   H13B10807   5.302   5.188  10.662 -0.2721  2.2758  1.5102
  106OSM   H13C10808   5.146   5.263  10.673  0.1660 -0.2442 -0.2765
  106OSM    C1210809   5.019   5.013  10.740 -0.0022 -0.3681  0.1493
  106OSM   H12A10810   4.953   5.096  10.763  1.0398  0.4024  0.4149
  106OSM   H12B10811   4.998   4.942  10.818  2.3797 -1.5575 -0.2056
  106OSM    C1110812   4.989   4.962  10.602  0.6849 -0.2707 -0.3409
  106OSM   H11A10813   5.003   5.045  10.530 -3.0587  0.6353 -0.2551
  106OSM   H11B10814   4.880   4.941  10.594  0.5813 -0.3161  0.9316
  106OSM      P10815   5.032   4.706  10.636  0.3512  0.3977  0.1439
  106OSM    O1310816   5.094   4.693  10.771 -0.7845  0.3010  0.8261
  106OSM    O1410817   4.884   4.694  10.630  0.5858  0.1940  0.0821
  106OSM    O1110818   5.106   4.603  10.537  0.0230  0.2339 -0.3177
  106OSM    O1210819   5.070   4.845  10.571  0.0533  0.5414 -0.1295
  106OSM    C1S10820   5.056   4.597  10.402  0.1490 -0.5430 -0.4144
  106OSM    H1S10821   5.063   4.694  10.349  1.9294 -0.3080  0.1974
  106OSM    H1T10822   4.955   4.551  10.401 -0.1094 -0.0296  0.5858
  106OSM     NF10823   5.117   4.495  10.178 -0.0949  0.2811  0.1432
  106OSM    HNF10824   5.084   4.407  10.145  1.1387 -0.6248  1.2039
  106OSM    C2S10825   5.149   4.500  10.323  0.7717 -0.1978  0.1669
  106OSM    H2S10826   5.259   4.519  10.333  0.4538  1.7596  0.4371
  106OSM    C3S10827   5.145   4.360  10.387  0.7652  0.6784 -0.1797
  106OSM    H3S10828   5.042   4.317  10.384 -0.1339  2.6664  0.4057
  106OSM     O310829   5.165   4.352  10.527 -0.2477 -0.0535  0.1161
  106OSM    HO310830   5.138   4.440  10.554 -2.3904 -0.2094 -1.3478
  106OSM    C4S10831   5.231   4.258  10.317 -0.0693 -0.6091 -0.3594
  106OSM    H4S10832   5.336   4.267  10.348 -0.5239  0.4787  0.9894
  106OSM    C5S10833   5.192   4.159  10.232 -0.4326  0.6583 -0.3159
  106OSM    H5S10834   5.089   4.156  10.195 -0.6790 -1.0703  0.4497
  106OSM    C6S10835   5.276   4.055  10.165 -0.0370  0.6520 -0.3750
  106OSM    H6S10836   5.262   3.962  10.224 -2.5729  1.8268  1.0126
  106OSM    H6T10837   5.379   4.097  10.168  0.1557  0.2271 -0.9392
  106OSM    C7S10838   5.242   4.013  10.021  0.2559  0.5881 -0.2561
  106OSM    H7S10839   5.140   3.968  10.014  0.4637  0.1767 -0.6875
  106OSM    H7T10840   5.314   3.937   9.985  0.7858  1.3927 -0.9152
  106OSM    C8S10841   5.236   4.132   9.923  0.1885  0.3499 -0.1480
  106OSM    H8S10842   5.326   4.191   9.951 -0.4162  0.0744  2.6750
  106OSM    H8T10843   5.144   4.192   9.939  0.9415  2.0717 -1.8815
  106OSM    C9S10844   5.248   4.078   9.782  0.1918  0.3956  0.6635
  106OSM    H9S10845   5.163   4.009   9.765  0.4889  0.8068 -3.4596
  106OSM    H9T10846   5.347   4.030   9.771  0.6884  1.5097  0.1040
  106OSM   C10S10847   5.234   4.194   9.684  0.1638 -0.5073 -0.5796
  106OSM   H10S10848   5.310   4.270   9.711 -1.7892  1.0787  0.7667
  106OSM   H10T10849   5.142   4.256   9.692  0.3164 -0.4316  0.7570
  106OSM   C11S10850   5.245   4.142   9.540  0.2536 -0.2640  0.3323
  106OSM   H11S10851   5.344   4.095   9.526  0.4041  0.0774  0.2592
  106OSM   H11T10852   5.234   4.231   9.475  0.2387  1.6732  2.8311
  106OSM   C12S10853   5.139   4.046   9.492  0.1910  0.5592  0.0280
  106OSM   H12S10854   5.033   4.066   9.518  0.2425  1.2458 -0.2615
  106OSM   H12T10855   5.157   3.945   9.535 -0.7200  0.9941  1.5009
  106OSM   C13S10856   5.137   4.029   9.340  0.2359 -0.5531 -0.8032
  106OSM   H13S10857   5.241   4.006   9.310  0.9672  0.3116  0.9063
  106OSM   H13T10858   5.096   4.124   9.301  1.7392  1.1233  1.4470
  106OSM   C14S10859   5.041   3.921   9.279 -0.4174  0.1171 -0.7985
  106OSM   H14S10860   4.940   3.967   9.288  0.7829  2.7352  0.4184
  106OSM   H14T10861   5.049   3.821   9.326 -0.8093 -0.4276 -1.8407
  106OSM   C15S10862   5.088   3.902   9.136  0.3831 -0.1168  0.9759
  106OSM   H15S10863   5.050   3.803   9.102  0.3157 -0.1600  1.1710
  106OSM   H15T10864   5.199   3.906   9.135  0.5381 -1.2376  3.6265
  106OSM   C16S10865   5.033   4.009   9.037  0.0582 -0.3264 -0.0326
  106OSM   H16S10866   5.070   4.111   9.063 -2.8256  1.2488 -1.5730
  106OSM   H16T10867   4.924   4.033   9.038  0.1801  0.2307  0.9297
  106OSM   C17S10868   5.072   3.987   8.886  0.4802 -0.9678 -1.0995
  106OSM   H17S10869   5.014   3.894   8.867 -0.9735 -0.1119 -0.9996
  106OSM   H17T10870   5.180   3.966   8.873  1.0870  1.2798 -0.2964
  106OSM   C18S10871   5.024   4.101   8.795 -0.0569  0.3398  0.5915
  106OSM   H18S10872   4.914   4.110   8.791 -0.1242 -0.3337  0.8016
  106OSM   H18T10873   5.070   4.080   8.696  1.7558 -0.3763  1.5433
  106OSM   H18U10874   5.062   4.197   8.838 -1.7170  1.0331  0.5894
  106OSM    C1F10875   5.142   4.595  10.094 -0.0719 -0.1528  0.0392
  106OSM     OF10876   5.225   4.678  10.127 -0.6419  0.2773 -0.1050
  106OSM    C2F10877   5.071   4.597   9.963 -0.4624  0.2167  0.1377
  106OSM    H2F10878   4.985   4.667   9.962  1.5236  2.8430 -1.8772
  106OSM    H2G10879   5.035   4.495   9.941  1.8828 -0.2894 -1.7641
  106OSM    C3F10880   5.165   4.632   9.845 -0.1063 -0.0674 -0.5433
  106OSM    H3F10881   5.263   4.580   9.839  0.6391  1.5164 -3.9912
  106OSM    H3G10882   5.179   4.740   9.864  0.5896 -0.5509  2.0948
  106OSM    C4F10883   5.097   4.615   9.704  0.1820 -0.1695 -0.5242
  106OSM    H4F10884   5.001   4.669   9.711  0.6959  0.7880 -0.6377
  106OSM    H4G10885   5.088   4.505   9.692  2.4196 -0.2597 -2.1845
  106OSM    C5F10886   5.176   4.669   9.586  0.0348  0.3453  0.7057
  106OSM    H5F10887   5.272   4.615   9.576  0.3921  1.0893  0.0590
  106OSM    H5G10888   5.194   4.776   9.607 -0.0620  0.8647 -1.6033
  106OSM    C6F10889   5.096   4.658   9.454  0.4034  0.3912  0.4514
  106OSM    H6F10890   4.997   4.708   9.463 -1.7135 -3.1928 -0.5945
  106OSM    H6G10891   5.081   4.551   9.428 -0.3842  0.5732  0.1270
  106OSM    C7F10892   5.169   4.716   9.329  0.1500  0.3278  0.2041
  106OSM    H7F10893   5.278   4.698   9.329  0.4252  1.4150 -3.1749
  106OSM    H7G10894   5.156   4.826   9.331  1.0815  0.6311 -3.5838
  106OSM    C8F10895   5.110   4.673   9.184 -0.5945  0.0177 -0.4178
  106OSM    H8F10896   5.154   4.739   9.107  0.8912  0.0093  0.3927
  106OSM    H8G10897   5.001   4.689   9.199 -0.5196 -0.2591  0.4970
  106OSM    C9F10898   5.136   4.528   9.154  0.3419  0.1987 -0.5007
  106OSM    H9F10899   5.197   4.468   9.223  1.4372  0.7222 -0.9983
  106OSM   C10F10900   5.063   4.459   9.059  0.4506  0.6277  0.1174
  106OSM   H10F10901   5.085   4.354   9.036  3.8279  1.4016 -0.6908
  106OSM   C11F10902   4.957   4.527   8.977 -0.2334  0.2142 -0.5912
  106OSM   H11F10903   4.928   4.619   9.032 -3.2648 -0.5084 -0.7782
  106OSM   H11G10904   4.865   4.464   8.976  0.7855 -1.3966  1.1364
  106OSM   C12F10905   5.004   4.572   8.836  0.1284 -0.4565 -0.1234
  106OSM   H12F10906   5.056   4.490   8.782  2.0175  0.8767 -0.4129
  106OSM   H12G10907   5.084   4.649   8.834  0.8863 -1.1763 -3.6923
  106OSM   C13F10908   4.886   4.634   8.761 -0.0104 -0.5126 -0.0055
  106OSM   H13F10909   4.870   4.742   8.783 -0.1799 -1.0468  2.9782
  106OSM   H13G10910   4.792   4.580   8.786  1.9701 -2.3844  4.6952
  106OSM   C14F10911   4.910   4.633   8.606 -0.1171 -0.1559  0.6330
  106OSM   H14F10912   4.914   4.531   8.562  0.3401  0.2268 -0.2539
  106OSM   H14G10913   5.002   4.689   8.578 -0.3961 -0.4343 -0.9433
  106OSM   C15F10914   4.797   4.711   8.534 -0.1821 -0.2371  0.3397
  106OSM   H15F10915   4.781   4.813   8.575 -0.5192  0.3623 -1.2265
  106OSM   H15G10916   4.701   4.657   8.546 -0.4507  0.3835  1.1367
  106OSM   C16F10917   4.826   4.732   8.381  0.6225  0.8342  0.1545
  106OSM   H16F10918   4.826   4.629   8.339  2.3824 -0.0310  2.0857
  106OSM   H16G10919   4.928   4.777   8.384  1.3216 -0.6429  2.9906
  106OSM   C17F10920   4.728   4.832   8.323  0.0021  0.2668 -0.2035
  106OSM   H17F10921   4.782   4.878   8.238 -1.3471  2.1138 -0.1184
  106OSM   H17G10922   4.718   4.919   8.390  2.3075 -1.3115  2.4139
  106OSM   C18F10923   4.596   4.780   8.279 -0.5638  1.0889 -0.0451
  106OSM   H18F10924   4.572   4.728   8.374 -0.5220  1.6500  0.2744
  106OSM   H18G10925   4.605   4.706   8.195  0.7719  1.0689  0.0845
  106OSM   H18H10926   4.524   4.861   8.257 -1.8202  0.5022  1.7043
  107OSM      N10927   0.758   0.671  11.147  0.5060  0.1068  0.3352
  107OSM    C1510928   0.867   0.588  11.210 -0.8612  0.4306  0.0444
  107OSM   H15A10929   0.879   0.606  11.316  0.1630 -0.2146  0.0390
  107OSM   H15B10930   0.960   0.600  11.157 -1.2986  2.7908 -0.3278
  107OSM   H15C10931   0.840   0.484  11.207  1.4130 -0.2486  1.3893
  107OSM    C1410932   0.637   0.666  11.237 -0.1897  0.8619  0.2546
  107OSM   H14A10933   0.564   0.730  11.190  0.3164  0.2906 -1.4070
  107OSM   H14B10934   0.651   0.697  11.339 -1.5561 -1.1417  1.1063
  107OSM   H14C10935   0.591   0.569  11.247  1.6231  0.0213  0.9945
  107OSM    C1310936   0.796   0.819  11.142 -0.8203  0.3422 -1.1118
  107OSM   H13A10937   0.714   0.884  11.113 -0.2306  0.4591 -2.6059
  107OSM   H13B10938   0.889   0.834  11.089  0.7544  0.9926  1.6375
  107OSM   H13C10939   0.825   0.856  11.239  1.3546 -2.8997 -0.3849
  107OSM    C1210940   0.730   0.616  11.007  0.6833  0.5225 -0.1285
  107OSM   H12A10941   0.689   0.517  11.011 -1.3404  1.3708  2.4088
  107OSM   H12B10942   0.822   0.597  10.954  0.3070  0.2727 -0.6983
  107OSM    C1110943   0.630   0.692  10.912 -0.1254  0.0118  0.0023
  107OSM   H11A10944   0.629   0.638  10.814  0.8234  3.0189 -1.8217
  107OSM   H11B10945   0.659   0.797  10.892 -0.6371  0.5864  2.0829
  107OSM      P10946   0.418   0.559  10.938  0.0764  0.3158  0.1737
  107OSM    O1310947   0.501   0.438  10.941 -0.4151 -0.3254  0.4582
  107OSM    O1410948   0.311   0.556  11.040 -0.3629 -0.0072 -0.2898
  107OSM    O1110949   0.352   0.580  10.794  0.4500  0.2400  0.2335
  107OSM    O1210950   0.500   0.695  10.970 -0.4700  0.2378 -0.0372
  107OSM    C1S10951   0.317   0.713  10.752 -0.2380 -0.2292  0.5061
  107OSM    H1S10952   0.407   0.777  10.746 -2.6934  3.3849 -1.7806
  107OSM    H1T10953   0.225   0.755  10.799 -2.7951 -0.9961 -3.3333
  107OSM     NF10954   0.260   0.836  10.545  0.0657 -0.3190  0.2889
  107OSM    HNF10955   0.168   0.873  10.545  0.0250 -0.3578 -1.2587
  107OSM    C2S10956   0.277   0.701  10.598  0.1413 -0.2740 -0.5337
  107OSM    H2S10957   0.366   0.647  10.558  1.3759 -1.2584  3.1467
  107OSM    C3S10958   0.150   0.612  10.569 -0.1202  0.4275 -0.1891
  107OSM    H3S10959   0.057   0.647  10.618 -0.7862  1.3922 -2.0604
  107OSM     O310960   0.163   0.481  10.621 -0.1306 -0.5412  0.0411
  107OSM    HO310961   0.237   0.496  10.681  0.0512 -3.6307  0.7753
  107OSM    C4S10962   0.133   0.607  10.424 -0.1492 -0.6828 -0.4145
  107OSM    H4S10963   0.077   0.696  10.390  1.0839  0.2217 -0.1750
  107OSM    C5S10964   0.163   0.515  10.330  0.5911 -0.0098  0.1328
  107OSM    H5S10965   0.203   0.419  10.365 -0.6663 -0.5032  0.2538
  107OSM    C6S10966   0.133   0.523  10.185  0.6741 -0.1585  0.0753
  107OSM    H6S10967   0.063   0.440  10.161  1.8911 -0.4763 -2.8035
  107OSM    H6T10968   0.223   0.511  10.121  1.0978 -1.5316  0.8857
  107OSM    C7S10969   0.050   0.647  10.132  0.3347 -0.4142  0.1848
  107OSM    H7S10970   0.109   0.733  10.171  0.0772  0.2190 -0.7857
  107OSM    H7T10971  -0.052   0.655  10.175 -0.0129 -0.7483 -0.5552
  107OSM    C8S10972   0.032   0.649   9.979 -0.3178 -0.0798 -0.1231
  107OSM    H8S10973  -0.036   0.731   9.949 -1.9710 -1.3520  0.0320
  107OSM    H8T10974  -0.017   0.556   9.944  0.3000  0.0598 -1.4180
  107OSM    C9S10975   0.161   0.655   9.890 -0.1118  0.6415 -0.5288
  107OSM    H9S10976   0.211   0.555   9.889 -1.5653 -0.1118 -0.5486
  107OSM    H9T10977   0.230   0.734   9.927 -0.1989  0.4449  0.0721
  107OSM   C10S10978   0.137   0.679   9.736  0.7613 -0.1325  0.0723
  107OSM   H10S10979   0.094   0.781   9.726  1.4876  0.1325 -0.4773
  107OSM   H10T10980   0.059   0.608   9.701 -0.3453 -0.1647  2.4032
  107OSM   C11S10981   0.260   0.682   9.645  0.0711 -0.0883 -0.4002
  107OSM   H11S10982   0.320   0.589   9.648  3.9416  2.0634 -2.5022
  107OSM   H11T10983   0.340   0.750   9.681  2.5557 -2.9001 -0.2000
  107OSM   C12S10984   0.226   0.718   9.501 -0.0088  0.0805  0.3642
  107OSM   H12S10985   0.180   0.819   9.505 -0.6605 -0.2426  1.6158
  107OSM   H12T10986   0.156   0.642   9.460 -0.8762  0.4723  1.1034
  107OSM   C13S10987   0.351   0.701   9.406  0.0567  0.7855 -0.3420
  107OSM   H13S10988   0.381   0.595   9.426 -0.5194  0.9639  1.7461
  107OSM   H13T10989   0.442   0.757   9.436  0.1019  0.2560  0.5752
  107OSM   C14S10990   0.326   0.723   9.263  0.0796  0.4099  0.5532
  107OSM   H14S10991   0.317   0.830   9.234  0.1985 -0.3370 -2.6786
  107OSM   H14T10992   0.236   0.670   9.222  1.7217 -0.3038 -2.4750
  107OSM   C15S10993   0.446   0.678   9.171 -0.3812 -0.5072 -0.3683
  107OSM   H15S10994   0.496   0.586   9.209 -3.8316 -2.8286 -0.9735
  107OSM   H15T10995   0.528   0.752   9.180 -1.4120  0.6385 -0.1784
  107OSM   C16S10996   0.412   0.666   9.022 -0.0734 -0.0732  0.5659
  107OSM   H16S10997   0.331   0.740   9.010  0.1523 -0.1080 -1.4005
  107OSM   H16T10998   0.375   0.570   8.981  1.1456 -0.4359  0.2742
  107OSM   C17S10999   0.523   0.714   8.932 -0.1539 -0.0015  1.1088
  107OSM   H17S11000   0.618   0.677   8.975 -0.4017 -1.5180  0.4196
  107OSM   H17T11001   0.517   0.825   8.930 -2.3603 -0.0500 -1.9238
  107OSM   C18S11002   0.511   0.665   8.786 -0.4249 -0.2639 -0.1206
  107OSM   H18S11003   0.416   0.700   8.739 -1.1523 -2.7546 -0.6832
  107OSM   H18T11004   0.518   0.554   8.779 -0.9810 -0.4166  1.3180
  107OSM   H18U11005   0.597   0.699   8.724 -1.3035  3.4005  0.4248
  107OSM    C1F11006   0.353   0.919  10.508 -0.2667  0.1267  0.3792
  107OSM     OF11007   0.471   0.888  10.520 -0.8013  0.3213 -0.6001
  107OSM    C2F11008   0.308   1.054  10.470  0.2538 -0.5077  0.1615
  107OSM    H2F11009   0.349   1.135  10.534  0.1135  0.5945 -1.1041
  107OSM    H2G11010   0.198   1.055  10.488  0.2074 -0.3716 -0.1227
  107OSM    C3F11011   0.311   1.084  10.317 -0.1571 -0.2986 -1.0691
  107OSM    H3F11012   0.286   0.983  10.277  0.0818 -1.3263  1.1971
  107OSM    H3G11013   0.415   1.110  10.291  1.1079 -2.4704  1.4213
  107OSM    C4F11014   0.219   1.196  10.277 -0.0453  0.1437 -0.0255
  107OSM    H4F11015   0.235   1.289  10.335 -4.1764  0.8783  0.2292
  107OSM    H4G11016   0.117   1.160  10.300  0.4315 -1.3648 -0.1809
  107OSM    C5F11017   0.219   1.230  10.129  0.5436 -0.2277 -0.1237
  107OSM    H5F11018   0.302   1.297  10.097  0.4221 -0.6503 -1.3901
  107OSM    H5G11019   0.125   1.290  10.127 -0.5257 -1.7938  1.2453
  107OSM    C6F11020   0.192   1.113  10.037  0.0899  0.2999  0.2342
  107OSM    H6F11021   0.135   1.035  10.091  0.5778 -0.8355 -0.8314
  107OSM    H6G11022   0.294   1.070  10.021  1.5037  3.1879  0.7938
  107OSM    C7F11023   0.126   1.156   9.905 -0.3344 -0.5047 -0.7759
  107OSM    H7F11024   0.182   1.245   9.869  1.0220 -0.4180  1.3858
  107OSM    H7G11025   0.019   1.175   9.928  0.2707  2.3531  0.2109
  107OSM    C8F11026   0.128   1.044   9.800 -0.1938 -0.3338  0.1106
  107OSM    H8F11027   0.107   0.948   9.853  2.7185 -1.4073 -0.4826
  107OSM    H8G11028   0.238   1.032   9.784  0.0883 -0.4151  1.9222
  107OSM    C9F11029   0.036   1.066   9.676 -0.1105  0.4473 -0.3641
  107OSM    H9F11030  -0.068   1.035   9.689 -0.0810  0.7932  0.7958
  107OSM   C10F11031   0.075   1.108   9.556  0.2419  0.4283 -0.0333
  107OSM   H10F11032   0.011   1.135   9.471  2.3469  0.2340 -1.7652
  107OSM   C11F11033   0.221   1.138   9.520  0.0935 -0.1736  0.2487
  107OSM   H11F11034   0.288   1.050   9.531  0.5427  0.1081 -0.2600
  107OSM   H11G11035   0.257   1.211   9.595 -1.5559  0.6138  0.3299
  107OSM   C12F11036   0.231   1.211   9.380  0.3271  0.3057 -0.0936
  107OSM   H12F11037   0.323   1.272   9.377  0.6877 -0.2413 -2.3290
  107OSM   H12G11038   0.150   1.287   9.374  2.0201  2.1237 -1.4058
  107OSM   C13F11039   0.207   1.130   9.245 -0.1655 -0.1934  0.1316
  107OSM   H13F11040   0.131   1.051   9.265  0.1000  0.1134  2.6907
  107OSM   H13G11041   0.303   1.082   9.214 -0.7882 -0.0599 -2.1947
  107OSM   C14F11042   0.191   1.218   9.127  0.2716 -0.1581 -0.0451
  107OSM   H14F11043   0.285   1.276   9.114 -0.3149  1.4623  2.3079
  107OSM   H14G11044   0.115   1.294   9.152  0.5682 -0.2411  1.2060
  107OSM   C15F11045   0.153   1.147   8.995 -0.0364  0.6864 -0.9761
  107OSM   H15F11046   0.155   1.212   8.905  0.0345 -0.7598 -2.0593
  107OSM   H15G11047   0.044   1.131   9.002  0.0134 -0.3116 -2.1374
  107OSM   C16F11048   0.228   1.017   8.972 -0.1383 -0.3020  0.3644
  107OSM   H16F11049   0.193   0.946   9.050 -0.4967 -1.0691 -0.4719
  107OSM   H16G11050   0.335   1.036   8.996  0.6606 -0.0957 -2.8784
  107OSM   C17F11051   0.201   0.954   8.836 -0.0450 -0.0277  0.2330
  107OSM   H17F11052   0.270   0.874   8.802  0.4543  0.8745 -0.9695
  107OSM   H17G11053   0.213   1.033   8.758 -0.8147 -1.8463 -1.8176
  107OSM   C18F11054   0.060   0.896   8.811  0.2460  0.1449 -0.2530
  107OSM   H18F11055  -0.014   0.975   8.836  0.1971  0.0029  0.0570
  107OSM   H18G11056   0.042   0.814   8.884 -0.6486  0.9884  0.5026
  107OSM   H18H11057   0.047   0.861   8.706  3.6278 -2.1415 -0.0403
  108OSM      N11058   3.313   1.318  11.088 -0.0259  0.1311 -0.1091
  108OSM    C1511059   3.422   1.231  11.146  1.1455 -0.3283  0.9425
  108OSM   H15A11060   3.513   1.278  11.113  0.0813  0.1014 -1.6478
  108OSM   H15B11061   3.412   1.130  11.109 -0.7686  0.4009 -0.6740
  108OSM   H15C11062   3.405   1.221  11.252 -1.3309  0.5597  0.6892
  108OSM    C1411063   3.173   1.268  11.113 -0.0066  0.3313  0.1958
  108OSM   H14A11064   3.099   1.338  11.076 -2.4331 -1.6134  1.0902
  108OSM   H14B11065   3.151   1.242  11.215 -1.6000  0.4627 -0.0905
  108OSM   H14C11066   3.162   1.175  11.059  1.3739  0.0709  0.3288
  108OSM    C1311067   3.330   1.459  11.138 -0.1385 -0.5923  0.1170
  108OSM   H13A11068   3.247   1.522  11.106  1.0407  0.7591 -0.4206
  108OSM   H13B11069   3.424   1.503  11.110  0.1735 -1.1586  0.2741
  108OSM   H13C11070   3.338   1.453  11.245 -1.3294  1.5056  0.3953
  108OSM    C1211071   3.323   1.318  10.934 -0.4721 -0.2336  0.1782
  108OSM   H12A11072   3.393   1.394  10.902 -1.0458  1.0816  1.9032
  108OSM   H12B11073   3.229   1.353  10.894 -0.3023 -0.0041 -0.0259
  108OSM    C1111074   3.361   1.184  10.872 -0.2864 -0.2966 -0.4573
  108OSM   H11A11075   3.464   1.157  10.904 -0.4289 -1.2065 -0.7348
  108OSM   H11B11076   3.370   1.193  10.761 -0.5184 -1.3358 -0.5743
  108OSM      P11077   3.310   0.938  10.935  0.3450 -0.0182  0.2346
  108OSM    O1311078   3.373   0.934  11.074  0.1941  0.2880  0.5635
  108OSM    O1411079   3.199   0.839  10.918  0.4124 -0.0509 -0.6911
  108OSM    O1111080   3.417   0.906  10.828  0.2665  0.2045  0.9287
  108OSM    O1211081   3.264   1.083  10.905 -0.6095 -0.4527  0.7249
  108OSM    C1S11082   3.379   0.842  10.703 -0.1747  0.1029  0.3963
  108OSM    H1S11083   3.320   0.904  10.632  2.6007 -0.2701 -2.4547
  108OSM    H1T11084   3.328   0.746  10.727 -0.6251  0.7194  2.0550
  108OSM     NF11085   3.466   0.724  10.504 -0.0742  0.1278  0.4016
  108OSM    HNF11086   3.499   0.630  10.499 -1.0513 -0.1934 -0.3713
  108OSM    C2S11087   3.507   0.799  10.621  0.3284 -0.4005 -0.6521
  108OSM    H2S11088   3.558   0.894  10.591 -0.6218  0.7514  1.2211
  108OSM    C3S11089   3.610   0.726  10.723  0.5905  0.1523 -0.2548
  108OSM    H3S11090   3.566   0.630  10.758 -0.4447  0.6714 -0.1114
  108OSM     O311091   3.631   0.791  10.846 -0.1774  0.3829 -0.2707
  108OSM    HO311092   3.547   0.838  10.848  0.3190  1.2714  0.2926
  108OSM    C4S11093   3.735   0.695  10.655 -0.2322 -0.4373 -0.7275
  108OSM    H4S11094   3.797   0.782  10.632 -0.3185 -0.3934 -0.7964
  108OSM    C5S11095   3.779   0.571  10.618  0.5180 -0.0240 -0.2948
  108OSM    H5S11096   3.707   0.488  10.625  1.3071 -0.7447 -0.6524
  108OSM    C6S11097   3.906   0.549  10.534 -0.0115  0.2642  0.4556
  108OSM    H6S11098   3.978   0.477  10.579  0.1371  1.2398  1.8522
  108OSM    H6T11099   3.955   0.648  10.521 -4.1670  2.4002 -0.7619
  108OSM    C7S11100   3.878   0.507  10.386  0.3363  0.5397 -0.2999
  108OSM    H7S11101   3.976   0.509  10.333  0.4040 -1.7689 -0.3692
  108OSM    H7T11102   3.805   0.580  10.346 -3.4247 -1.4016  2.4066
  108OSM    C8S11103   3.831   0.359  10.376 -0.2720  0.0725  0.3550
  108OSM    H8S11104   3.773   0.334  10.468 -1.4327  0.6097 -0.2023
  108OSM    H8T11105   3.914   0.286  10.362 -1.1939 -1.4937  2.4662
  108OSM    C9S11106   3.750   0.337  10.248 -0.0209  0.1835 -0.2848
  108OSM    H9S11107   3.659   0.401  10.240  1.2201  1.8234 -2.6651
  108OSM    H9T11108   3.732   0.229  10.231  0.0915  0.2386 -0.7932
  108OSM   C10S11109   3.834   0.375  10.127  0.3969 -0.7484 -0.5118
  108OSM   H10S11110   3.933   0.331  10.151  0.9427  0.0824 -1.1680
  108OSM   H10T11111   3.848   0.485  10.131  1.4570 -0.8788 -0.3740
  108OSM   C11S11112   3.760   0.330  10.001 -0.5519 -0.3016  0.0095
  108OSM   H11S11113   3.665   0.388   9.997  0.6331  1.6984 -1.3899
  108OSM   H11T11114   3.727   0.224  10.002 -1.2026 -0.0963  0.5881
  108OSM   C12S11115   3.842   0.349   9.873 -0.4488 -0.5344  0.3404
  108OSM   H12S11116   3.933   0.285   9.879  0.4257  0.5685 -0.5564
  108OSM   H12T11117   3.880   0.450   9.847  1.9639 -1.9585 -2.3335
  108OSM   C13S11118   3.737   0.335   9.760  0.0715  0.1873 -0.1595
  108OSM   H13S11119   3.648   0.401   9.773 -1.8856 -2.4866  0.9296
  108OSM   H13T11120   3.685   0.237   9.757 -1.6740  0.9845  1.6738
  108OSM   C14S11121   3.791   0.351   9.617 -0.8386 -0.3864 -1.0820
  108OSM   H14S11122   3.891   0.303   9.617 -0.9521 -0.6325 -0.1939
  108OSM   H14T11123   3.808   0.456   9.583 -1.2432  0.5820  1.5127
  108OSM   C15S11124   3.709   0.278   9.499  0.6843  0.1020 -0.0319
  108OSM   H15S11125   3.605   0.315   9.495  0.5600 -0.2242  0.1795
  108OSM   H15T11126   3.700   0.171   9.528  0.9109 -0.3822 -1.6377
  108OSM   C16S11127   3.771   0.292   9.360  0.1966  0.2606 -0.0571
  108OSM   H16S11128   3.861   0.230   9.373 -0.7302 -1.2702 -0.7138
  108OSM   H16T11129   3.789   0.398   9.330 -1.2999  0.8985  1.1338
  108OSM   C17S11130   3.682   0.222   9.254  0.6919  0.3156  0.3832
  108OSM   H17S11131   3.582   0.271   9.254  0.7913  0.5275 -0.0315
  108OSM   H17T11132   3.649   0.120   9.282  0.7553 -0.5674 -2.4198
  108OSM   C18S11133   3.727   0.242   9.109  0.1853  0.0009  0.3671
  108OSM   H18S11134   3.707   0.348   9.081 -4.1429 -0.6170  0.4528
  108OSM   H18T11135   3.662   0.178   9.046 -2.2834 -0.6814  3.3538
  108OSM   H18U11136   3.838   0.239   9.100  0.6462  2.7197  3.2009
  108OSM    C1F11137   3.411   0.779  10.400 -0.0151 -0.1238  0.2569
  108OSM     OF11138   3.390   0.902  10.397 -0.4610 -0.0466  0.1543
  108OSM    C2F11139   3.370   0.691  10.282 -0.0262 -0.1035  0.7316
  108OSM    H2F11140   3.260   0.702  10.271  0.2939  2.1249 -0.8798
  108OSM    H2G11141   3.384   0.583  10.301 -1.1612 -0.4835 -0.4414
  108OSM    C3F11142   3.437   0.731  10.155  0.1584  0.7825 -0.0476
  108OSM    H3F11143   3.444   0.842  10.151  0.7584  0.7191 -0.8566
  108OSM    H3G11144   3.371   0.712  10.068  0.6283 -0.6288 -0.1136
  108OSM    C4F11145   3.584   0.665  10.142 -0.0396  0.3428  0.6615
  108OSM    H4F11146   3.583   0.558  10.113  0.7996 -0.0423  1.9639
  108OSM    H4G11147   3.629   0.675  10.244  0.3847  0.8143  0.4347
  108OSM    C5F11148   3.672   0.743  10.035  0.8003  0.0872  0.1804
  108OSM    H5F11149   3.774   0.700  10.036  1.7701  2.1865  2.1871
  108OSM    H5G11150   3.674   0.848  10.071  0.3557 -0.2854  1.3422
  108OSM    C6F11151   3.612   0.744   9.896  0.5119 -0.4849  0.5053
  108OSM    H6F11152   3.540   0.829   9.893  0.9329 -0.1554 -1.3670
  108OSM    H6G11153   3.547   0.654   9.892 -0.7520  0.2367  2.8091
  108OSM    C7F11154   3.716   0.760   9.784  0.1873  0.2543 -0.1793
  108OSM    H7F11155   3.800   0.688   9.798 -0.2897  0.0687  2.0144
  108OSM    H7G11156   3.751   0.866   9.781 -2.3439  1.1225 -1.8180
  108OSM    C8F11157   3.654   0.737   9.646 -0.0397 -0.5462 -0.5383
  108OSM    H8F11158   3.562   0.799   9.639 -0.0840 -0.6741 -1.0772
  108OSM    H8G11159   3.612   0.634   9.648 -2.7646  0.4670  0.7368
  108OSM    C9F11160   3.740   0.768   9.526 -0.2590  0.1284  0.7683
  108OSM    H9F11161   3.812   0.848   9.550 -1.2878  0.7328  1.9133
  108OSM   C10F11162   3.714   0.730   9.400  0.0376  0.3864  0.5704
  108OSM   H10F11163   3.789   0.739   9.319  0.5390 -1.9312  0.7127
  108OSM   C11F11164   3.588   0.652   9.357  0.0477 -0.0011  0.3797
  108OSM   H11F11165   3.507   0.689   9.424  0.0270 -0.2797  0.5121
  108OSM   H11G11166   3.595   0.544   9.382  1.4929  0.0492  0.2854
  108OSM   C12F11167   3.534   0.683   9.217 -0.3055  0.4799  0.4866
  108OSM   H12F11168   3.484   0.782   9.216 -1.1038  0.0819  0.1689
  108OSM   H12G11169   3.454   0.609   9.198  2.0724 -1.6611 -2.1065
  108OSM   C13F11170   3.638   0.660   9.102  0.1748 -0.2806 -0.1239
  108OSM   H13F11171   3.682   0.558   9.103 -3.6261 -2.2364 -3.2225
  108OSM   H13G11172   3.725   0.728   9.117 -0.4248  0.5200 -0.2312
  108OSM   C14F11173   3.590   0.687   8.966 -0.2281  0.4235  0.3569
  108OSM   H14F11174   3.674   0.698   8.894 -0.2276  1.2520  0.4769
  108OSM   H14G11175   3.531   0.780   8.954  0.0886  0.4481 -1.2360
  108OSM   C15F11176   3.499   0.572   8.912  0.7088  0.2120 -0.5090
  108OSM   H15F11177   3.410   0.565   8.978  0.8587  1.5851 -0.1393
  108OSM   H15G11178   3.544   0.470   8.917 -0.6108 -0.3868 -0.3735
  108OSM   C16F11179   3.460   0.587   8.766 -0.0037 -0.0618  0.4900
  108OSM   H16F11180   3.548   0.629   8.713  0.5700 -1.8667 -0.0705
  108OSM   H16G11181   3.362   0.639   8.759  1.4326  2.5620 -1.9641
  108OSM   C17F11182   3.439   0.455   8.700 -0.6984 -0.1089  0.6947
  108OSM   H17F11183   3.359   0.411   8.764  0.7038  1.8101  3.9955
  108OSM   H17G11184   3.530   0.391   8.697  0.3623  1.4045 -1.5237
  108OSM   C18F11185   3.379   0.461   8.558  0.5555  0.2679  0.1407
  108OSM   H18F11186   3.444   0.503   8.479  0.1944 -0.4428 -0.5385
  108OSM   H18G11187   3.292   0.531   8.554  0.0951 -0.2685  0.5661
  108OSM   H18H11188   3.345   0.358   8.534 -0.5301  0.8225 -0.8013
  109OSM      N11189   4.230   0.243  10.637 -0.1028  0.7021  0.4056
  109OSM    C1511190   4.139   0.144  10.568  0.3045  0.4251 -0.2686
  109OSM   H15A11191   4.066   0.205  10.518 -0.3727 -0.0448  0.1316
  109OSM   H15B11192   4.102   0.073  10.641  2.5056 -1.6322 -0.9947
  109OSM   H15C11193   4.194   0.083  10.498  1.9825  0.7064  0.7222
  109OSM    C1411194   4.345   0.170  10.700 -0.4255 -0.6849  0.4786
  109OSM   H14A11195   4.314   0.108  10.783 -2.8732 -2.5014 -1.6231
  109OSM   H14B11196   4.412   0.246  10.739 -1.2501  0.6310 -0.5948
  109OSM   H14C11197   4.412   0.131  10.625 -0.5926  2.8065 -1.7286
  109OSM    C1311198   4.294   0.330  10.537  0.2208 -0.2407  0.1480
  109OSM   H13A11199   4.344   0.266  10.466  1.0688  1.5534 -0.9357
  109OSM   H13B11200   4.358   0.402  10.584 -2.5274  3.0547 -0.7589
  109OSM   H13C11201   4.230   0.386  10.469  0.5632 -2.7332 -2.4398
  109OSM    C1211202   4.145   0.322  10.739  0.0922 -0.8550  0.4974
  109OSM   H12A11203   4.142   0.268  10.832  0.4399 -1.7747 -0.0108
  109OSM   H12B11204   4.043   0.333  10.708  0.0546  1.2072  1.2184
  109OSM    C1111205   4.205   0.460  10.782  0.1917 -0.5566 -0.0040
  109OSM   H11A11206   4.125   0.494  10.851  1.0490 -0.2442  0.8635
  109OSM   H11B11207   4.214   0.537  10.702  2.9071 -0.3176  0.4260
  109OSM      P11208   4.465   0.510  10.838 -0.1216  0.1385  0.0664
  109OSM    O1311209   4.458   0.648  10.899 -0.4870 -0.2268 -0.1256
  109OSM    O1411210   4.567   0.421  10.888 -0.1693 -0.6437  0.1691
  109OSM    O1111211   4.476   0.523  10.680  0.5181 -0.6556 -0.8858
  109OSM    O1211212   4.323   0.440  10.861 -0.2739  0.1394  0.3606
  109OSM    C1S11213   4.602   0.503  10.616  0.4165 -0.2335 -0.3540
  109OSM    H1S11214   4.631   0.396  10.621 -1.1051 -0.7189 -1.1981
  109OSM    H1T11215   4.679   0.568  10.663  1.3223  0.1262 -2.2088
  109OSM     NF11216   4.715   0.477  10.402  0.0780  0.2078  0.4082
  109OSM    HNF11217   4.774   0.541  10.353 -1.1002  1.1355  0.1728
  109OSM    C2S11218   4.603   0.541  10.469  0.2306 -0.7862 -0.7636
  109OSM    H2S11219   4.509   0.520  10.413 -0.8824  1.3007  0.1855
  109OSM    C3S11220   4.603   0.703  10.459 -0.1756  0.0230  0.2860
  109OSM    H3S11221   4.706   0.738  10.481 -1.1207  2.1699  1.6556
  109OSM     O311222   4.517   0.761  10.552 -0.3905  1.3551  0.2772
  109OSM    HO311223   4.486   0.685  10.600 -0.3839 -0.6070 -2.5669
  109OSM    C4S11224   4.579   0.754  10.322 -0.8766 -0.6631  0.3568
  109OSM    H4S11225   4.501   0.698  10.267  0.4432 -2.4795  0.2680
  109OSM    C5S11226   4.629   0.868  10.267 -0.2268 -0.1171  0.7444
  109OSM    H5S11227   4.699   0.936  10.317  0.9864  0.9527 -2.1741
  109OSM    C6S11228   4.591   0.906  10.132 -0.1520 -0.4086  0.2531
  109OSM    H6S11229   4.565   1.014  10.143 -0.8824 -0.6121  0.5475
  109OSM    H6T11230   4.507   0.843  10.097  0.6439  0.0724 -2.8753
  109OSM    C7S11231   4.691   0.892  10.011  1.3278  0.0212 -0.6978
  109OSM    H7S11232   4.716   0.786   9.988 -0.0776 -0.8317  1.4540
  109OSM    H7T11233   4.786   0.946  10.031  1.8709 -1.2134  0.2513
  109OSM    C8S11234   4.631   0.958   9.884 -0.4679 -0.3899 -0.0689
  109OSM    H8S11235   4.616   1.067   9.898 -0.3728 -0.5965  1.9393
  109OSM    H8T11236   4.535   0.908   9.857 -1.8150  0.0631  3.3634
  109OSM    C9S11237   4.728   0.947   9.767 -0.1196 -0.3250  0.0169
  109OSM    H9S11238   4.804   0.872   9.795  1.8992  1.0471 -1.4369
  109OSM    H9T11239   4.785   1.040   9.745 -0.1438  0.0339  1.4248
  109OSM   C10S11240   4.659   0.903   9.635  0.1837 -0.0971 -0.6781
  109OSM   H10S11241   4.599   0.810   9.647 -0.5605  0.3862 -0.6378
  109OSM   H10T11242   4.746   0.861   9.580 -0.2078 -2.0858  0.1150
  109OSM   C11S11243   4.566   1.013   9.585  0.4961 -0.0726 -0.6452
  109OSM   H11S11244   4.624   1.108   9.575  2.7481 -1.2155  0.8046
  109OSM   H11T11245   4.486   1.024   9.662 -1.6488 -1.8925 -2.4857
  109OSM   C12S11246   4.491   0.982   9.456  0.1798 -0.6431 -0.0353
  109OSM   H12S11247   4.441   1.075   9.423  2.2271  1.2019  1.7299
  109OSM   H12T11248   4.415   0.908   9.489 -0.5827  1.1906  2.6081
  109OSM   C13S11249   4.579   0.923   9.351 -0.9629  0.0170 -0.3789
  109OSM   H13S11250   4.616   0.827   9.394  1.5425  1.4002  0.7150
  109OSM   H13T11251   4.660   0.997   9.337 -1.7561  1.3750  1.7976
  109OSM   C14S11252   4.510   0.892   9.218 -0.2092 -1.1585  0.0183
  109OSM   H14S11253   4.469   0.985   9.173  1.2463 -0.3900  0.2196
  109OSM   H14T11254   4.431   0.821   9.250  1.5422 -2.1429  2.5397
  109OSM   C15S11255   4.610   0.809   9.135 -0.7250  0.3001  0.3246
  109OSM   H15S11256   4.644   0.723   9.196 -1.6653  0.7524  1.5177
  109OSM   H15T11257   4.693   0.879   9.109 -1.1899  0.4341 -0.8591
  109OSM   C16S11258   4.550   0.768   9.002  0.4711  0.2073  0.5945
  109OSM   H16S11259   4.489   0.845   8.951 -0.0971 -2.0544 -2.4215
  109OSM   H16T11260   4.472   0.690   9.017  0.0161  0.5123 -0.1099
  109OSM   C17S11261   4.656   0.714   8.904 -0.2306 -0.7881 -0.6482
  109OSM   H17S11262   4.729   0.795   8.883  0.9366 -1.4991  0.4919
  109OSM   H17T11263   4.605   0.669   8.816  1.3007 -0.9922 -1.4670
  109OSM   C18S11264   4.731   0.601   8.969  0.2439  0.2743 -0.3695
  109OSM   H18S11265   4.797   0.628   9.054  0.2901  0.0447 -0.3304
  109OSM   H18T11266   4.801   0.562   8.893  1.1425 -1.9205  1.4471
  109OSM   H18U11267   4.676   0.516   9.015 -1.4459  1.7503  0.4575
  109OSM    C1F11268   4.715   0.345  10.374 -0.6889  0.6141  0.2747
  109OSM     OF11269   4.625   0.279  10.417  0.4875 -0.6660 -0.2725
  109OSM    C2F11270   4.832   0.280  10.295  0.1401  0.7801 -0.4609
  109OSM    H2F11271   4.882   0.204  10.358 -0.6436  0.1640 -0.5682
  109OSM    H2G11272   4.910   0.358  10.281  0.3029  0.3817 -1.8838
  109OSM    C3F11273   4.801   0.222  10.156 -0.0183 -0.7401 -0.2647
  109OSM    H3F11274   4.749   0.124  10.150  1.3774 -1.6803  1.6470
  109OSM    H3G11275   4.902   0.207  10.113 -0.2884 -0.5988 -0.9564
  109OSM    C4F11276   4.733   0.325  10.064  0.2446  0.2914 -0.3382
  109OSM    H4F11277   4.799   0.413  10.079  0.2857  0.2995 -0.5598
  109OSM    H4G11278   4.634   0.361  10.100  0.7381  1.2398  0.1246
  109OSM    C5F11279   4.733   0.288   9.917 -0.9758  0.4988 -0.7181
  109OSM    H5F11280   4.647   0.226   9.885  0.3130 -0.7421 -1.9689
  109OSM    H5G11281   4.827   0.230   9.905 -1.8228 -1.3184  0.8503
  109OSM    C6F11282   4.737   0.421   9.833  0.3548  0.1659 -0.1101
  109OSM    H6F11283   4.834   0.470   9.855  0.5405 -0.5726  0.7564
  109OSM    H6G11284   4.656   0.488   9.868 -0.2054 -0.4546 -0.2032
  109OSM    C7F11285   4.701   0.387   9.689 -0.6986 -0.1635  0.6284
  109OSM    H7F11286   4.591   0.400   9.679 -0.7120 -1.7433 -2.2732
  109OSM    H7G11287   4.718   0.284   9.652  0.4034  0.0022  0.6339
  109OSM    C8F11288   4.780   0.479   9.599  0.8503 -0.1412  0.2289
  109OSM    H8F11289   4.886   0.444   9.603  0.9234  0.2448  3.0305
  109OSM    H8G11290   4.777   0.579   9.648  0.0637  0.0972 -0.2779
  109OSM    C9F11291   4.721   0.478   9.460 -0.1468 -0.7798  0.1198
  109OSM    H9F11292   4.622   0.525   9.454 -0.2635 -0.7846  1.6184
  109OSM   C10F11293   4.781   0.438   9.346 -0.5857  0.4263  0.3959
  109OSM   H10F11294   4.730   0.463   9.252 -0.0783 -0.9723 -0.2795
  109OSM   C11F11295   4.916   0.379   9.344  0.2158  0.5674  1.2153
  109OSM   H11F11296   4.902   0.269   9.352  0.9812  0.4651  1.2190
  109OSM   H11G11297   4.981   0.421   9.424  0.7176  3.3367 -0.4942
  109OSM   C12F11298   4.983   0.410   9.208  0.5345 -0.0816  0.5682
  109OSM   H12F11299   5.087   0.373   9.224  0.7717  0.4921  0.3798
  109OSM   H12G11300   4.996   0.518   9.187  1.7855 -0.4665 -0.8961
  109OSM   C13F11301   4.931   0.331   9.081 -0.6762 -0.3467 -0.1060
  109OSM   H13F11302   4.829   0.360   9.049 -0.1772 -1.5018 -3.1389
  109OSM   H13G11303   4.931   0.223   9.107  0.3256 -0.5796 -0.9860
  109OSM   C14F11304   5.023   0.354   8.961 -0.0997  0.2746 -0.3682
  109OSM   H14F11305   5.115   0.295   8.982  0.5570  0.0271 -3.5198
  109OSM   H14G11306   5.042   0.462   8.946  1.0573  0.3350  1.2563
  109OSM   C15F11307   4.969   0.304   8.827  0.3920  0.2304 -0.6706
  109OSM   H15F11308   4.886   0.370   8.795  0.2844  0.9025  0.8935
  109OSM   H15G11309   4.926   0.202   8.832  1.2353 -0.0927  0.8080
  109OSM   C16F11310   5.071   0.308   8.712  0.4709  0.1463  0.4961
  109OSM   H16F11311   5.011   0.264   8.629  0.8403  0.8801 -0.1749
  109OSM   H16G11312   5.155   0.238   8.729  0.8779  1.0451  2.4471
  109OSM   C17F11313   5.110   0.444   8.667 -0.3052 -0.5959  0.0861
  109OSM   H17F11314   5.136   0.499   8.760 -0.7492 -0.9314  0.4130
  109OSM   H17G11315   5.019   0.481   8.615  1.4834  1.2076 -1.9608
  109OSM   C18F11316   5.227   0.468   8.567  0.4404  0.4559  0.6122
  109OSM   H18F11317   5.223   0.420   8.467  3.9214 -0.0028  0.5686
  109OSM   H18G11318   5.319   0.425   8.613 -0.7245 -2.7566  0.2437
  109OSM   H18H11319   5.237   0.577   8.548 -1.4911  1.0657  2.6248
  110OSM      N11320   5.894   5.572  10.676  0.0983 -0.4241 -0.3055
  110OSM    C1511321   5.909   5.661  10.796  0.1124  0.1683  0.5819
  110OSM   H15A11322   5.871   5.608  10.882 -3.1313  2.8544  1.0092
  110OSM   H15B11323   5.860   5.757  10.795  0.3007  0.2844 -1.0449
  110OSM   H15C11324   6.012   5.693  10.808  0.0827  1.8242 -2.4779
  110OSM    C1411325   5.939   5.655  10.558  0.2085 -0.4119  0.8927
  110OSM   H14A11326   6.004   5.738  10.581  1.2926 -1.5044  1.9267
  110OSM   H14B11327   5.856   5.702  10.508  1.4135  1.2665  0.4129
  110OSM   H14C11328   5.984   5.579  10.496  0.0200  1.7361 -2.1111
  110OSM    C1311329   5.983   5.450  10.688 -0.2600 -0.4384  0.2301
  110OSM   H13A11330   6.086   5.469  10.716  0.2262 -1.6954 -0.6421
  110OSM   H13B11331   5.988   5.386  10.602 -1.4988 -0.3355  0.0660
  110OSM   H13C11332   5.947   5.385  10.766  0.2141 -1.5589 -0.4682
  110OSM    C1211333   5.750   5.534  10.654  0.4147 -0.5543  0.2987
  110OSM   H12A11334   5.728   5.475  10.742  0.0932  1.2313  1.4479
  110OSM   H12B11335   5.748   5.481  10.559 -0.7799  2.6089 -1.5888
  110OSM    C1111336   5.644   5.643  10.660  0.0624 -0.5797 -0.3160
  110OSM   H11A11337   5.546   5.606  10.625  0.4091  0.9569 -3.2365
  110OSM   H11B11338   5.678   5.711  10.579  0.8005  0.8882  1.1597
  110OSM      P11339   5.611   5.860  10.797  0.6568  0.3198 -0.1021
  110OSM    O1311340   5.501   5.883  10.891 -0.3871 -0.0854 -0.1333
  110OSM    O1411341   5.740   5.932  10.827  0.4539 -0.1164 -0.1290
  110OSM    O1111342   5.561   5.909  10.654  0.2484 -0.0091 -0.2105
  110OSM    O1211343   5.636   5.704  10.787  0.1474  0.2002  0.0985
  110OSM    C1S11344   5.593   6.037  10.609 -0.5350  0.3469  0.2913
  110OSM    H1S11345   5.691   6.072  10.648 -0.0443 -0.4809 -0.1539
  110OSM    H1T11346   5.511   6.107  10.634 -1.0085  0.4097 -1.3292
  110OSM     NF11347   5.646   6.165  10.407  0.7361  0.2945 -0.4829
  110OSM    HNF11348   5.568   6.216  10.373 -0.3252 -1.0405 -0.1329
  110OSM    C2S11349   5.605   6.034  10.457  0.1889 -0.6617  0.2685
  110OSM    H2S11350   5.685   5.964  10.427  0.7346  0.1196 -0.1451
  110OSM    C3S11351   5.483   5.992  10.378  0.7860  0.6225  0.0268
  110OSM    H3S11352   5.403   6.068  10.386 -1.3428 -1.6733  2.0882
  110OSM     O311353   5.414   5.880  10.434 -0.1006 -0.3296 -0.1796
  110OSM    HO311354   5.466   5.863  10.512  1.0546  3.1736 -0.0628
  110OSM    C4S11355   5.515   5.974  10.237  0.2687  0.4937 -0.2646
  110OSM    H4S11356   5.568   5.883  10.204  1.2425  0.5222  1.1295
  110OSM    C5S11357   5.490   6.052  10.135 -0.4754 -0.1940  0.2768
  110OSM    H5S11358   5.441   6.149  10.150 -0.0486  0.2007 -0.7758
  110OSM    C6S11359   5.526   6.017   9.992  0.3042  0.4081 -0.3493
  110OSM    H6S11360   5.436   6.024   9.928  0.4974  1.0563 -0.5579
  110OSM    H6T11361   5.560   5.912   9.978 -0.7670  0.3520 -2.9525
  110OSM    C7S11362   5.633   6.108   9.934  0.7333 -0.1893  0.3189
  110OSM    H7S11363   5.728   6.090   9.988 -0.8281 -2.3068  2.6139
  110OSM    H7T11364   5.606   6.216   9.940 -0.2611 -0.4140  0.0156
  110OSM    C8S11365   5.655   6.085   9.778  0.3472 -0.5042 -0.3496
  110OSM    H8S11366   5.705   5.986   9.779  0.2794 -0.6205  3.0372
  110OSM    H8T11367   5.728   6.149   9.723 -1.1026  0.8048 -0.8278
  110OSM    C9S11368   5.520   6.090   9.700 -0.2596  0.1742 -0.2412
  110OSM    H9S11369   5.463   6.165   9.757  0.3493  0.6403 -0.2318
  110OSM    H9T11370   5.480   5.988   9.720  0.4712  0.0925  0.8882
  110OSM   C10S11371   5.532   6.108   9.556  0.1225  0.6005  0.2477
  110OSM   H10S11372   5.608   6.037   9.516  1.6400  2.5366 -0.4860
  110OSM   H10T11373   5.574   6.209   9.538 -0.1444  0.3547 -2.0529
  110OSM   C11S11374   5.397   6.094   9.482  0.9030  0.5487  0.2185
  110OSM   H11S11375   5.324   6.152   9.542  2.2239  2.2133  0.3072
  110OSM   H11T11376   5.359   5.990   9.480 -0.8890  1.1739 -0.5596
  110OSM   C12S11377   5.409   6.145   9.339  0.3663 -0.4704  0.8909
  110OSM   H12S11378   5.406   6.256   9.341  0.2029 -0.4008 -1.2852
  110OSM   H12T11379   5.311   6.121   9.293  0.8274  0.7697 -0.8521
  110OSM   C13S11380   5.534   6.088   9.257 -0.0503  0.1269 -0.1991
  110OSM   H13S11381   5.549   5.984   9.293  2.0314  0.6953  0.7411
  110OSM   H13T11382   5.626   6.143   9.288  1.3490 -2.1381 -0.0822
  110OSM   C14S11383   5.526   6.107   9.107  0.0973 -0.1931 -0.7125
  110OSM   H14S11384   5.486   6.016   9.057 -1.1021 -0.5701  0.8428
  110OSM   H14T11385   5.632   6.101   9.073  1.2874 -3.8981  2.8432
  110OSM   C15S11386   5.461   6.244   9.066  0.3548  0.0751  0.1296
  110OSM   H15S11387   5.503   6.332   9.119  0.3232  1.6715 -2.3479
  110OSM   H15T11388   5.352   6.237   9.081  0.4062 -1.7082 -0.0579
  110OSM   C16S11389   5.496   6.272   8.914  0.2760 -0.1998  0.0587
  110OSM   H16S11390   5.474   6.175   8.864  0.5651  0.1727 -0.8111
  110OSM   H16T11391   5.603   6.293   8.889  0.4024 -1.2503 -0.3137
  110OSM   C17S11392   5.402   6.386   8.873 -0.8806  0.1899  0.7398
  110OSM   H17S11393   5.302   6.382   8.922 -0.7128 -2.7798  0.9989
  110OSM   H17T11394   5.376   6.360   8.768  1.5274  0.8377 -0.0766
  110OSM   C18S11395   5.467   6.526   8.867  0.2897 -0.6365  0.1780
  110OSM   H18S11396   5.539   6.553   8.787  0.3604  1.0985  0.7782
  110OSM   H18T11397   5.520   6.534   8.965  0.8224 -2.3996  0.0639
  110OSM   H18U11398   5.379   6.594   8.862  0.4136 -0.5271 -0.5237
  110OSM    C1F11399   5.770   6.211  10.429  0.2720 -0.2180 -0.0148
  110OSM     OF11400   5.861   6.136  10.461 -0.1780 -0.1448  0.5916
  110OSM    C2F11401   5.791   6.360  10.406 -0.2643  0.1514  0.2573
  110OSM    H2F11402   5.838   6.401  10.498  1.4601 -0.1003 -0.4829
  110OSM    H2G11403   5.696   6.418  10.396  0.2049  0.6865 -1.5320
  110OSM    C3F11404   5.882   6.393  10.279 -0.0601  0.9977  0.7626
  110OSM    H3F11405   5.978   6.337  10.286 -0.1731  0.5655 -0.6838
  110OSM    H3G11406   5.903   6.501  10.266  0.7074  1.1121  2.6240
  110OSM    C4F11407   5.806   6.362  10.146 -0.1841  0.8608  0.0533
  110OSM    H4F11408   5.702   6.393  10.169 -0.2823  0.7621 -0.2498
  110OSM    H4G11409   5.802   6.252  10.132 -0.3581  0.6946  1.3315
  110OSM    C5F11410   5.874   6.437  10.031 -0.0240 -0.1125  0.2079
  110OSM    H5F11411   5.983   6.416  10.039  0.0144 -0.6416 -1.3911
  110OSM    H5G11412   5.865   6.546  10.048 -0.5712 -0.2473  0.8195
  110OSM    C6F11413   5.840   6.383   9.897  0.3653  0.3117 -0.3586
  110OSM    H6F11414   5.737   6.416   9.870  0.3410 -0.7517 -1.6532
  110OSM    H6G11415   5.852   6.273   9.908 -0.7339  0.1781 -0.3219
  110OSM    C7F11416   5.934   6.428   9.795 -0.4694 -0.0832  0.4653
  110OSM    H7F11417   6.032   6.391   9.832  0.3232  2.7218  1.5045
  110OSM    H7G11418   5.938   6.539   9.799  3.0737 -0.1340  1.0746
  110OSM    C8F11419   5.915   6.366   9.655  0.4922  0.3965  0.3413
  110OSM    H8F11420   5.816   6.401   9.618  0.2150 -1.2199 -0.5368
  110OSM    H8G11421   5.898   6.257   9.661 -0.5934  0.5724  0.7979
  110OSM    C9F11422   6.019   6.392   9.552 -0.4289 -0.5272 -0.0784
  110OSM    H9F11423   6.097   6.464   9.578 -0.9329  0.3870 -1.0144
  110OSM   C10F11424   6.025   6.327   9.435  0.6092  0.1519  0.6057
  110OSM   H10F11425   6.100   6.358   9.360 -1.8682 -1.4754 -2.8406
  110OSM   C11F11426   5.927   6.224   9.371 -0.4592 -0.5540  0.1599
  110OSM   H11F11427   5.856   6.279   9.307 -0.5215 -1.2815 -0.4021
  110OSM   H11G11428   5.863   6.182   9.451  0.1193 -1.4830  0.1518
  110OSM   C12F11429   6.000   6.126   9.283 -0.4476  0.3445 -0.4092
  110OSM   H12F11430   6.087   6.079   9.333 -0.7118  1.4649  1.1898
  110OSM   H12G11431   6.055   6.178   9.202  1.2234  0.3381  0.6945
  110OSM   C13F11432   5.918   6.008   9.229  0.5786 -0.3860  0.4773
  110OSM   H13F11433   5.968   5.962   9.141  1.4435 -0.3449  0.9355
  110OSM   H13G11434   5.814   6.043   9.210  0.1658 -1.2325  1.1092
  110OSM   C14F11435   5.911   5.904   9.340 -0.1015 -0.2034  1.0362
  110OSM   H14F11436   5.880   5.959   9.432 -0.0764 -1.8054  2.0373
  110OSM   H14G11437   6.004   5.847   9.362 -1.7340 -2.4122  2.6857
  110OSM   C15F11438   5.799   5.798   9.327 -0.3154 -0.5540  0.4193
  110OSM   H15F11439   5.703   5.855   9.330 -0.8016 -1.3880  2.3365
  110OSM   H15G11440   5.822   5.730   9.411  3.5431 -0.0185 -0.0583
  110OSM   C16F11441   5.785   5.719   9.196 -0.4915  0.5626  1.1032
  110OSM   H16F11442   5.738   5.787   9.122 -1.0118 -1.3271 -0.3942
  110OSM   H16G11443   5.717   5.632   9.209 -0.2822  0.1627 -0.3112
  110OSM   C17F11444   5.924   5.661   9.146 -0.5014 -0.2148  0.4782
  110OSM   H17F11445   5.943   5.571   9.208  0.7907  0.1347  0.6076
  110OSM   H17G11446   6.009   5.728   9.167  1.6596 -2.2325 -1.1906
  110OSM   C18F11447   5.938   5.613   9.005  0.1985  0.4169 -0.1639
  110OSM   H18F11448   6.032   5.557   8.983 -0.4429  0.0783 -2.1557
  110OSM   H18G11449   5.937   5.693   8.928  1.5316 -0.3123 -0.9734
  110OSM   H18H11450   5.852   5.544   8.992 -0.4364  0.6179  2.3191
  111OSM      N11451   5.822   3.825  10.807  0.0094  0.4877  0.9091
  111OSM    C1511452   5.731   3.851  10.699 -0.0792  0.4555  0.0246
  111OSM   H15A11453   5.760   3.928  10.629  2.7110 -1.6516 -1.3656
  111OSM   H15B11454   5.634   3.887  10.730  0.1872  0.5839  0.7210
  111OSM   H15C11455   5.719   3.761  10.639  0.4608  0.0348  0.5418
  111OSM    C1411456   5.774   3.697  10.873 -0.0080  0.0726 -0.3449
  111OSM   H14A11457   5.853   3.656  10.933  1.7040  0.2583 -2.3582
  111OSM   H14B11458   5.746   3.613  10.812 -1.1093  0.8075 -0.9035
  111OSM   H14C11459   5.687   3.723  10.933 -0.4952 -1.4590 -0.3651
  111OSM    C1311460   5.958   3.800  10.748 -0.4719  0.0508  0.0229
  111OSM   H13A11461   6.037   3.780  10.818 -0.4990 -0.8234 -0.1877
  111OSM   H13B11462   5.999   3.891  10.705  1.6086  0.3313  2.4055
  111OSM   H13C11463   5.964   3.725  10.671 -0.0842  0.4394 -0.3364
  111OSM    C1211464   5.820   3.938  10.905  0.1727 -0.5027  0.5537
  111OSM   H12A11465   5.840   3.889  10.999  1.0923 -2.1369 -0.4588
  111OSM   H12B11466   5.726   3.988  10.924  1.6552  2.0430  1.8333
  111OSM    C1111467   5.928   4.046  10.878  0.3119 -0.1002  0.0222
  111OSM   H11A11468   5.916   4.074  10.772 -0.9804  0.0667  0.1939
  111OSM   H11B11469   6.026   3.995  10.890 -1.4454 -3.5934  0.7645
  111OSM      P11470   5.784   4.255  10.944  0.4063  0.2775 -0.1849
  111OSM    O1311471   5.662   4.188  10.994 -0.2542  0.1878 -0.3735
  111OSM    O1411472   5.818   4.386  11.000  0.4592  0.2929 -0.4605
  111OSM    O1111473   5.774   4.256  10.792 -0.3305 -0.5399  0.2810
  111OSM    O1211474   5.906   4.155  10.971 -0.1225  0.2366  0.1651
  111OSM    C1S11475   5.862   4.331  10.710  0.7270  0.3064 -0.1892
  111OSM    H1S11476   5.968   4.327  10.745  0.5711 -0.0970  0.2363
  111OSM    H1T11477   5.836   4.439  10.706 -0.4540 -0.0036 -1.9115
  111OSM     NF11478   5.905   4.402  10.469 -0.0275  0.6952 -0.5748
  111OSM    HNF11479   5.846   4.465  10.419  0.7181  0.1073 -2.2988
  111OSM    C2S11480   5.850   4.295  10.559  0.5590 -0.3172 -0.1832
  111OSM    H2S11481   5.910   4.203  10.544 -2.1521 -2.4174  1.0415
  111OSM    C3S11482   5.709   4.254  10.515 -0.5118  0.4044  0.0062
  111OSM    H3S11483   5.636   4.338  10.525 -0.4905  0.4421 -0.1486
  111OSM     O311484   5.655   4.147  10.598 -0.2348 -0.5670 -0.0315
  111OSM    HO311485   5.699   4.158  10.682  0.0395  0.3406 -0.2790
  111OSM    C4S11486   5.701   4.213  10.371 -0.2189 -0.5130  1.0516
  111OSM    H4S11487   5.755   4.124  10.337 -0.0727  0.1988 -0.6536
  111OSM    C5S11488   5.632   4.273  10.273  0.2146 -1.2155  0.0632
  111OSM    H5S11489   5.567   4.356  10.306  0.0293 -1.9488  1.6793
  111OSM    C6S11490   5.630   4.224  10.133  0.1966  0.0878 -0.0980
  111OSM    H6S11491   5.698   4.290  10.074 -0.1904  0.6235  0.0391
  111OSM    H6T11492   5.529   4.249  10.095 -0.0944 -0.4076  0.3409
  111OSM    C7S11493   5.658   4.076  10.100  0.0023 -1.0278  0.0571
  111OSM    H7S11494   5.597   4.016  10.170 -2.6597 -0.3359 -1.5297
  111OSM    H7T11495   5.767   4.057  10.108  0.6896  1.3461 -2.2672
  111OSM    C8S11496   5.617   4.031   9.958 -0.6736  0.4862 -0.3050
  111OSM    H8S11497   5.678   4.086   9.884  1.2056 -3.0766 -1.6771
  111OSM    H8T11498   5.509   4.033   9.936 -0.8448 -1.1645  0.1836
  111OSM    C9S11499   5.657   3.885   9.928  0.0960  0.1611 -0.0941
  111OSM    H9S11500   5.635   3.820  10.016  1.5219  1.2311  1.0868
  111OSM    H9T11501   5.765   3.890   9.904  0.2904 -0.4832  0.6075
  111OSM   C10S11502   5.593   3.839   9.797 -0.1980 -0.3354 -0.1393
  111OSM   H10S11503   5.483   3.835   9.812 -0.1829 -0.8091 -0.1358
  111OSM   H10T11504   5.620   3.733   9.776  0.4941 -0.2802  0.4161
  111OSM   C11S11505   5.626   3.928   9.680  0.2441 -0.2626 -0.2670
  111OSM   H11S11506   5.736   3.933   9.667  0.1943  1.2316 -0.2369
  111OSM   H11T11507   5.577   4.023   9.710 -2.5139 -2.3649  2.4288
  111OSM   C12S11508   5.570   3.896   9.537 -0.3117  0.6477  0.3584
  111OSM   H12S11509   5.593   3.982   9.471  0.9367  0.2489  0.2635
  111OSM   H12T11510   5.462   3.868   9.545  0.4611 -2.1779  2.1300
  111OSM   C13S11511   5.639   3.770   9.480  0.8809 -0.2114 -0.1489
  111OSM   H13S11512   5.604   3.677   9.529  0.0813 -0.1200 -0.5263
  111OSM   H13T11513   5.749   3.769   9.494  0.7836 -0.0184  0.6929
  111OSM   C14S11514   5.608   3.743   9.330  0.3166  0.5036 -0.4160
  111OSM   H14S11515   5.623   3.839   9.276 -1.3899  1.9907  1.5593
  111OSM   H14T11516   5.498   3.724   9.325  0.7422 -1.9037 -2.1737
  111OSM   C15S11517   5.702   3.642   9.266  0.2157  0.0106  0.5448
  111OSM   H15S11518   5.701   3.538   9.306  2.5849 -0.6208 -0.7947
  111OSM   H15T11519   5.803   3.688   9.274 -0.1670  1.1146 -0.7388
  111OSM   C16S11520   5.647   3.627   9.122  0.0982  0.3514 -0.1432
  111OSM   H16S11521   5.656   3.727   9.073  2.1008 -0.0965 -0.7797
  111OSM   H16T11522   5.541   3.594   9.115  1.0319 -2.8106 -0.6739
  111OSM   C17S11523   5.725   3.527   9.036 -0.2064  0.0155 -0.2526
  111OSM   H17S11524   5.798   3.472   9.100 -1.1417 -0.2258  0.6399
  111OSM   H17T11525   5.800   3.587   8.980 -2.0231  1.7140 -0.9824
  111OSM   C18S11526   5.635   3.433   8.960  0.0827 -0.6862  0.1933
  111OSM   H18S11527   5.564   3.489   8.895 -0.8615 -1.3535  0.6275
  111OSM   H18T11528   5.577   3.357   9.016  2.7561 -1.1794  2.5243
  111OSM   H18U11529   5.704   3.375   8.894  0.1222  2.1310 -2.5059
  111OSM    C1F11530   6.035   4.429  10.461 -0.3961 -0.1226 -0.2219
  111OSM     OF11531   6.123   4.368  10.522  0.0928 -0.0952  0.0368
  111OSM    C2F11532   6.071   4.549  10.374  0.2315  0.1883  0.1178
  111OSM    H2F11533   6.161   4.596  10.418  1.4938 -0.6549 -1.4492
  111OSM    H2G11534   5.981   4.614  10.382 -1.9242 -2.7664  2.2165
  111OSM    C3F11535   6.106   4.515  10.232 -0.4924 -0.1806  0.5012
  111OSM    H3F11536   6.181   4.434  10.234  0.4774  0.6368 -1.2982
  111OSM    H3G11537   6.134   4.611  10.184  1.3198 -1.0226 -0.1897
  111OSM    C4F11538   5.986   4.471  10.144  0.1737  0.3719 -0.1076
  111OSM    H4F11539   5.895   4.529  10.170 -0.5206  0.4802 -2.5066
  111OSM    H4G11540   5.957   4.365  10.163  0.9588  0.2852  0.6287
  111OSM    C5F11541   6.022   4.480   9.991  0.1636 -0.1819 -0.2770
  111OSM    H5F11542   6.118   4.426   9.975  1.3479  1.7948 -0.1271
  111OSM    H5G11543   6.031   4.585   9.955 -0.8719  0.7200  1.8906
  111OSM    C6F11544   5.917   4.418   9.902  0.2374 -0.2993  0.2265
  111OSM    H6F11545   5.823   4.467   9.936 -0.5017 -0.1030 -1.9339
  111OSM    H6G11546   5.902   4.310   9.921 -3.7837  0.0566 -0.1495
  111OSM    C7F11547   5.938   4.427   9.745 -0.8329  0.0004  0.6053
  111OSM    H7F11548   6.028   4.364   9.728  0.2256  1.9412 -1.5994
  111OSM    H7G11549   5.954   4.533   9.715 -2.5230  0.7555  2.2178
  111OSM    C8F11550   5.813   4.364   9.683 -0.4766 -0.6817  0.2240
  111OSM    H8F11551   5.730   4.437   9.698  0.4953  0.4194  0.3322
  111OSM    H8G11552   5.790   4.266   9.730  1.3365 -1.4040 -0.3082
  111OSM    C9F11553   5.826   4.334   9.538  0.8285 -0.6738  0.3005
  111OSM    H9F11554   5.926   4.320   9.493  0.8527 -2.0537  0.7433
  111OSM   C10F11555   5.724   4.326   9.456 -0.0410  0.1055  0.8798
  111OSM   H10F11556   5.755   4.318   9.351  1.2388 -0.4167  1.2827
  111OSM   C11F11557   5.573   4.338   9.482 -0.5100  0.1740  0.1657
  111OSM   H11F11558   5.553   4.371   9.586 -3.3298  0.4776 -0.4087
  111OSM   H11G11559   5.530   4.235   9.477 -1.0656  0.3796  0.6598
  111OSM   C12F11560   5.493   4.445   9.402  0.1020 -0.1897 -0.1129
  111OSM   H12F11561   5.527   4.545   9.438  0.8380 -0.5423  0.1999
  111OSM   H12G11562   5.386   4.434   9.429  0.3489 -0.0559  1.0010
  111OSM   C13F11563   5.500   4.447   9.250 -0.1622  0.4853 -0.3846
  111OSM   H13F11564   5.604   4.476   9.225 -0.1051  2.1661  1.5433
  111OSM   H13G11565   5.437   4.526   9.206  0.3483 -0.2674 -2.5895
  111OSM   C14F11566   5.464   4.319   9.170  0.2463 -0.4973  0.0433
  111OSM   H14F11567   5.375   4.273   9.217 -0.3234  0.6800  0.1536
  111OSM   H14G11568   5.558   4.260   9.180  1.9762  1.7199 -2.0103
  111OSM   C15F11569   5.439   4.359   9.027  0.3572 -0.5666  0.5081
  111OSM   H15F11570   5.517   4.433   8.998 -1.2600  0.5759 -1.1514
  111OSM   H15G11571   5.343   4.416   9.028 -0.5001 -1.6700 -3.3582
  111OSM   C16F11572   5.455   4.248   8.924 -0.2781 -0.3432 -0.4123
  111OSM   H16F11573   5.385   4.164   8.943  1.8408 -2.4112 -1.2360
  111OSM   H16G11574   5.557   4.205   8.934  0.8008  1.6198 -2.1698
  111OSM   C17F11575   5.427   4.312   8.786  0.5594  0.1088  0.3291
  111OSM   H17F11576   5.430   4.421   8.805 -0.0618 -0.1917  2.4142
  111OSM   H17G11577   5.325   4.294   8.745  1.1735 -0.1558 -1.1346
  111OSM   C18F11578   5.532   4.263   8.688  0.1043 -0.0076 -0.3758
  111OSM   H18F11579   5.608   4.200   8.739 -0.7212 -0.6729  0.0632
  111OSM   H18G11580   5.589   4.353   8.656  0.8359 -0.5311 -0.5708
  111OSM   H18H11581   5.501   4.209   8.596  2.2524 -2.2508  0.0900
  112OSM      N11582   0.040   6.716  11.595 -0.3790  0.5817  0.1568
  112OSM    C1511583   0.037   6.615  11.700  0.0116  0.2318  0.1696
  112OSM   H15A11584   0.053   6.665  11.795 -2.4534  2.6047 -0.5478
  112OSM   H15B11585   0.103   6.532  11.682 -1.2433 -0.9203  0.7713
  112OSM   H15C11586  -0.061   6.570  11.701  0.8431 -1.7148 -0.9903
  112OSM    C1411587  -0.081   6.808  11.601  0.3605 -0.8942 -0.1202
  112OSM   H14A11588  -0.177   6.762  11.584 -0.6531  0.6669  1.0834
  112OSM   H14B11589  -0.068   6.885  11.527 -1.8355 -1.7630 -1.4852
  112OSM   H14C11590  -0.093   6.860  11.695  1.1016  0.7913 -0.9289
  112OSM    C1311591   0.164   6.801  11.606 -0.1036 -0.2495 -0.1959
  112OSM   H13A11592   0.155   6.891  11.547  1.7637  0.3565  0.3614
  112OSM   H13B11593   0.250   6.747  11.570  1.7521  2.7299 -0.6346
  112OSM   H13C11594   0.185   6.831  11.708  0.7861  1.7298 -0.8965
  112OSM    C1211595   0.031   6.656  11.458 -0.2384  0.0882 -0.5155
  112OSM   H12A11596  -0.056   6.593  11.463  0.4535 -0.7718  2.0976
  112OSM   H12B11597   0.109   6.582  11.457  0.2121  0.4824  1.2598
  112OSM    C1111598   0.025   6.744  11.328  0.5518  0.2838  0.3679
  112OSM   H11A11599  -0.079   6.785  11.330  0.9012  1.1893  1.9039
  112OSM   H11B11600   0.017   6.666  11.250 -0.3490 -1.5820  2.1993
  112OSM      P11601   0.130   6.941  11.200  0.2145  0.2175  0.5138
  112OSM    O1311602   0.012   7.031  11.207  0.0928 -0.5875 -0.4386
  112OSM    O1411603   0.260   7.008  11.197 -0.3603  0.9481 -0.3584
  112OSM    O1111604   0.115   6.858  11.071  0.5918  0.1743 -0.1500
  112OSM    O1211605   0.135   6.833  11.319  0.1606  0.2782  0.2871
  112OSM    C1S11606   0.153   6.911  10.940 -0.3339 -0.0903 -0.7390
  112OSM    H1S11607   0.262   6.892  10.924 -0.4692 -2.3272  0.5531
  112OSM    H1T11608   0.159   7.021  10.932  0.6861 -0.0343  0.4088
  112OSM     NF11609   0.120   6.908  10.698 -0.1005 -0.1283  0.0193
  112OSM    HNF11610   0.072   6.982  10.650  0.2936  0.2184  0.1586
  112OSM    C2S11611   0.074   6.852  10.822  0.8670  0.5136 -0.1328
  112OSM    H2S11612   0.096   6.743  10.814 -0.2053  0.2178  0.6617
  112OSM    C3S11613  -0.089   6.864  10.840  0.1054 -0.4619 -0.7290
  112OSM    H3S11614  -0.105   6.965  10.883 -0.1798 -0.2785 -1.2636
  112OSM     O311615  -0.144   6.778  10.944  0.2671 -0.0322  0.1271
  112OSM    HO311616  -0.072   6.734  10.989  1.2092  2.0706  0.8042
  112OSM    C4S11617  -0.175   6.850  10.716 -0.7870  0.2601  0.2671
  112OSM    H4S11618  -0.187   6.946  10.664 -0.8494  1.4358  2.3217
  112OSM    C5S11619  -0.219   6.732  10.657  0.7354 -0.1429 -0.3165
  112OSM    H5S11620  -0.204   6.634  10.705 -1.8433 -0.5914 -0.2736
  112OSM    C6S11621  -0.307   6.723  10.527 -0.5232 -0.3666  0.4394
  112OSM    H6S11622  -0.417   6.713  10.540 -0.9924  1.0792 -1.7111
  112OSM    H6T11623  -0.287   6.627  10.475 -1.8492  0.9414 -2.7887
  112OSM    C7S11624  -0.293   6.829  10.421  0.3505  0.3118 -0.2398
  112OSM    H7S11625  -0.314   6.930  10.463  2.0227  0.7317 -0.3206
  112OSM    H7T11626  -0.360   6.806  10.336  1.8902  0.2949 -1.4977
  112OSM    C8S11627  -0.159   6.844  10.349  0.0970  0.3150  0.6567
  112OSM    H8S11628  -0.129   6.750  10.299 -0.6182  0.9763 -1.1406
  112OSM    H8T11629  -0.074   6.847  10.420  0.3242 -2.6596  0.6327
  112OSM    C9S11630  -0.146   6.968  10.253 -0.9511 -0.1321 -0.4787
  112OSM    H9S11631  -0.041   7.001  10.273 -1.1233  1.6354 -2.2007
  112OSM    H9T11632  -0.212   7.049  10.292 -0.4624  0.7166 -1.3580
  112OSM   C10S11633  -0.171   6.942  10.104 -0.1437 -0.3439 -0.0944
  112OSM   H10S11634  -0.281   6.940  10.087 -0.2829 -0.0800  0.7184
  112OSM   H10T11635  -0.131   6.844  10.072 -2.1215 -1.2804  0.1418
  112OSM   C11S11636  -0.094   7.042  10.015  0.0668 -0.3365 -0.1995
  112OSM   H11S11637   0.014   7.048  10.038  0.3303  0.7803 -1.5735
  112OSM   H11T11638  -0.143   7.140  10.034 -1.3217 -1.2896  1.4350
  112OSM   C12S11639  -0.101   7.010   9.859 -0.3523  0.1937  0.4610
  112OSM   H12S11640  -0.059   6.907   9.856 -0.6790  0.0739 -1.4938
  112OSM   H12T11641  -0.026   7.071   9.805  0.4698 -0.4165  0.9041
  112OSM   C13S11642  -0.237   7.024   9.788 -0.3340 -0.6944  0.0589
  112OSM   H13S11643  -0.299   7.103   9.837  0.4462  0.2957 -0.5073
  112OSM   H13T11644  -0.304   6.937   9.802  2.3885 -2.6099  2.1534
  112OSM   C14S11645  -0.232   7.043   9.639  0.1896 -0.4123 -0.3107
  112OSM   H14S11646  -0.174   7.137   9.628  1.8115 -1.4116 -0.5240
  112OSM   H14T11647  -0.336   7.061   9.604 -0.5285  1.0901  2.2969
  112OSM   C15S11648  -0.154   6.936   9.567 -0.0454 -0.1100 -0.3402
  112OSM   H15S11649  -0.053   6.946   9.610 -0.2376 -0.0204  0.0999
  112OSM   H15T11650  -0.150   6.970   9.461 -2.5829 -0.6222 -0.6859
  112OSM   C16S11651  -0.198   6.790   9.577  0.0427 -0.1208  0.3520
  112OSM   H16S11652  -0.205   6.774   9.687  2.6256  0.3943  0.6423
  112OSM   H16T11653  -0.134   6.712   9.529 -0.1649  1.4191 -2.6660
  112OSM   C17S11654  -0.335   6.772   9.507  0.2603  0.2368 -0.6386
  112OSM   H17S11655  -0.307   6.777   9.400  1.5671 -2.4260 -0.5095
  112OSM   H17T11656  -0.400   6.854   9.545 -0.6660 -1.1268  0.8942
  112OSM   C18S11657  -0.398   6.635   9.535 -0.4415 -0.5393  0.3283
  112OSM   H18S11658  -0.325   6.561   9.494  2.3343  1.8443  0.6379
  112OSM   H18T11659  -0.486   6.621   9.468  1.2894 -2.8604 -1.6731
  112OSM   H18U11660  -0.417   6.620   9.643 -1.2927  2.1340  0.6056
  112OSM    C1F11661   0.238   6.885  10.647 -0.2146 -0.3276 -0.0447
  112OSM     OF11662   0.316   6.808  10.701  0.2220 -0.2378  0.2829
  112OSM    C2F11663   0.272   6.948  10.511 -0.6444  0.1927  0.6948
  112OSM    H2F11664   0.340   7.035  10.524 -0.4237  0.3724 -1.3162
  112OSM    H2G11665   0.179   6.971  10.455  0.4631 -0.7025 -1.6311
  112OSM    C3F11666   0.359   6.851  10.432 -0.7846  0.1124  0.7500
  112OSM    H3F11667   0.304   6.760  10.400  1.2307 -0.3740 -1.6474
  112OSM    H3G11668   0.448   6.804  10.481  0.0512  0.0461 -0.7752
  112OSM    C4F11669   0.427   6.919  10.305  0.5770  0.9829 -0.5185
  112OSM    H4F11670   0.507   6.851  10.269  1.8898  1.7104  0.9061
  112OSM    H4G11671   0.474   7.017  10.331  2.7498  0.0542 -0.6914
  112OSM    C5F11672   0.325   6.934  10.192 -0.3651 -0.1018 -0.1808
  112OSM    H5F11673   0.246   7.001  10.231  0.0292 -0.3948  1.1588
  112OSM    H5G11674   0.276   6.835  10.176 -1.5955  0.6714 -1.3710
  112OSM    C6F11675   0.395   6.985  10.071  0.5997  0.1765 -0.4281
  112OSM    H6F11676   0.466   6.910  10.032 -1.1736 -0.5488 -2.4818
  112OSM    H6G11677   0.447   7.081  10.088 -1.5038  1.5532 -1.3051
  112OSM    C7F11678   0.292   6.999   9.957  0.5049 -0.7012  0.6932
  112OSM    H7F11679   0.200   7.054   9.988 -0.4838 -1.1547 -1.2570
  112OSM    H7G11680   0.254   6.897   9.934 -2.6549  0.7087 -1.0702
  112OSM    C8F11681   0.340   7.076   9.839  0.2602 -0.3288 -0.2668
  112OSM    H8F11682   0.389   7.169   9.875  0.7301 -0.8012  0.3536
  112OSM    H8G11683   0.259   7.125   9.780  0.9000  2.7850  1.2203
  112OSM    C9F11684   0.434   7.004   9.748 -0.0552  0.3356 -0.1517
  112OSM    H9F11685   0.538   6.992   9.781 -0.0859 -0.1125 -0.2066
  112OSM   C10F11686   0.392   6.949   9.631 -0.6904  0.0487 -0.4189
  112OSM   H10F11687   0.470   6.901   9.571 -0.6382 -2.9659  1.8536
  112OSM   C11F11688   0.252   6.955   9.574  0.9307  0.4384  1.0507
  112OSM   H11F11689   0.180   6.996   9.649  0.4737  0.6558  0.4958
  112OSM   H11G11690   0.225   6.851   9.550  1.3434  0.2123  1.5406
  112OSM   C12F11691   0.255   7.042   9.446  0.3119 -0.0114  0.2601
  112OSM   H12F11692   0.320   6.989   9.373 -0.3773  0.0410 -0.4053
  112OSM   H12G11693   0.307   7.138   9.470  0.3056 -0.0185  0.3022
  112OSM   C13F11694   0.119   7.068   9.389  0.5315  0.3467  0.9487
  112OSM   H13F11695   0.064   7.139   9.454 -1.5534 -0.9126  0.6570
  112OSM   H13G11696   0.062   6.973   9.384  1.4351 -0.1594  0.1561
  112OSM   C14F11697   0.131   7.113   9.238  0.5549  0.0243  0.8619
  112OSM   H14F11698   0.180   7.028   9.186  0.6922  1.3458 -1.2664
  112OSM   H14G11699   0.190   7.205   9.221  1.2665 -0.1782  2.1489
  112OSM   C15F11700  -0.008   7.145   9.188  0.2016  0.9419  0.0154
  112OSM   H15F11701  -0.037   7.248   9.219  0.4667  1.0322 -0.0334
  112OSM   H15G11702  -0.096   7.085   9.219  0.2423  1.2654  0.8017
  112OSM   C16F11703  -0.009   7.147   9.037  0.2849  0.2454  0.7422
  112OSM   H16F11704  -0.019   7.045   8.993  0.0832  0.7178 -0.3267
  112OSM   H16G11705   0.090   7.173   8.995  0.4918 -0.2254  0.9326
  112OSM   C17F11706  -0.113   7.238   8.983  0.1639 -0.8905  0.3262
  112OSM   H17F11707  -0.103   7.342   9.018  0.5393 -0.5785 -0.6647
  112OSM   H17G11708  -0.216   7.203   9.006  0.0010 -0.0372  0.9071
  112OSM   C18F11709  -0.105   7.239   8.831 -0.3832 -0.1870 -0.1749
  112OSM   H18F11710  -0.052   7.332   8.801  0.4273  0.4064  2.6891
  112OSM   H18G11711  -0.208   7.260   8.797 -0.4487  0.5708  0.4510
  112OSM   H18H11712  -0.072   7.150   8.774 -1.2334  0.1838 -1.2793
  113OSM      N11713   3.602   3.367  11.341  0.7268  0.5970 -0.4793
  113OSM    C1511714   3.555   3.232  11.372  0.0020  0.3935  0.4561
  113OSM   H15A11715   3.450   3.222  11.347  0.2398  0.7748 -0.7492
  113OSM   H15B11716   3.568   3.207  11.476 -1.3637 -0.1655  0.5169
  113OSM   H15C11717   3.609   3.154  11.322 -3.2469 -2.0293  0.3838
  113OSM    C1411718   3.552   3.458  11.453  0.1640 -0.0099 -0.0721
  113OSM   H14A11719   3.445   3.458  11.463  0.1023  0.7483 -0.6018
  113OSM   H14B11720   3.589   3.559  11.438  1.6949 -0.7098 -1.2308
  113OSM   H14C11721   3.585   3.422  11.549 -0.6059 -0.3439  0.0710
  113OSM    C1311722   3.750   3.363  11.350  0.4673  0.4360  0.0998
  113OSM   H13A11723   3.771   3.347  11.455 -0.1498 -0.5524  0.0801
  113OSM   H13B11724   3.797   3.458  11.327  0.4139 -0.1822 -3.0331
  113OSM   H13C11725   3.801   3.284  11.296 -0.2931  0.6916 -1.0307
  113OSM    C1211726   3.560   3.423  11.206  0.0706  1.1552 -0.4385
  113OSM   H12A11727   3.590   3.341  11.142 -0.8110 -0.6721  1.3635
  113OSM   H12B11728   3.603   3.520  11.186 -1.1333  1.7229 -0.3296
  113OSM    C1111729   3.411   3.437  11.190  0.1252  0.5820 -0.2402
  113OSM   H11A11730   3.386   3.492  11.097 -3.7799 -0.9801 -0.3074
  113OSM   H11B11731   3.356   3.491  11.269 -2.2403 -0.0588 -1.3707
  113OSM      P11732   3.214   3.277  11.117  0.0842 -0.5456 -0.0064
  113OSM    O1311733   3.201   3.136  11.080 -0.0763 -0.2458 -0.4750
  113OSM    O1411734   3.113   3.334  11.209  0.4756  0.3786  0.5094
  113OSM    O1111735   3.220   3.352  10.978 -0.2850  0.6920  0.1339
  113OSM    O1211736   3.354   3.300  11.178  0.3305 -0.8952 -0.5408
  113OSM    C1S11737   3.288   3.308  10.865 -0.5597  0.0625  0.0982
  113OSM    H1S11738   3.233   3.233  10.804  0.3605 -1.7310  1.4031
  113OSM    H1T11739   3.392   3.287  10.898  0.0622  4.1764  1.3353
  113OSM     NF11740   3.374   3.389  10.655  0.2936  0.3587 -0.4028
  113OSM    HNF11741   3.472   3.393  10.672  0.1402 -2.4293  1.7640
  113OSM    C2S11742   3.291   3.430  10.765 -0.7321 -0.1750  0.0578
  113OSM    H2S11743   3.187   3.452  10.735 -1.1251  1.1920  2.1585
  113OSM    C3S11744   3.337   3.561  10.827  0.5632  0.2481 -0.3566
  113OSM    H3S11745   3.423   3.533  10.892  1.4550  1.0781 -1.1491
  113OSM     O311746   3.242   3.605  10.918 -0.1439 -0.2782  0.3601
  113OSM    HO311747   3.196   3.526  10.949 -0.6146  0.1181  0.6878
  113OSM    C4S11748   3.367   3.672  10.727  0.3953 -0.7915 -0.0916
  113OSM    H4S11749   3.279   3.688  10.663  0.8293  3.4834  0.0304
  113OSM    C5S11750   3.473   3.763  10.711  0.5212 -0.1598  0.0954
  113OSM    H5S11751   3.557   3.764  10.782  1.2942  0.8485 -0.7951
  113OSM    C6S11752   3.466   3.863  10.599 -0.8260  0.5316  0.1444
  113OSM    H6S11753   3.468   3.961  10.650  1.5630 -0.2703  1.7691
  113OSM    H6T11754   3.367   3.862  10.550 -1.4202 -3.2963  1.1132
  113OSM    C7S11755   3.584   3.837  10.502 -0.3036 -0.0198  0.5007
  113OSM    H7S11756   3.682   3.812  10.549 -1.5555 -0.6220  2.9004
  113OSM    H7T11757   3.597   3.934  10.449 -0.3775  0.0254  0.5660
  113OSM    C8S11758   3.539   3.749  10.386  0.0633 -0.3086  0.2884
  113OSM    H8S11759   3.444   3.788  10.344 -0.9380 -0.0643  2.5914
  113OSM    H8T11760   3.515   3.649  10.427  0.3245 -0.3488  0.3442
  113OSM    C9S11761   3.640   3.751  10.271  0.4440 -0.6861  0.3392
  113OSM    H9S11762   3.741   3.736  10.313 -0.0168  0.0859  1.8137
  113OSM    H9T11763   3.637   3.855  10.231 -0.6913 -0.7401  0.2446
  113OSM   C10S11764   3.631   3.645  10.162 -0.1129 -0.4467  0.4418
  113OSM   H10S11765   3.529   3.626  10.122 -0.1246  1.7072 -0.6954
  113OSM   H10T11766   3.662   3.549  10.208  0.6400 -1.1716 -1.4829
  113OSM   C11S11767   3.722   3.675  10.047  0.1945  0.6690  0.1358
  113OSM   H11S11768   3.825   3.657  10.083 -0.3574  1.3816  2.2096
  113OSM   H11T11769   3.718   3.779  10.011 -0.3421  0.2630 -1.0267
  113OSM   C12S11770   3.702   3.579   9.929 -0.0092  0.3204 -0.1664
  113OSM   H12S11771   3.598   3.588   9.888  0.3227 -0.3969 -1.1911
  113OSM   H12T11772   3.711   3.473   9.960 -1.8898 -0.2123 -1.2834
  113OSM   C13S11773   3.801   3.616   9.810  0.5777  0.3742 -0.0022
  113OSM   H13S11774   3.905   3.593   9.841  0.7709  1.6116  0.3003
  113OSM   H13T11775   3.795   3.726   9.793  0.1201  0.4271  0.4831
  113OSM   C14S11776   3.750   3.547   9.674 -0.2660  0.0856 -0.2584
  113OSM   H14S11777   3.648   3.581   9.647  0.0791  3.0751  1.7118
  113OSM   H14T11778   3.740   3.436   9.675 -0.7145  0.1109 -1.1684
  113OSM   C15S11779   3.846   3.574   9.563  0.3736 -0.1010 -0.5602
  113OSM   H15S11780   3.936   3.516   9.595  0.3429 -1.5153 -2.8556
  113OSM   H15T11781   3.870   3.682   9.558  2.0529 -0.2268  2.3290
  113OSM   C16S11782   3.814   3.513   9.422 -0.2134  0.3575  0.3883
  113OSM   H16S11783   3.767   3.414   9.440  0.4844 -0.3652 -1.5176
  113OSM   H16T11784   3.906   3.500   9.361 -1.7846 -0.3745 -1.9345
  113OSM   C17S11785   3.712   3.600   9.340 -0.3720 -0.4489  0.2070
  113OSM   H17S11786   3.767   3.691   9.309 -0.5201 -0.4735 -0.1295
  113OSM   H17T11787   3.633   3.622   9.415 -0.4876 -1.0238  0.2587
  113OSM   C18S11788   3.674   3.533   9.206 -0.7604 -0.2196  0.8108
  113OSM   H18S11789   3.650   3.427   9.231  1.2966 -1.3365 -1.5085
  113OSM   H18T11790   3.764   3.538   9.142  0.1680  0.1843  2.1026
  113OSM   H18U11791   3.588   3.583   9.156 -0.1012 -0.8036 -0.9898
  113OSM    C1F11792   3.332   3.305  10.559  0.0294 -0.5959  0.3136
  113OSM     OF11793   3.214   3.273  10.541  0.2921 -0.1562  0.0041
  113OSM    C2F11794   3.439   3.259  10.463 -0.1820  0.2137  0.3434
  113OSM    H2F11795   3.438   3.148  10.468  0.1581  0.1470 -0.7040
  113OSM    H2G11796   3.541   3.289  10.494  0.2705 -1.2979  0.3970
  113OSM    C3F11797   3.413   3.313  10.321 -0.4134 -0.3288 -0.2395
  113OSM    H3F11798   3.438   3.421  10.330  2.2029 -0.7596 -1.4748
  113OSM    H3G11799   3.306   3.307  10.291 -0.9787 -0.6004  1.6903
  113OSM    C4F11800   3.498   3.249  10.211 -0.2771 -0.0370  0.2262
  113OSM    H4F11801   3.493   3.139  10.222  0.9368  0.0303  2.0385
  113OSM    H4G11802   3.604   3.280  10.224 -0.2821  0.0479  0.0707
  113OSM    C5F11803   3.473   3.296  10.064  0.0472 -0.2572 -0.4194
  113OSM    H5F11804   3.498   3.404  10.071 -0.8582 -0.0192 -0.7475
  113OSM    H5G11805   3.365   3.297  10.040  0.2575 -0.7129 -1.4503
  113OSM    C6F11806   3.537   3.208   9.958 -0.9374 -0.0469 -0.2203
  113OSM    H6F11807   3.490   3.108   9.962  0.7932 -0.8583  3.0794
  113OSM    H6G11808   3.644   3.182   9.970 -0.9242 -0.1567 -0.5582
  113OSM    C7F11809   3.515   3.273   9.821 -0.1501  0.0606 -0.0368
  113OSM    H7F11810   3.560   3.374   9.809  0.5983 -0.2405  0.1492
  113OSM    H7G11811   3.405   3.282   9.814 -0.0338  1.1516 -0.7273
  113OSM    C8F11812   3.554   3.181   9.701  0.2121  0.0799 -0.2606
  113OSM    H8F11813   3.531   3.230   9.604  0.1423  0.1078 -0.2291
  113OSM    H8G11814   3.482   3.100   9.720 -2.4872  3.0243  3.7175
  113OSM    C9F11815   3.706   3.163   9.704 -0.4994 -0.3888 -0.1965
  113OSM    H9F11816   3.754   3.169   9.803 -0.6900  0.0539 -0.1250
  113OSM   C10F11817   3.797   3.146   9.598  0.2133  0.1907 -0.1763
  113OSM   H10F11818   3.903   3.137   9.625  0.5156  1.3390 -0.9143
  113OSM   C11F11819   3.755   3.125   9.455  0.1197 -0.5191  0.1648
  113OSM   H11F11820   3.680   3.197   9.417 -1.3265 -3.5144 -3.3075
  113OSM   H11G11821   3.701   3.028   9.459  0.0650 -0.4353  2.1483
  113OSM   C12F11822   3.878   3.110   9.361  0.3134  0.1137  0.6486
  113OSM   H12F11823   3.942   3.036   9.414  0.8882 -0.7856 -1.2360
  113OSM   H12G11824   3.925   3.209   9.342  1.2965 -0.6082 -0.8623
  113OSM   C13F11825   3.842   3.048   9.227 -0.3821 -0.0220 -0.4357
  113OSM   H13F11826   3.793   2.957   9.268  0.4157  0.2444  1.1904
  113OSM   H13G11827   3.936   3.028   9.172  0.8960  0.6859  1.3809
  113OSM   C14F11828   3.740   3.132   9.148 -0.3016 -0.5478  0.9125
  113OSM   H14F11829   3.795   3.223   9.116  0.3294 -0.1107  3.0703
  113OSM   H14G11830   3.654   3.176   9.202 -0.2714  3.2392 -1.6900
  113OSM   C15F11831   3.672   3.058   9.032  0.0975  0.3378  0.7894
  113OSM   H15F11832   3.601   2.983   9.072  0.5458 -1.2565 -1.2964
  113OSM   H15G11833   3.749   2.999   8.979 -0.6078 -0.2594  0.4124
  113OSM   C16F11834   3.602   3.153   8.935  0.1229 -0.1558  0.2315
  113OSM   H16F11835   3.669   3.232   8.896 -0.0143 -0.6135 -1.0004
  113OSM   H16G11836   3.518   3.199   8.991  0.2724  0.2222  0.1476
  113OSM   C17F11837   3.529   3.076   8.820 -0.6923 -0.3849 -0.3054
  113OSM   H17F11838   3.439   3.031   8.867  0.8647 -1.2053  2.1192
  113OSM   H17G11839   3.589   2.987   8.789 -0.3872  0.2302 -1.5266
  113OSM   C18F11840   3.493   3.159   8.699 -0.0586  0.2133 -0.4903
  113OSM   H18F11841   3.425   3.100   8.634 -1.2574 -1.2273  1.8940
  113OSM   H18G11842   3.590   3.174   8.647  0.5803  0.5523  0.7517
  113OSM   H18H11843   3.452   3.259   8.724 -3.2722 -1.2229  0.6150
  114OSM      N11844   5.175   0.174  10.788  0.5751 -0.2612  0.2302
  114OSM    C1511845   5.255   0.052  10.780  0.0980  0.1772  0.0809
  114OSM   H15A11846   5.202  -0.035  10.746 -0.0414 -0.5348  2.0173
  114OSM   H15B11847   5.302   0.035  10.876 -0.2924  1.7388  0.5850
  114OSM   H15C11848   5.338   0.064  10.712  0.8895 -1.0239  0.8095
  114OSM    C1411849   5.101   0.195  10.656  0.4478 -0.2176 -0.3358
  114OSM   H14A11850   5.054   0.291  10.644  0.1680 -0.3878 -0.6106
  114OSM   H14B11851   5.027   0.120  10.636 -0.3139 -0.1121  1.8624
  114OSM   H14C11852   5.167   0.205  10.571 -0.7503  1.6648 -1.1183
  114OSM    C1311853   5.076   0.172  10.901 -0.1421  0.2611  0.5227
  114OSM   H13A11854   5.016   0.261  10.893  0.2185  0.4458 -0.3218
  114OSM   H13B11855   5.122   0.162  10.998  0.8923 -1.3671 -0.0990
  114OSM   H13C11856   5.012   0.085  10.897 -1.3255  1.1261 -0.3246
  114OSM    C1211857   5.283   0.289  10.825  0.4364  0.4735 -0.3781
  114OSM   H12A11858   5.241   0.386  10.805  0.7677  0.6569 -0.1949
  114OSM   H12B11859   5.368   0.280  10.759  0.0862 -0.5152 -0.7097
  114OSM    C1111860   5.351   0.297  10.959 -0.2984  0.1957  0.5195
  114OSM   H11A11861   5.275   0.303  11.040 -1.0693 -0.9541 -0.0827
  114OSM   H11B11862   5.413   0.388  10.971 -0.9640  0.9380 -1.3695
  114OSM      P11863   5.563   0.177  11.057  0.1278 -0.2453  0.1193
  114OSM    O1311864   5.545   0.254  11.181  0.2530  0.1127 -0.1182
  114OSM    O1411865   5.613   0.038  11.074  0.2815  0.2631 -0.3254
  114OSM    O1111866   5.671   0.252  10.969 -0.2653 -0.2786  0.2733
  114OSM    O1211867   5.427   0.178  10.983  0.2469 -0.1735 -0.3343
  114OSM    C1S11868   5.713   0.188  10.850  0.0715 -0.3024 -0.2585
  114OSM    H1S11869   5.648   0.101  10.824  0.6372 -0.8279  0.0443
  114OSM    H1T11870   5.814   0.142  10.859 -0.1464 -0.6299  0.6686
  114OSM     NF11871   5.729   0.196  10.607  0.2599 -0.7833 -0.2940
  114OSM    HNF11872   5.820   0.201  10.565  0.8148 -0.6206  0.9017
  114OSM    C2S11873   5.706   0.276  10.720  0.6622  0.2031 -0.1020
  114OSM    H2S11874   5.603   0.314  10.701  1.4251  2.2971 -0.3539
  114OSM    C3S11875   5.800   0.408  10.740 -0.5046  0.3003 -0.1289
  114OSM    H3S11876   5.906   0.379  10.760  0.2720  3.1745  0.4174
  114OSM     O311877   5.774   0.479  10.863 -0.2024  0.2491 -0.5187
  114OSM    HO311878   5.716   0.417  10.908  1.0789  0.0124  0.8830
  114OSM    C4S11879   5.791   0.501  10.624  0.8673 -0.9448  0.4157
  114OSM    H4S11880   5.875   0.496  10.554 -0.4511  0.8418 -1.4141
  114OSM    C5S11881   5.699   0.597  10.609  0.6618 -0.0850  0.2266
  114OSM    H5S11882   5.626   0.614  10.689 -0.3430 -0.3513 -0.6172
  114OSM    C6S11883   5.700   0.697  10.495  0.9378 -0.2662  0.4880
  114OSM    H6S11884   5.711   0.800  10.537  0.4750  0.6680 -1.5596
  114OSM    H6T11885   5.610   0.702  10.431 -0.3607  0.8965  2.3013
  114OSM    C7S11886   5.830   0.694  10.407  0.2299 -0.3680 -0.5111
  114OSM    H7S11887   5.845   0.596  10.356  0.8496 -1.2161  1.1894
  114OSM    H7T11888   5.923   0.701  10.468  0.4974 -1.4387 -0.7633
  114OSM    C8S11889   5.843   0.803  10.298 -0.8996  0.0137  0.2850
  114OSM    H8S11890   5.803   0.901  10.335 -3.0250  0.1851 -2.1865
  114OSM    H8T11891   5.777   0.764  10.218  0.2550  2.3113 -1.9513
  114OSM    C9S11892   5.989   0.812  10.238 -0.4771  0.8559  0.2361
  114OSM    H9S11893   6.006   0.709  10.198  1.0514  0.5686  1.5025
  114OSM    H9T11894   6.063   0.827  10.319 -0.0900 -0.4744  0.1640
  114OSM   C10S11895   6.005   0.924  10.134  0.2149 -0.1511  0.2407
  114OSM   H10S11896   5.992   1.025  10.178 -0.7513  0.9927 -2.4287
  114OSM   H10T11897   5.924   0.917  10.058  1.9034  1.6278 -1.8520
  114OSM   C11S11898   6.148   0.923  10.077 -0.2273 -1.0978  0.8893
  114OSM   H11S11899   6.175   0.819  10.047  0.5989 -0.6882  0.1489
  114OSM   H11T11900   6.214   0.966  10.155 -2.0540 -1.7643  2.8970
  114OSM   C12S11901   6.147   1.010   9.947 -0.2597 -0.1796  0.2392
  114OSM   H12S11902   6.252   1.038   9.921  0.7051 -1.4956  2.4204
  114OSM   H12T11903   6.097   1.110   9.950  0.1896  0.0729 -0.4069
  114OSM   C13S11904   6.086   0.934   9.827  0.0085 -0.5067  0.2378
  114OSM   H13S11905   5.976   0.952   9.833 -0.0313 -0.7314  0.1931
  114OSM   H13T11906   6.098   0.824   9.835 -2.5634 -0.7453  2.6938
  114OSM   C14S11907   6.144   0.998   9.700  0.0045  0.4147  0.8233
  114OSM   H14S11908   6.254   0.983   9.690 -0.1250 -0.4614  0.6135
  114OSM   H14T11909   6.119   1.106   9.700 -0.5365  0.3322 -1.1504
  114OSM   C15S11910   6.075   0.947   9.576 -0.0035 -0.2060  0.0682
  114OSM   H15S11911   5.965   0.967   9.575 -0.0120 -0.2779 -0.3263
  114OSM   H15T11912   6.100   0.839   9.573  1.1766 -0.0016  1.4008
  114OSM   C16S11913   6.124   1.017   9.454 -0.1481  0.1195  0.7080
  114OSM   H16S11914   6.232   1.000   9.436 -0.4076  0.9008 -1.9146
  114OSM   H16T11915   6.093   1.124   9.452  0.3911  0.2743  0.3602
  114OSM   C17S11916   6.065   0.950   9.333  0.3226  0.0930 -0.3411
  114OSM   H17S11917   5.956   0.935   9.349  0.8638 -2.2173  2.0814
  114OSM   H17T11918   6.110   0.848   9.332  1.7361  0.6810  0.1818
  114OSM   C18S11919   6.098   1.007   9.196  0.4214  0.4653  0.5543
  114OSM   H18S11920   6.050   1.107   9.187 -0.3332 -0.0806 -2.6959
  114OSM   H18T11921   6.057   0.945   9.114  3.1993 -0.1102 -0.5213
  114OSM   H18U11922   6.206   1.023   9.174  0.2351  0.7666 -0.1699
  114OSM    C1F11923   5.643   0.114  10.553 -0.1204  0.1282 -0.1284
  114OSM     OF11924   5.532   0.087  10.603  0.4751  0.8029 -0.0943
  114OSM    C2F11925   5.702   0.042  10.432 -0.3082 -0.8594 -0.6561
  114OSM    H2F11926   5.751  -0.054  10.462 -0.0022 -0.1607  1.2076
  114OSM    H2G11927   5.770   0.116  10.385 -1.5837  0.0391 -1.1401
  114OSM    C3F11928   5.600   0.019  10.315 -0.5257  0.5612  0.1716
  114OSM    H3F11929   5.531   0.106  10.308 -0.4348  0.5486 -1.1227
  114OSM    H3G11930   5.535  -0.070  10.328  3.1213 -2.7756 -2.1380
  114OSM    C4F11931   5.674  -0.008  10.178  0.0040 -0.3022 -0.4388
  114OSM    H4F11932   5.701  -0.115  10.177 -0.1102 -0.3392  0.2098
  114OSM    H4G11933   5.766   0.054  10.175  0.0572 -0.2433 -5.0208
  114OSM    C5F11934   5.589   0.040  10.064 -0.3223  0.5589  0.6311
  114OSM    H5F11935   5.570   0.148  10.079  0.1876  0.6766  0.4362
  114OSM    H5G11936   5.495  -0.019  10.066  0.8579 -1.4140  0.2017
  114OSM    C6F11937   5.654   0.034   9.926 -0.0520  0.4006 -0.1149
  114OSM    H6F11938   5.681  -0.073   9.912 -3.2099 -0.5153  0.0646
  114OSM    H6G11939   5.743   0.100   9.933  3.1396 -3.1213 -2.5995
  114OSM    C7F11940   5.570   0.071   9.804 -0.1820 -0.1779 -0.3941
  114OSM    H7F11941   5.548   0.180   9.808 -1.7420 -0.4925  0.2621
  114OSM    H7G11942   5.473   0.018   9.810 -0.1244 -0.1282  1.5376
  114OSM    C8F11943   5.643   0.055   9.672  0.3797 -0.1602  0.4506
  114OSM    H8F11944   5.741   0.107   9.667  0.6200 -0.7176 -1.5631
  114OSM    H8G11945   5.581   0.105   9.594 -0.0483  0.7931  1.3808
  114OSM    C9F11946   5.683  -0.089   9.632 -0.5361  0.1731 -1.1355
  114OSM    H9F11947   5.754  -0.137   9.702 -0.0793  1.6493 -0.5450
  114OSM   C10F11948   5.646  -0.158   9.523 -0.3764 -0.8430  1.2202
  114OSM   H10F11949   5.691  -0.255   9.499 -0.3652 -0.0791 -2.4619
  114OSM   C11F11950   5.546  -0.105   9.410  0.4016 -0.3899  0.1154
  114OSM   H11F11951   5.481  -0.022   9.447  1.2719  0.0808  0.6291
  114OSM   H11G11952   5.477  -0.181   9.368 -1.0488  1.1830 -0.4792
  114OSM   C12F11953   5.626  -0.062   9.287 -0.1811 -0.6828  0.0338
  114OSM   H12F11954   5.683  -0.152   9.255 -0.9837 -0.4891 -2.0926
  114OSM   H12G11955   5.698   0.021   9.305 -0.6323 -0.0307 -1.0644
  114OSM   C13F11956   5.533  -0.017   9.177  0.5274  0.0144 -0.2107
  114OSM   H13F11957   5.464   0.064   9.207  2.1331  2.1467 -1.9796
  114OSM   H13G11958   5.449  -0.089   9.166  0.3203 -0.0591  1.5167
  114OSM   C14F11959   5.597   0.015   9.039  0.2559 -0.9547  0.2382
  114OSM   H14F11960   5.517   0.024   8.963  1.4710  2.2501 -0.8327
  114OSM   H14G11961   5.653  -0.073   9.001 -0.5029 -1.6221  0.6398
  114OSM   C15F11962   5.680   0.144   9.040 -0.5183  0.2178  0.3450
  114OSM   H15F11963   5.777   0.130   9.091 -1.1161 -2.2265  0.9098
  114OSM   H15G11964   5.613   0.216   9.093  0.2685 -0.2141  1.9911
  114OSM   C16F11965   5.706   0.203   8.896  1.0905 -0.0255  0.8115
  114OSM   H16F11966   5.617   0.216   8.831  2.0671  1.3259 -0.2955
  114OSM   H16G11967   5.768   0.130   8.840 -1.0446 -0.6751 -0.8286
  114OSM   C17F11968   5.782   0.334   8.906 -0.1875 -0.2355 -0.0891
  114OSM   H17F11969   5.760   0.406   8.988 -1.2587  0.1808 -0.7147
  114OSM   H17G11970   5.759   0.389   8.813  0.3688 -0.3034 -0.2707
  114OSM   C18F11971   5.933   0.320   8.907 -0.4764  0.8358 -0.3718
  114OSM   H18F11972   5.988   0.411   8.877 -0.5910  1.3405  0.8601
  114OSM   H18G11973   5.964   0.244   8.832  1.4105  0.3542  0.8111
  114OSM   H18H11974   5.967   0.275   9.003 -1.3365  0.2779 -0.3218
  115OSM      N11975   3.225   0.513  11.112 -0.2543 -0.5526  0.4216
  115OSM    C1511976   3.242   0.368  11.154  0.1447 -0.1746  0.3375
  115OSM   H15A11977   3.159   0.315  11.110  0.6685 -0.0061 -0.8928
  115OSM   H15B11978   3.250   0.341  11.259 -0.0704 -1.8155 -0.0367
  115OSM   H15C11979   3.333   0.333  11.107  0.0395  1.0773 -0.8349
  115OSM    C1411980   3.094   0.574  11.149  0.0730 -0.6863  0.1324
  115OSM   H14A11981   3.014   0.544  11.083 -0.6878 -0.7939  1.0864
  115OSM   H14B11982   3.096   0.682  11.136  1.0520 -0.8265 -1.0620
  115OSM   H14C11983   3.060   0.539  11.245 -0.2766  0.4005  0.4225
  115OSM    C1311984   3.326   0.596  11.180  0.5383  0.2797 -0.5561
  115OSM   H13A11985   3.346   0.701  11.165 -2.6894  1.1978  0.8674
  115OSM   H13B11986   3.427   0.557  11.173  1.2374  1.0262  3.0412
  115OSM   H13C11987   3.301   0.589  11.285 -2.7150 -0.7539 -1.3103
  115OSM    C1211988   3.251   0.529  10.966 -0.0557 -0.2366  0.3670
  115OSM   H12A11989   3.215   0.627  10.940  0.7339  0.6756  2.5528
  115OSM   H12B11990   3.195   0.454  10.912  2.2328 -1.1415 -0.9036
  115OSM    C1111991   3.395   0.511  10.919 -0.3070  1.0093 -0.3172
  115OSM   H11A11992   3.465   0.578  10.974  1.1045 -0.8003  0.2248
  115OSM   H11B11993   3.383   0.544  10.814 -1.6377  0.0937 -0.4761
  115OSM      P11994   3.596   0.329  10.894  0.4062  0.0160  0.4156
  115OSM    O1311995   3.697   0.425  10.933  0.3700 -0.0999 -0.0612
  115OSM    O1411996   3.624   0.194  10.944  0.2721  0.0911 -0.8884
  115OSM    O1111997   3.586   0.311  10.739  0.1202 -0.3275 -0.4221
  115OSM    O1211998   3.443   0.373  10.929  1.0017  0.0193  0.0630
  115OSM    C1S11999   3.551   0.192  10.668  0.0266 -0.1426 -0.6308
  115OSM    H1S12000   3.541   0.099  10.728 -0.9378 -0.4743 -1.2834
  115OSM    H1T12001   3.631   0.167  10.595  0.9015 -0.9714  0.5703
  115OSM     NF12002   3.376   0.073  10.530 -0.4483 -0.2768 -0.5054
  115OSM    HNF12003   3.375   0.069  10.431  0.2577  0.8184 -0.5824
  115OSM    C2S12004   3.421   0.206  10.588  0.0307 -0.2227  0.7075
  115OSM    H2S12005   3.329   0.224  10.647 -1.1841  0.9584 -1.4288
  115OSM    C3S12006   3.430   0.314  10.481 -0.0141  0.4834  0.0095
  115OSM    H3S12007   3.502   0.275  10.406  0.1721  0.1191  0.3696
  115OSM     O312008   3.477   0.437  10.538  0.5003 -0.2156 -0.0444
  115OSM    HO312009   3.522   0.403  10.616 -1.7797 -1.4874  0.8351
  115OSM    C4S12010   3.296   0.333  10.414 -0.2917  0.4392 -0.2254
  115OSM    H4S12011   3.217   0.351  10.487  1.9845  0.7985  2.3050
  115OSM    C5S12012   3.270   0.324  10.278 -0.0067  0.2352  0.4973
  115OSM    H5S12013   3.351   0.285  10.214 -0.1970  0.7753 -0.0810
  115OSM    C6S12014   3.131   0.335  10.209 -0.5293 -0.3617 -0.1164
  115OSM    H6S12015   3.069   0.401  10.274  1.0118  2.1345 -1.0298
  115OSM    H6T12016   3.069   0.243  10.204 -0.4752 -0.3268 -2.1872
  115OSM    C7S12017   3.129   0.426  10.085  0.0907  0.2749 -0.2738
  115OSM    H7S12018   3.173   0.524  10.111  1.2746 -0.9927  3.1096
  115OSM    H7T12019   3.026   0.453  10.055 -0.0192  1.1306  0.8290
  115OSM    C8S12020   3.196   0.363   9.967 -0.1751  0.5672  0.3553
  115OSM    H8S12021   3.128   0.286   9.925 -0.1243  0.5554  0.2949
  115OSM    H8T12022   3.293   0.318   9.997 -1.2347 -0.8370  1.8472
  115OSM    C9S12023   3.232   0.457   9.851 -0.3032 -0.3825  0.3342
  115OSM    H9S12024   3.312   0.528   9.881 -0.8119  0.9771 -1.4088
  115OSM    H9T12025   3.141   0.510   9.818 -0.5815 -1.2772 -0.3743
  115OSM   C10S12026   3.293   0.370   9.733 -0.8795 -0.9414 -0.4901
  115OSM   H10S12027   3.206   0.306   9.706 -1.4676  0.0937 -1.1412
  115OSM   H10T12028   3.384   0.319   9.771  0.4021  1.0125 -0.8364
  115OSM   C11S12029   3.326   0.445   9.607  0.0993 -0.3521 -0.5361
  115OSM   H11S12030   3.430   0.486   9.610  0.0151 -0.1426 -0.4849
  115OSM   H11T12031   3.266   0.538   9.598  1.4318  0.8828  2.2061
  115OSM   C12S12032   3.291   0.358   9.478  0.2406 -0.5977  0.3123
  115OSM   H12S12033   3.198   0.302   9.498  0.1533  0.1168  2.0921
  115OSM   H12T12034   3.364   0.279   9.451 -0.2119 -0.5346 -1.2252
  115OSM   C13S12035   3.278   0.458   9.358 -0.2975  0.0133 -0.3027
  115OSM   H13S12036   3.365   0.445   9.290  1.5583  1.0990  1.7204
  115OSM   H13T12037   3.293   0.561   9.397 -1.3950 -0.1404  0.5763
  115OSM   C14S12038   3.149   0.447   9.286  0.6470 -0.4453  0.2521
  115OSM   H14S12039   3.060   0.490   9.338 -0.5927  0.3605 -2.3535
  115OSM   H14T12040   3.121   0.340   9.271 -2.1281  0.3652 -1.1827
  115OSM   C15S12041   3.146   0.498   9.135 -0.0744  0.1045  0.4215
  115OSM   H15S12042   3.244   0.546   9.113 -0.1018  0.1689  0.4390
  115OSM   H15T12043   3.084   0.590   9.123 -0.3278 -0.0015  0.8749
  115OSM   C16S12044   3.112   0.394   9.028 -0.0421 -0.0668  0.4815
  115OSM   H16S12045   3.108   0.445   8.930  0.9365  1.5092  1.2123
  115OSM   H16T12046   3.014   0.350   9.056  0.7176 -1.7436  0.5960
  115OSM   C17S12047   3.211   0.278   9.024 -0.4794 -0.7584 -0.8247
  115OSM   H17S12048   3.225   0.227   9.122  1.5575  1.2511  0.0204
  115OSM   H17T12049   3.311   0.319   9.001 -2.2880  4.2938 -1.0161
  115OSM   C18S12050   3.170   0.177   8.921 -0.7174  0.4309 -0.0916
  115OSM   H18S12051   3.152   0.233   8.827  3.2224 -2.1312 -2.6770
  115OSM   H18T12052   3.086   0.116   8.962  0.0713  0.4412  1.6465
  115OSM   H18U12053   3.250   0.104   8.896  0.0123  1.4745 -0.8707
  115OSM    C1F12054   3.334  -0.028  10.596  0.4516 -0.2180  0.1490
  115OSM     OF12055   3.291  -0.014  10.710  0.2837  0.6092  0.5392
  115OSM    C2F12056   3.326  -0.154  10.518 -0.3265 -0.2884 -0.0353
  115OSM    H2F12057   3.270  -0.234  10.572  1.4668 -2.0343 -0.6363
  115OSM    H2G12058   3.424  -0.206  10.513 -0.5485 -0.6523 -0.9762
  115OSM    C3F12059   3.267  -0.130  10.376  0.7135  0.9180 -0.5372
  115OSM    H3F12060   3.218  -0.033  10.353  1.1706  1.2338 -0.1877
  115OSM    H3G12061   3.200  -0.217  10.360  0.2233  0.5562  2.7936
  115OSM    C4F12062   3.380  -0.137  10.278 -0.3653  0.8190 -0.2327
  115OSM    H4F12063   3.416  -0.242  10.281  2.4525  1.7110  0.9148
  115OSM    H4G12064   3.467  -0.070  10.300 -0.2316  0.4567  0.3581
  115OSM    C5F12065   3.325  -0.103  10.141 -0.2144 -0.3953 -0.1825
  115OSM    H5F12066   3.276  -0.003  10.139 -2.7408 -1.5603 -1.3594
  115OSM    H5G12067   3.239  -0.173  10.130  0.5009 -1.1330 -1.3284
  115OSM    C6F12068   3.415  -0.133  10.014 -0.5703 -0.4456 -0.4442
  115OSM    H6F12069   3.353  -0.117   9.924  2.5170  0.1834 -2.6353
  115OSM    H6G12070   3.433  -0.243  10.018 -0.0960 -0.3913 -0.9468
  115OSM    C7F12071   3.530  -0.038   9.996  1.1308  0.5251  0.4280
  115OSM    H7F12072   3.585  -0.042  10.093  0.0629  0.9629  1.0611
  115OSM    H7G12073   3.493   0.063   9.969  0.3065 -0.2044 -1.3711
  115OSM    C8F12074   3.631  -0.082   9.891  0.4186 -0.4827  0.8048
  115OSM    H8F12075   3.683  -0.177   9.917 -0.1618 -0.9259  0.3792
  115OSM    H8G12076   3.715  -0.010   9.881  0.4291 -0.6579 -0.5574
  115OSM    C9F12077   3.548  -0.086   9.768  0.6175  0.6118  0.6112
  115OSM    H9F12078   3.480  -0.001   9.752 -1.0228 -0.8816 -0.6943
  115OSM   C10F12079   3.554  -0.182   9.670  0.0669 -0.4538  0.4591
  115OSM   H10F12080   3.499  -0.162   9.577  3.4028  0.8325 -1.4066
  115OSM   C11F12081   3.642  -0.307   9.660  0.1895  0.1877 -0.2603
  115OSM   H11F12082   3.602  -0.395   9.716 -1.9030 -0.1536 -2.1138
  115OSM   H11G12083   3.748  -0.291   9.689  1.2723 -1.4316 -2.9501
  115OSM   C12F12084   3.646  -0.352   9.512 -1.0596 -0.7144  0.2575
  115OSM   H12F12085   3.732  -0.421   9.505  0.0912  0.8558 -2.2590
  115OSM   H12G12086   3.670  -0.272   9.439 -0.5852 -4.1840 -3.7908
  115OSM   C13F12087   3.521  -0.418   9.455  0.1231  0.6039  0.5013
  115OSM   H13F12088   3.438  -0.345   9.466 -1.9681 -1.8208  1.9503
  115OSM   H13G12089   3.502  -0.493   9.535  1.7769  1.0151  1.3323
  115OSM   C14F12090   3.544  -0.472   9.312  0.2567  0.1288 -0.2352
  115OSM   H14F12091   3.577  -0.389   9.246 -2.0124 -0.0313 -1.6792
  115OSM   H14G12092   3.447  -0.505   9.268  0.9487 -1.6267 -0.4982
  115OSM   C15F12093   3.653  -0.581   9.293  0.2811  0.3149  0.1276
  115OSM   H15F12094   3.753  -0.542   9.325  0.4826  0.5721 -0.7710
  115OSM   H15G12095   3.663  -0.591   9.183 -1.4702  1.4169 -0.1702
  115OSM   C16F12096   3.608  -0.717   9.349  0.5663  0.3901  0.3853
  115OSM   H16F12097   3.518  -0.753   9.295  1.1067 -1.0668  0.4144
  115OSM   H16G12098   3.573  -0.695   9.452 -0.0507  0.6038  0.1365
  115OSM   C17F12099   3.715  -0.833   9.342  0.1645 -0.5642 -0.3028
  115OSM   H17F12100   3.803  -0.799   9.401 -0.1965  0.2437 -0.2118
  115OSM   H17G12101   3.740  -0.843   9.234  1.6140 -0.5472  0.0151
  115OSM   C18F12102   3.661  -0.966   9.390  0.1098 -0.6572 -0.1678
  115OSM   H18F12103   3.572  -0.996   9.331 -0.1065  0.2432 -0.3094
  115OSM   H18G12104   3.636  -0.971   9.498  0.4010  0.2228 -0.0544
  115OSM   H18H12105   3.739  -1.042   9.367  0.2973  0.1664 -2.5603
  116OSM      N12106   0.092   2.486  11.268 -0.0041  0.1552  0.6068
  116OSM    C1512107   0.025   2.492  11.402 -0.0224 -0.0809 -0.4783
  116OSM   H15A12108  -0.030   2.401  11.423 -0.4802 -0.0617 -1.5376
  116OSM   H15B12109  -0.049   2.570  11.392  0.0521 -0.1925 -2.2315
  116OSM   H15C12110   0.093   2.506  11.485 -2.3198  0.6383  1.4031
  116OSM    C1412111   0.130   2.622  11.226  0.3041 -0.1871  0.5130
  116OSM   H14A12112   0.050   2.693  11.216  1.3793  0.8420 -1.4725
  116OSM   H14B12113   0.193   2.626  11.138  2.7343  3.3584  2.1818
  116OSM   H14C12114   0.198   2.655  11.303  0.7484 -2.2339  1.0582
  116OSM    C1312115   0.206   2.388  11.283 -0.2689 -0.1756  0.3050
  116OSM   H13A12116   0.168   2.288  11.294  0.8411 -0.7516 -0.8057
  116OSM   H13B12117   0.258   2.414  11.374 -2.3437 -1.3472  1.9097
  116OSM   H13C12118   0.279   2.389  11.203  1.7360  0.8658  2.0589
  116OSM    C1212119  -0.001   2.433  11.162  0.0223  0.1087 -0.4604
  116OSM   H12A12120   0.005   2.326  11.158  0.6903  0.1843 -2.1934
  116OSM   H12B12121   0.035   2.460  11.064  1.0556 -1.3315 -0.4995
  116OSM    C1112122  -0.147   2.478  11.162  0.9335 -0.1426 -0.1485
  116OSM   H11A12123  -0.195   2.470  11.262 -1.4798  0.9514 -1.1541
  116OSM   H11B12124  -0.192   2.397  11.100  0.6826 -1.5091  1.7139
  116OSM      P12125  -0.178   2.640  10.957  0.0707 -0.4130  0.0120
  116OSM    O1312126  -0.317   2.691  10.931 -1.0639 -0.7268  0.0912
  116OSM    O1412127  -0.060   2.725  10.912 -0.2084 -0.4099 -0.2048
  116OSM    O1112128  -0.170   2.499  10.885  0.2132 -0.1062 -0.6205
  116OSM    O1212129  -0.169   2.608  11.114 -0.0955 -0.5363 -0.5125
  116OSM    C1S12130  -0.283   2.447  10.810  0.0131 -0.4169 -0.5515
  116OSM    H1S12131  -0.385   2.481  10.841 -0.6936 -0.6690 -2.4416
  116OSM    H1T12132  -0.280   2.337  10.824  1.3027 -0.5013 -1.3781
  116OSM     NF12133  -0.396   2.433  10.583 -0.7300  0.0760  0.0497
  116OSM    HNF12134  -0.380   2.340  10.548 -2.2965  0.0784 -0.7532
  116OSM    C2S12135  -0.281   2.484  10.657 -0.2155  0.2169 -0.5937
  116OSM    H2S12136  -0.289   2.594  10.641  0.3798  0.1179 -1.6815
  116OSM    C3S12137  -0.147   2.442  10.589  0.0702 -0.2625  0.7479
  116OSM    H3S12138  -0.164   2.333  10.578  1.6607 -0.3872 -0.9561
  116OSM     O312139  -0.032   2.469  10.661 -0.0882  0.2017  0.4505
  116OSM    HO312140  -0.059   2.487  10.751 -0.4818  0.7380  0.2280
  116OSM    C4S12141  -0.126   2.499  10.450 -0.5565 -0.2543  0.3022
  116OSM    H4S12142  -0.108   2.607  10.443 -1.2694 -0.1181  0.5075
  116OSM    C5S12143  -0.121   2.425  10.331  0.5373 -0.9726 -0.1460
  116OSM    H5S12144  -0.164   2.324  10.336 -3.2844  0.4547 -0.1692
  116OSM    C6S12145  -0.110   2.486  10.191 -0.2934  0.2765 -0.0023
  116OSM    H6S12146  -0.205   2.538  10.164  0.1837  0.9868 -0.3364
  116OSM    H6T12147  -0.105   2.401  10.119  0.0837 -0.2970  0.6900
  116OSM    C7S12148   0.008   2.577  10.174  0.2086 -0.0114 -0.2421
  116OSM    H7S12149   0.088   2.508  10.209 -0.9214 -1.2403  0.0513
  116OSM    H7T12150   0.004   2.662  10.245 -1.0341  0.7659 -1.1865
  116OSM    C8S12151   0.036   2.626  10.024 -0.6337 -0.5406  0.3782
  116OSM    H8S12152   0.145   2.650  10.028 -1.0056  2.3485 -2.4688
  116OSM    H8T12153  -0.008   2.725  10.000 -0.1770 -0.1073  1.2530
  116OSM    C9S12154   0.015   2.524   9.915  0.3527  0.1334 -0.6952
  116OSM    H9S12155  -0.093   2.503   9.929  0.6751  0.5000  3.3685
  116OSM    H9T12156   0.077   2.434   9.938  0.8740 -0.0495 -2.6230
  116OSM   C10S12157   0.032   2.573   9.768  0.1325  0.2365 -0.2373
  116OSM   H10S12158   0.019   2.683   9.760  0.0979  0.2477 -0.0299
  116OSM   H10T12159  -0.055   2.530   9.714  0.7555 -1.5087  0.0951
  116OSM   C11S12160   0.156   2.517   9.697  1.0889 -0.1537 -0.5803
  116OSM   H11S12161   0.186   2.414   9.725  0.1732  0.0995  1.5591
  116OSM   H11T12162   0.238   2.591   9.705  0.8577  0.1500 -0.9729
  116OSM   C12S12163   0.128   2.499   9.543  0.0892  0.2034 -0.6690
  116OSM   H12S12164   0.050   2.428   9.508 -0.4994  0.6392 -0.2531
  116OSM   H12T12165   0.212   2.448   9.490  1.9455  1.5846  0.8028
  116OSM   C13S12166   0.136   2.633   9.479 -0.2894 -1.0601 -0.1692
  116OSM   H13S12167   0.207   2.706   9.524 -1.9564  1.6149 -1.5840
  116OSM   H13T12168   0.034   2.677   9.482 -0.3283 -1.1579 -0.0826
  116OSM   C14S12169   0.172   2.630   9.328 -0.4140  0.0633 -0.0507
  116OSM   H14S12170   0.268   2.580   9.306  0.7958  2.0705  0.4491
  116OSM   H14T12171   0.202   2.733   9.300  2.0334 -0.8313 -0.9671
  116OSM   C15S12172   0.070   2.566   9.234  0.3858 -0.6962  0.1304
  116OSM   H15S12173  -0.035   2.597   9.255  0.8620  0.6229  0.6992
  116OSM   H15T12174   0.064   2.459   9.264 -1.0200 -0.1901  1.8318
  116OSM   C16S12175   0.095   2.571   9.085 -0.5151  0.0084  0.2133
  116OSM   H16S12176   0.000   2.541   9.036 -1.0781  0.4585  1.0065
  116OSM   H16T12177   0.175   2.498   9.057 -0.9848 -0.3594 -0.1797
  116OSM   C17S12178   0.126   2.709   9.026  0.1667  0.3947 -0.4207
  116OSM   H17S12179   0.227   2.741   9.059  0.7003  1.8550 -3.1888
  116OSM   H17T12180   0.062   2.790   9.067 -0.9843 -1.0682  0.8089
  116OSM   C18S12181   0.131   2.715   8.876  0.2982 -0.0752 -0.2277
  116OSM   H18S12182   0.182   2.811   8.852  3.6792 -1.2399  1.6050
  116OSM   H18T12183   0.033   2.704   8.826 -0.3368 -2.5214  1.3512
  116OSM   H18U12184   0.200   2.633   8.847  1.3498  0.9414 -0.6742
  116OSM    C1F12185  -0.521   2.487  10.595  0.1768  0.7986  0.1420
  116OSM     OF12186  -0.536   2.600  10.635 -0.7374 -0.1039  0.0827
  116OSM    C2F12187  -0.634   2.396  10.547  0.1425 -0.4861 -0.2066
  116OSM    H2F12188  -0.662   2.327  10.630  0.8895 -2.2528 -1.3692
  116OSM    H2G12189  -0.595   2.329  10.467  0.7706 -1.1102  0.5919
  116OSM    C3F12190  -0.760   2.465  10.489  0.0321  0.5085  0.4618
  116OSM    H3F12191  -0.811   2.519  10.572 -0.9084 -2.1049  1.6967
  116OSM    H3G12192  -0.828   2.386  10.453 -0.3063  1.4677 -1.0759
  116OSM    C4F12193  -0.736   2.548  10.364  0.0433  0.1415 -0.2249
  116OSM    H4F12194  -0.659   2.627  10.379 -0.0686  0.2991 -0.4727
  116OSM    H4G12195  -0.835   2.597  10.353 -0.4274 -0.3475  1.5309
  116OSM    C5F12196  -0.686   2.471  10.246  0.9298  0.6978  0.4934
  116OSM    H5F12197  -0.756   2.390  10.218  0.0931  2.0069 -1.3824
  116OSM    H5G12198  -0.588   2.423  10.263  0.0435 -0.5962  2.4468
  116OSM    C6F12199  -0.683   2.564  10.125  1.0267  0.0588 -1.3243
  116OSM    H6F12200  -0.586   2.618  10.133  1.1659 -0.4420  0.8594
  116OSM    H6G12201  -0.764   2.638  10.113  0.5280 -0.1538  0.4751
  116OSM    C7F12202  -0.680   2.485   9.990 -0.0095 -0.3338  0.2244
  116OSM    H7F12203  -0.760   2.408   9.988 -0.4597  0.1353 -0.2300
  116OSM    H7G12204  -0.586   2.426   9.990  0.4394  0.3493  0.8285
  116OSM    C8F12205  -0.698   2.562   9.852 -0.6687 -0.3340  0.1017
  116OSM    H8F12206  -0.641   2.657   9.848 -1.8146  0.4134  0.9117
  116OSM    H8G12207  -0.796   2.614   9.853  0.0297  1.1477 -2.0252
  116OSM    C9F12208  -0.697   2.492   9.724  0.0985  0.0213 -0.9941
  116OSM    H9F12209  -0.680   2.384   9.715 -2.3794 -0.2181 -5.0934
  116OSM   C10F12210  -0.695   2.544   9.601  0.2890  0.6813 -0.6750
  116OSM   H10F12211  -0.682   2.467   9.523 -0.2636 -0.4851  0.3518
  116OSM   C11F12212  -0.697   2.693   9.564  0.2629 -0.3002 -0.8176
  116OSM   H11F12213  -0.636   2.750   9.637 -1.6459  0.7015  0.0503
  116OSM   H11G12214  -0.803   2.725   9.575  0.0389  0.0240 -3.2442
  116OSM   C12F12215  -0.675   2.751   9.424 -0.1009  0.8235  0.0196
  116OSM   H12F12216  -0.731   2.688   9.353  0.4473  0.1894  0.1433
  116OSM   H12G12217  -0.567   2.744   9.402  0.2933  1.2155  1.6448
  116OSM   C13F12218  -0.709   2.903   9.416 -0.6745  0.8485  0.8262
  116OSM   H13F12219  -0.666   2.960   9.501 -0.3215  0.6021  0.8136
  116OSM   H13G12220  -0.818   2.911   9.430 -0.8345  1.7825 -0.6642
  116OSM   C14F12221  -0.665   2.959   9.274  0.2698  0.3946 -0.9684
  116OSM   H14F12222  -0.713   2.892   9.199  0.5867 -0.4012 -0.4821
  116OSM   H14G12223  -0.557   2.962   9.252  0.4959 -1.1726 -0.2453
  116OSM   C15F12224  -0.726   3.099   9.259 -0.0430  0.8491  0.0966
  116OSM   H15F12225  -0.836   3.106   9.261 -0.0801  3.7922 -3.2408
  116OSM   H15G12226  -0.706   3.119   9.151 -0.2928 -1.6263 -0.4591
  116OSM   C16F12227  -0.658   3.206   9.347  0.2431 -0.2379  0.1102
  116OSM   H16F12228  -0.561   3.222   9.294  0.5540 -3.3887 -0.5356
  116OSM   H16G12229  -0.644   3.157   9.446  0.4841 -0.7487 -0.1701
  116OSM   C17F12230  -0.737   3.340   9.346 -0.1983  0.7214  0.1019
  116OSM   H17F12231  -0.709   3.405   9.431  0.3953  0.8589 -0.1887
  116OSM   H17G12232  -0.842   3.318   9.372 -0.2044 -0.8109 -1.0770
  116OSM   C18F12233  -0.715   3.420   9.220 -0.7844 -0.5484  0.3862
  116OSM   H18F12234  -0.608   3.443   9.207 -0.3822 -1.5870  1.6233
  116OSM   H18G12235  -0.775   3.512   9.234  2.0698  1.4038  0.4449
  116OSM   H18H12236  -0.761   3.368   9.133 -0.3527 -1.7616  0.8585
  117OSM      N12237   2.560   3.229  11.368 -0.0285  0.1883  0.0266
  117OSM    C1512238   2.631   3.117  11.433  0.6768 -0.3660 -0.0557
  117OSM   H15A12239   2.569   3.053  11.493 -1.9652  2.0119 -0.0357
  117OSM   H15B12240   2.716   3.146  11.492  1.8743 -2.1697 -0.8147
  117OSM   H15C12241   2.674   3.059  11.353  1.2453 -1.1796  0.8245
  117OSM    C1412242   2.446   3.171  11.295  0.8113  0.7891  0.7907
  117OSM   H14A12243   2.385   3.110  11.360 -0.3160 -0.0539 -0.9736
  117OSM   H14B12244   2.484   3.100  11.223  0.1474 -1.1146  2.2231
  117OSM   H14C12245   2.383   3.240  11.240 -0.7417 -0.6785  0.6285
  117OSM    C1312246   2.511   3.327  11.474 -0.2351 -0.1552  0.1068
  117OSM   H13A12247   2.586   3.397  11.508 -1.6695  1.8769 -0.7106
  117OSM   H13B12248   2.461   3.284  11.560 -1.6202  0.5050 -0.3230
  117OSM   H13C12249   2.436   3.388  11.425  1.1945  0.5908 -1.2342
  117OSM    C1212250   2.662   3.307  11.284  0.6516 -0.1528  0.1777
  117OSM   H12A12251   2.747   3.333  11.345 -1.6670 -1.2860  4.2439
  117OSM   H12B12252   2.617   3.404  11.270 -1.2946 -1.3490 -2.9532
  117OSM    C1112253   2.705   3.263  11.144 -0.4428 -0.5827  0.1529
  117OSM   H11A12254   2.778   3.339  11.108 -0.2445 -1.1489 -0.6610
  117OSM   H11B12255   2.616   3.253  11.077 -1.7810 -1.2162  1.9469
  117OSM      P12256   2.749   3.012  11.080 -0.0013 -0.1193 -0.2923
  117OSM    O1312257   2.847   2.906  11.109  0.3442  0.1192 -0.5484
  117OSM    O1412258   2.606   2.978  11.094  0.0589 -0.0185  1.1057
  117OSM    O1112259   2.773   3.061  10.931  0.1348 -0.3988 -0.5113
  117OSM    O1212260   2.774   3.140  11.168  0.3059 -0.0307  0.1494
  117OSM    C1S12261   2.902   3.085  10.880 -0.0181  0.5976  0.3545
  117OSM    H1S12262   2.970   2.999  10.901  0.0760  1.0463  1.9846
  117OSM    H1T12263   2.944   3.184  10.909  4.4374 -1.0462  0.2386
  117OSM     NF12264   3.018   3.060  10.655 -0.2275 -0.0697  0.3378
  117OSM    HNF12265   3.061   3.140  10.615  0.1392 -0.8119 -0.7925
  117OSM    C2S12266   2.892   3.086  10.723  0.1773  0.2624 -0.2937
  117OSM    H2S12267   2.820   3.009  10.687 -0.1143 -0.2143  1.2526
  117OSM    C3S12268   2.828   3.224  10.684 -0.1705  0.4708  0.1446
  117OSM    H3S12269   2.897   3.308  10.704 -2.2686  2.3016  0.0646
  117OSM     O312270   2.713   3.258  10.761  0.0406 -0.1723 -0.2645
  117OSM    HO312271   2.714   3.190  10.829 -0.2356 -1.6596 -1.6889
  117OSM    C4S12272   2.794   3.228  10.542  0.7429  0.1967 -0.2513
  117OSM    H4S12273   2.699   3.186  10.509  0.8270 -0.9770  0.9240
  117OSM    C5S12274   2.870   3.296  10.452  0.4339  0.4015  0.5646
  117OSM    H5S12275   2.974   3.327  10.473  0.6467 -0.8520  1.4793
  117OSM    C6S12276   2.849   3.304  10.304  0.9426 -0.0593  0.9612
  117OSM    H6S12277   2.939   3.281  10.242  0.1256  1.3410 -0.8280
  117OSM    H6T12278   2.825   3.408  10.272  0.9056 -0.6225 -0.9318
  117OSM    C7S12279   2.732   3.217  10.236  0.0557  0.7452 -0.4745
  117OSM    H7S12280   2.634   3.249  10.278 -0.1107  0.6464 -0.7883
  117OSM    H7T12281   2.752   3.116  10.277  0.8123  0.8838 -0.4873
  117OSM    C8S12282   2.739   3.206  10.083 -0.3251 -0.2026  0.1061
  117OSM    H8S12283   2.665   3.136  10.038 -1.0884  0.1367  0.8064
  117OSM    H8T12284   2.837   3.161  10.059  0.3450  1.1697  0.1988
  117OSM    C9S12285   2.722   3.337  10.006  0.2462  0.1393 -0.5992
  117OSM    H9S12286   2.800   3.414  10.026  0.3373 -0.2927  0.7502
  117OSM    H9T12287   2.633   3.388  10.047 -0.4782 -2.6965  1.6669
  117OSM   C10S12288   2.709   3.309   9.854 -0.7053  0.6195 -0.2696
  117OSM   H10S12289   2.645   3.391   9.816 -1.9776 -0.3157 -0.2051
  117OSM   H10T12290   2.664   3.210   9.830  1.5724 -1.5685  3.5257
  117OSM   C11S12291   2.851   3.314   9.792 -0.2725  0.0369  0.4342
  117OSM   H11S12292   2.903   3.249   9.865 -1.6339  0.7148  2.0563
  117OSM   H11T12293   2.893   3.417   9.803 -0.2625  0.1751 -0.7310
  117OSM   C12S12294   2.875   3.245   9.660  0.0866  0.6693  0.1080
  117OSM   H12S12295   2.822   3.148   9.652 -1.0376  1.3520 -1.2467
  117OSM   H12T12296   2.982   3.216   9.654  0.1636  1.1028 -0.8152
  117OSM   C13S12297   2.809   3.322   9.543 -0.3978 -0.4825 -0.1023
  117OSM   H13S12298   2.879   3.408   9.547  2.4423 -2.6986  1.4621
  117OSM   H13T12299   2.704   3.351   9.564 -0.7500 -2.1022  0.4980
  117OSM   C14S12300   2.823   3.259   9.409  0.4742  0.3800  0.2229
  117OSM   H14S12301   2.778   3.158   9.417  1.5100 -0.0241  1.2144
  117OSM   H14T12302   2.929   3.234   9.384  0.0209 -2.5006  0.8669
  117OSM   C15S12303   2.762   3.342   9.291 -0.4800  0.3978  0.3497
  117OSM   H15S12304   2.827   3.431   9.276  1.5703 -1.0814 -0.1373
  117OSM   H15T12305   2.659   3.377   9.314 -0.8530  0.1737 -0.9289
  117OSM   C16S12306   2.770   3.267   9.155 -0.6300  0.1818  0.3177
  117OSM   H16S12307   2.704   3.181   9.180 -0.1320 -0.3683 -0.2461
  117OSM   H16T12308   2.874   3.244   9.125 -1.0558  0.0383 -1.1428
  117OSM   C17S12309   2.698   3.352   9.043 -0.1784  0.4724  0.1882
  117OSM   H17S12310   2.765   3.437   9.017  3.1901 -1.8513  0.6104
  117OSM   H17T12311   2.604   3.399   9.079 -1.1615  0.1782 -1.8493
  117OSM   C18S12312   2.687   3.272   8.914  0.8994 -0.4517  0.0056
  117OSM   H18S12313   2.783   3.229   8.879  0.5946 -0.8020 -0.4145
  117OSM   H18T12314   2.645   3.340   8.836  0.5582 -1.5997 -0.8396
  117OSM   H18U12315   2.616   3.189   8.935  1.2095 -0.4424  1.1265
  117OSM    C1F12316   3.071   2.941  10.645 -0.0183  0.2307  0.4997
  117OSM     OF12317   3.013   2.846  10.689 -0.7462  0.5148 -0.0636
  117OSM    C2F12318   3.214   2.930  10.586 -0.3700  0.3889 -1.1581
  117OSM    H2F12319   3.265   2.855  10.649 -3.3259 -0.3692  0.5052
  117OSM    H2G12320   3.262   3.030  10.582  0.6792 -0.1366 -2.8456
  117OSM    C3F12321   3.212   2.886  10.439 -0.9082 -0.5138 -0.5696
  117OSM    H3F12322   3.172   2.783  10.426  1.2229 -1.5128  0.3608
  117OSM    H3G12323   3.318   2.880  10.409 -0.7200 -1.2991  0.2230
  117OSM    C4F12324   3.147   2.981  10.342  0.0499  0.0302 -0.1070
  117OSM    H4F12325   3.165   3.089  10.364  0.4893 -0.4489  2.1572
  117OSM    H4G12326   3.038   2.967  10.359 -0.3515  3.6379  1.3389
  117OSM    C5F12327   3.189   2.958  10.194  0.1599  0.1920  0.6185
  117OSM    H5F12328   3.172   2.853  10.162 -2.8044 -0.0697  2.6615
  117OSM    H5G12329   3.298   2.979  10.181  0.5884 -0.3738  2.8627
  117OSM    C6F12330   3.098   3.047  10.105 -0.1881 -0.0900 -0.0697
  117OSM    H6F12331   3.112   3.150  10.143 -0.5059  0.8510 -2.3191
  117OSM    H6G12332   2.993   3.016  10.128  0.1207 -0.4191  0.9468
  117OSM    C7F12333   3.149   3.034   9.962  0.4472  0.3539  0.2871
  117OSM    H7F12334   3.259   3.052   9.963  0.4276  1.1512 -2.3806
  117OSM    H7G12335   3.122   3.120   9.897  0.0960  0.7830  1.0008
  117OSM    C8F12336   3.118   2.893   9.891 -0.8937  0.1816 -0.3636
  117OSM    H8F12337   3.150   2.805   9.951  0.3326  0.6249 -0.3568
  117OSM    H8G12338   3.170   2.895   9.793  2.1364 -0.3736  1.1336
  117OSM    C9F12339   2.970   2.892   9.863  0.1537  0.2840 -0.1018
  117OSM    H9F12340   2.902   2.904   9.948  0.3185  0.3188  0.0254
  117OSM   C10F12341   2.916   2.883   9.742 -0.2450 -0.2001  0.8709
  117OSM   H10F12342   2.807   2.889   9.737 -0.6358 -1.3965  5.0096
  117OSM   C11F12343   2.984   2.864   9.604  0.1065  0.2271  0.8413
  117OSM   H11F12344   3.089   2.900   9.610  0.1803  0.1296  0.1916
  117OSM   H11G12345   2.931   2.936   9.538  1.0011 -0.7788 -1.0397
  117OSM   C12F12346   2.979   2.723   9.543  0.2004  0.2815  0.9970
  117OSM   H12F12347   3.041   2.652   9.602  2.7985 -0.1287 -1.9863
  117OSM   H12G12348   3.031   2.727   9.445  2.4410 -0.7483  2.0708
  117OSM   C13F12349   2.834   2.681   9.535  1.0902 -0.5580  0.1519
  117OSM   H13F12350   2.777   2.763   9.488 -0.2770 -1.1682  0.6862
  117OSM   H13G12351   2.787   2.668   9.634 -0.6016  0.4473 -0.4814
  117OSM   C14F12352   2.805   2.557   9.451 -0.3281  0.3917  0.1291
  117OSM   H14F12353   2.867   2.479   9.499 -0.1700 -1.4203 -2.8049
  117OSM   H14G12354   2.865   2.560   9.358 -1.0137 -2.9572 -0.5502
  117OSM   C15F12355   2.654   2.533   9.428  0.0091  0.7177  0.1301
  117OSM   H15F12356   2.631   2.443   9.367 -1.9620  1.2355  0.0506
  117OSM   H15G12357   2.615   2.610   9.359  0.1985  1.9756  1.3896
  117OSM   C16F12358   2.567   2.498   9.549  0.6917  0.1646 -0.3537
  117OSM   H16F12359   2.470   2.467   9.504  1.6274 -1.4442 -1.3387
  117OSM   H16G12360   2.542   2.581   9.619 -3.3459  0.6925 -2.1286
  117OSM   C17F12361   2.623   2.388   9.639 -0.2968  0.3214  0.2191
  117OSM   H17F12362   2.706   2.425   9.703  0.0698 -0.3497  0.1491
  117OSM   H17G12363   2.661   2.303   9.578 -0.4285  0.6714 -0.3568
  117OSM   C18F12364   2.516   2.323   9.730 -0.0666  0.2746  0.4105
  117OSM   H18F12365   2.444   2.252   9.684 -0.5021 -0.2712  1.8778
  117OSM   H18G12366   2.448   2.409   9.748  0.4747  0.2598  2.8165
  117OSM   H18H12367   2.568   2.284   9.820 -1.3444  0.1642  1.1173
  118OSM      N12368   3.209   4.861  11.507 -0.5907  0.3476  0.0119
  118OSM    C1512369   3.332   4.910  11.431  0.0643 -0.0841  0.7522
  118OSM   H15A12370   3.391   4.990  11.472  1.4036 -1.6985  2.0925
  118OSM   H15B12371   3.303   4.926  11.328  0.2221 -1.1743  0.5308
  118OSM   H15C12372   3.406   4.831  11.428  0.3144  0.1614  0.4188
  118OSM    C1412373   3.260   4.823  11.645 -0.4368  0.6983 -0.7747
  118OSM   H14A12374   3.334   4.745  11.641  1.4489  2.3915 -0.8435
  118OSM   H14B12375   3.177   4.789  11.705 -1.4801  1.2572 -1.8588
  118OSM   H14C12376   3.312   4.908  11.689 -1.7594 -0.1615  2.7888
  118OSM    C1312377   3.120   4.981  11.516  0.2827 -0.2677  1.1915
  118OSM   H13A12378   3.169   5.072  11.550  2.0252 -0.7350  0.0574
  118OSM   H13B12379   3.031   4.960  11.573 -0.9894  0.9198 -0.2807
  118OSM   H13C12380   3.077   5.000  11.419 -1.0309  1.8525  2.1125
  118OSM    C1212381   3.145   4.744  11.439  0.4208  0.3332  0.4626
  118OSM   H12A12382   3.058   4.712  11.493 -1.0545 -0.2939 -2.1250
  118OSM   H12B12383   3.214   4.661  11.429  1.0555  1.1299 -3.7397
  118OSM    C1112384   3.084   4.755  11.296 -0.2567 -0.1478  0.9985
  118OSM   H11A12385   3.011   4.838  11.301 -0.8540 -0.4413 -1.4855
  118OSM   H11B12386   3.023   4.664  11.273 -0.0824 -0.0188 -0.0244
  118OSM      P12387   3.281   4.665  11.138  0.1192 -0.2773 -0.2259
  118OSM    O1312388   3.410   4.734  11.137  0.5459  0.3293 -0.3668
  118OSM    O1412389   3.272   4.534  11.206  0.0417 -0.4686 -0.0761
  118OSM    O1112390   3.225   4.635  10.985 -0.1265  0.3928  0.1239
  118OSM    O1212391   3.181   4.777  11.189  0.0905  0.4011 -0.1464
  118OSM    C1S12392   3.294   4.525  10.911 -0.7283 -0.0923  0.4507
  118OSM    H1S12393   3.281   4.434  10.973 -1.1027 -1.5738 -1.6920
  118OSM    H1T12394   3.404   4.541  10.908 -0.6549  0.2106  2.7076
  118OSM     NF12395   3.251   4.373  10.726 -0.3347 -0.3149 -0.6343
  118OSM    HNF12396   3.319   4.362  10.654 -2.2226 -0.6511 -2.4668
  118OSM    C2S12397   3.234   4.509  10.771 -0.9503  0.3933 -0.0316
  118OSM    H2S12398   3.125   4.525  10.789 -0.9934 -1.6670  1.9250
  118OSM    C3S12399   3.287   4.617  10.678  0.3952  0.0678  0.5189
  118OSM    H3S12400   3.397   4.601  10.675  0.7395  2.2255 -1.1112
  118OSM     O312401   3.270   4.748  10.720  0.0216 -0.0274  0.2768
  118OSM    HO312402   3.247   4.727  10.811 -0.8506 -0.1143  0.0427
  118OSM    C4S12403   3.232   4.604  10.531 -0.1378  0.3294 -0.2909
  118OSM    H4S12404   3.309   4.572  10.459 -1.1842 -0.7484 -0.9633
  118OSM    C5S12405   3.113   4.633  10.484 -0.6821 -0.6305  0.6596
  118OSM    H5S12406   3.039   4.672  10.556  0.0466  2.2171 -0.0264
  118OSM    C6S12407   3.067   4.615  10.347 -0.4768 -0.2523  0.0704
  118OSM    H6S12408   2.969   4.564  10.334 -0.2215 -0.2365 -2.3056
  118OSM    H6T12409   3.141   4.555  10.292 -0.6423 -1.3234  0.9774
  118OSM    C7S12410   3.045   4.746  10.268  0.3879  0.2386 -0.6309
  118OSM    H7S12411   3.130   4.817  10.275 -1.5307  2.6447 -0.5300
  118OSM    H7T12412   2.956   4.805  10.297 -0.3849 -2.3067  2.8306
  118OSM    C8S12413   3.030   4.716  10.117  0.1967  0.8510 -0.4551
  118OSM    H8S12414   2.951   4.638  10.107  0.9031 -0.2379  1.8086
  118OSM    H8T12415   3.123   4.667  10.081 -0.2688 -2.3080  2.1003
  118OSM    C9S12416   2.983   4.827  10.022 -0.2585 -0.0911 -0.7019
  118OSM    H9S12417   3.053   4.909  10.051 -0.0628 -0.7604  0.7871
  118OSM    H9T12418   2.882   4.861  10.051  0.4776  0.0262  2.0177
  118OSM   C10S12419   2.996   4.803   9.876  0.2248  0.2161 -0.1651
  118OSM   H10S12420   2.905   4.756   9.833  0.1743  1.5932 -1.6453
  118OSM   H10T12421   3.083   4.735   9.862  0.5109  0.2705  1.2390
  118OSM   C11S12422   3.017   4.928   9.794  0.0642 -0.0727 -0.6785
  118OSM   H11S12423   3.094   4.989   9.847  0.3165 -1.5123  0.7054
  118OSM   H11T12424   2.918   4.978   9.784  0.3652  0.2667 -2.3602
  118OSM   C12S12425   3.068   4.893   9.655  0.7104  0.6791 -0.4182
  118OSM   H12S12426   3.162   4.834   9.663 -0.2191 -0.6694  1.1205
  118OSM   H12T12427   3.091   4.985   9.598  3.0248 -0.5759 -1.6454
  118OSM   C13S12428   2.966   4.828   9.561 -0.1347 -0.2629  0.3840
  118OSM   H13S12429   2.886   4.905   9.555  1.1813  1.1119 -0.0687
  118OSM   H13T12430   2.920   4.732   9.592  0.7984 -0.7913  0.1656
  118OSM   C14S12431   3.024   4.801   9.417  0.2343  0.1440 -0.0280
  118OSM   H14S12432   3.100   4.722   9.404  0.3086  0.4424 -1.5050
  118OSM   H14T12433   3.069   4.896   9.381 -0.7622  0.2520 -1.0101
  118OSM   C15S12434   2.917   4.760   9.313 -0.2432 -0.2441 -1.1019
  118OSM   H15S12435   2.826   4.817   9.345  1.5633  1.2684  1.7883
  118OSM   H15T12436   2.884   4.656   9.335 -1.3198  0.0010 -1.4810
  118OSM   C16S12437   2.966   4.780   9.172  0.4634  0.7647 -1.4954
  118OSM   H16S12438   2.915   4.703   9.110  0.6920 -0.6428 -0.0144
  118OSM   H16T12439   3.073   4.754   9.168  0.3600  0.3238 -1.4661
  118OSM   C17S12440   2.933   4.910   9.110 -0.1511 -0.0409 -0.4235
  118OSM   H17S12441   2.974   4.911   9.006  0.5654  0.4081 -0.1455
  118OSM   H17T12442   2.981   4.995   9.163  2.4433 -1.9454  0.4929
  118OSM   C18S12443   2.781   4.934   9.096  0.3739 -0.4942 -0.3762
  118OSM   H18S12444   2.725   4.851   9.048  1.0115 -0.7888 -0.6198
  118OSM   H18T12445   2.752   5.031   9.050 -3.4990 -1.4023 -0.2118
  118OSM   H18U12446   2.739   4.938   9.198  2.0047  0.7804  0.2916
  118OSM    C1F12447   3.184   4.275  10.772  0.0628  0.5439 -0.6131
  118OSM     OF12448   3.101   4.291  10.863 -0.9907 -0.2312 -0.2153
  118OSM    C2F12449   3.207   4.135  10.723  0.3739  0.2292 -1.1561
  118OSM    H2F12450   3.178   4.062  10.801 -0.0187 -0.1856 -1.6819
  118OSM    H2G12451   3.312   4.112  10.695  1.6292  3.2075  0.5765
  118OSM    C3F12452   3.115   4.093  10.607 -0.0864  0.4962 -0.4720
  118OSM    H3F12453   3.014   4.137  10.618 -0.9350 -1.7840  1.7310
  118OSM    H3G12454   3.092   3.986  10.619  0.9067  0.2774 -0.3910
  118OSM    C4F12455   3.172   4.127  10.467 -0.0835 -0.0712 -0.2029
  118OSM    H4F12456   3.283   4.126  10.471 -0.1014  1.0788  1.3955
  118OSM    H4G12457   3.148   4.234  10.445  0.2176 -0.0067 -0.2172
  118OSM    C5F12458   3.115   4.045  10.349  0.1686  0.3853 -0.3482
  118OSM    H5F12459   3.005   4.060  10.342  0.0819 -0.3366 -0.6202
  118OSM    H5G12460   3.138   3.936  10.355 -0.2932  0.1920 -1.7779
  118OSM    C6F12461   3.171   4.100  10.214  0.0990  0.3909 -0.4758
  118OSM    H6F12462   3.282   4.088  10.218  0.4238  2.7895 -0.9346
  118OSM    H6G12463   3.149   4.208  10.206  2.1188  1.1305  2.4197
  118OSM    C7F12464   3.107   4.025  10.100 -0.6485 -0.4272  0.9046
  118OSM    H7F12465   3.003   4.057  10.078 -0.0289 -0.9672 -3.8729
  118OSM    H7G12466   3.100   3.916  10.121  0.5279 -1.4337 -3.0167
  118OSM    C8F12467   3.187   4.026   9.970 -0.1881 -0.1004 -0.2579
  118OSM    H8F12468   3.179   4.130   9.932 -1.8122 -1.0373 -2.7282
  118OSM    H8G12469   3.140   3.958   9.896 -1.7915  0.4002  0.2432
  118OSM    C9F12470   3.329   3.978   9.974 -0.3862  0.1639 -0.1145
  118OSM    H9F12471   3.363   3.935  10.070 -0.1020  0.0255 -0.2759
  118OSM   C10F12472   3.414   3.978   9.867 -0.8285 -0.2290  0.1213
  118OSM   H10F12473   3.518   3.943   9.875 -0.9113 -2.8856 -5.4404
  118OSM   C11F12474   3.387   4.037   9.731 -0.1098  0.3875 -0.4920
  118OSM   H11F12475   3.470   4.105   9.702 -1.7626  2.5168 -0.4992
  118OSM   H11G12476   3.296   4.100   9.743  0.7583  1.2523  2.1141
  118OSM   C12F12477   3.363   3.933   9.615 -0.0539 -0.0059 -0.5872
  118OSM   H12F12478   3.284   3.858   9.639  0.8976 -0.4421  1.4310
  118OSM   H12G12479   3.450   3.865   9.621  0.1765  0.3807  1.3207
  118OSM   C13F12480   3.335   3.992   9.475 -1.1067  0.5532 -0.1809
  118OSM   H13F12481   3.419   4.059   9.448 -0.4466  0.2274  1.0150
  118OSM   H13G12482   3.241   4.050   9.459 -0.6254  1.1330 -0.9433
  118OSM   C14F12483   3.333   3.883   9.364  0.0035  0.8261 -0.1615
  118OSM   H14F12484   3.249   3.812   9.382 -0.2137  0.5939 -1.9339
  118OSM   H14G12485   3.430   3.829   9.369 -0.5691 -0.1415  1.3161
  118OSM   C15F12486   3.305   3.930   9.221 -0.9149 -0.0167 -0.2161
  118OSM   H15F12487   3.387   3.993   9.180 -0.4054 -1.2475 -1.1503
  118OSM   H15G12488   3.219   3.999   9.224  1.3777  3.0258  0.7115
  118OSM   C16F12489   3.270   3.819   9.121 -0.5354 -0.7094 -0.0034
  118OSM   H16F12490   3.172   3.782   9.155 -0.6546  0.6864  1.3094
  118OSM   H16G12491   3.338   3.731   9.120 -1.9566 -1.9418  2.3646
  118OSM   C17F12492   3.241   3.887   8.982 -0.0732  0.7058  0.1462
  118OSM   H17F12493   3.336   3.926   8.941  0.3182 -1.0190 -0.6552
  118OSM   H17G12494   3.167   3.970   8.989 -1.1510  0.0253 -2.1022
  118OSM   C18F12495   3.195   3.780   8.884 -0.5246  0.0612 -0.8412
  118OSM   H18F12496   3.277   3.709   8.860  0.3417  0.7813 -0.0323
  118OSM   H18G12497   3.170   3.825   8.785 -0.7718 -1.1895 -1.3688
  118OSM   H18H12498   3.111   3.721   8.927 -1.5534  0.7621 -1.8287
  119OSM      N12499   3.219   4.084  11.187 -0.9124  0.1821 -0.4966
  119OSM    C1512500   3.068   4.062  11.205 -0.2499 -0.0903 -0.3396
  119OSM   H15A12501   3.035   4.115  11.294 -1.7357  0.3979 -1.1387
  119OSM   H15B12502   3.039   3.959  11.215 -2.3021  0.6100  2.2269
  119OSM   H15C12503   3.021   4.106  11.118  0.4884 -1.4343 -1.4393
  119OSM    C1412504   3.245   4.229  11.199 -0.0103 -0.2478  0.6977
  119OSM   H14A12505   3.351   4.245  11.185 -0.1948 -0.2969 -1.0242
  119OSM   H14B12506   3.214   4.264  11.296 -0.7527  0.6315  0.1523
  119OSM   H14C12507   3.186   4.280  11.124 -0.3384 -2.3162 -0.5356
  119OSM    C1312508   3.302   4.013  11.290  0.0524  0.9542  0.0690
  119OSM   H13A12509   3.408   4.010  11.273 -0.2777  0.5209 -2.1990
  119OSM   H13B12510   3.267   3.911  11.297  2.6806 -0.4956 -4.1604
  119OSM   H13C12511   3.276   4.063  11.383 -1.3752  2.6277 -1.1532
  119OSM    C1212512   3.263   4.039  11.046 -0.1086 -0.0147  0.2712
  119OSM   H12A12513   3.210   4.090  10.968 -0.6415 -1.8840 -0.6409
  119OSM   H12B12514   3.240   3.933  11.045  1.2766 -0.3442  0.9982
  119OSM    C1112515   3.415   4.059  11.015  0.3954  0.6574 -0.2053
  119OSM   H11A12516   3.422   4.014  10.914  1.4215  2.6013 -1.0693
  119OSM   H11B12517   3.475   3.996  11.084 -1.0442 -0.4459  0.0782
  119OSM      P12518   3.610   4.236  11.045  0.2599  0.1607 -0.0997
  119OSM    O1312519   3.617   4.330  11.163 -0.1828  0.3735 -0.3681
  119OSM    O1412520   3.686   4.111  11.061  0.0283  0.1869  0.3981
  119OSM    O1112521   3.664   4.314  10.913 -0.5301 -0.1108  0.3592
  119OSM    O1212522   3.456   4.200  11.011  0.0751  0.2942  0.1406
  119OSM    C1S12523   3.612   4.295  10.778 -0.1908 -0.2083  0.7242
  119OSM    H1S12524   3.501   4.296  10.774 -0.2299 -0.1518  1.5661
  119OSM    H1T12525   3.643   4.191  10.753  0.4243  0.1291  0.0390
  119OSM     NF12526   3.663   4.358  10.541 -0.4935  1.0335  0.3965
  119OSM    HNF12527   3.749   4.334  10.496 -0.4893  2.0817 -0.1911
  119OSM    C2S12528   3.675   4.395  10.678  1.1106  0.4802 -0.2858
  119OSM    H2S12529   3.609   4.485  10.679 -1.3749 -1.2268 -0.4941
  119OSM    C3S12530   3.816   4.436  10.719  0.0125 -0.0331 -0.4439
  119OSM    H3S12531   3.884   4.348  10.720 -1.5900 -1.3664  1.6710
  119OSM     O312532   3.832   4.502  10.849 -0.1153  0.2417 -0.8056
  119OSM    HO312533   3.754   4.488  10.903  0.9220 -2.2637  0.1841
  119OSM    C4S12534   3.871   4.534  10.615 -0.3023 -0.4498  0.0392
  119OSM    H4S12535   3.925   4.487  10.532  0.5516  0.3046  0.1439
  119OSM    C5S12536   3.850   4.667  10.604  0.4958  0.0463 -0.2893
  119OSM    H5S12537   3.787   4.722  10.675  0.5263 -0.5558  0.2096
  119OSM    C6S12538   3.909   4.750  10.495 -0.3453  0.1969 -0.1726
  119OSM    H6S12539   3.931   4.851  10.538  0.9450 -0.0926 -0.1180
  119OSM    H6T12540   3.831   4.779  10.422 -1.5913  0.4156  1.1839
  119OSM    C7S12541   4.037   4.699  10.428  0.1559  0.1156 -0.5130
  119OSM    H7S12542   4.086   4.640  10.509 -0.1078 -0.4474 -0.7576
  119OSM    H7T12543   4.101   4.785  10.400 -1.0793  1.2522  0.1024
  119OSM    C8S12544   4.018   4.604  10.304  0.1947 -0.0861 -0.5169
  119OSM    H8S12545   3.947   4.525  10.337  0.9945 -0.5361  0.1708
  119OSM    H8T12546   4.116   4.555  10.288  0.2919 -0.5664  1.2697
  119OSM    C9S12547   3.955   4.670  10.188  0.2827 -0.4027  0.2964
  119OSM    H9S12548   4.044   4.727  10.151  1.6951 -0.7606  2.9133
  119OSM    H9T12549   3.880   4.748  10.214 -0.4030 -0.4469 -1.4250
  119OSM   C10S12550   3.903   4.574  10.085 -0.0744 -0.2814 -0.5400
  119OSM   H10S12551   3.810   4.525  10.121 -0.8679  0.8138 -1.0116
  119OSM   H10T12552   3.980   4.497  10.065 -1.3590 -1.2656 -1.9043
  119OSM   C11S12553   3.873   4.641   9.951  0.1105  0.1641  0.1289
  119OSM   H11S12554   3.960   4.705   9.927 -0.9188  1.8311  0.6802
  119OSM   H11T12555   3.785   4.705   9.973  0.2402 -0.0924  1.5374
  119OSM   C12S12556   3.833   4.541   9.839  0.0794  0.6584 -0.5199
  119OSM   H12S12557   3.754   4.477   9.883 -1.0419  2.7163  0.6399
  119OSM   H12T12558   3.929   4.490   9.819  1.3128  2.5547  0.3558
  119OSM   C13S12559   3.782   4.596   9.711 -0.3404 -0.2998 -0.4477
  119OSM   H13S12560   3.688   4.651   9.730 -0.2220  0.0812 -0.9475
  119OSM   H13T12561   3.755   4.511   9.645  0.1603  1.5090 -3.1520
  119OSM   C14S12562   3.885   4.691   9.646 -0.3914 -0.5341  0.9051
  119OSM   H14S12563   3.983   4.641   9.632  1.1714  2.6432 -0.6990
  119OSM   H14T12564   3.897   4.794   9.686 -0.0672  0.3933 -1.4217
  119OSM   C15S12565   3.850   4.702   9.492 -0.4709 -0.0799  0.0406
  119OSM   H15S12566   3.750   4.750   9.485  0.0487  0.9198 -1.0425
  119OSM   H15T12567   3.838   4.599   9.451 -3.1057 -1.2625  3.3236
  119OSM   C16S12568   3.943   4.806   9.424 -0.1998 -0.0086 -0.5364
  119OSM   H16S12569   3.931   4.894   9.491 -0.5782 -1.1442  0.9378
  119OSM   H16T12570   3.904   4.834   9.324  0.7691 -0.4414 -1.0504
  119OSM   C17S12571   4.097   4.792   9.414  0.1584 -0.1530  0.2305
  119OSM   H17S12572   4.106   4.695   9.361 -0.6149 -0.1257  0.0381
  119OSM   H17T12573   4.127   4.787   9.521  0.0057  1.1912  0.3534
  119OSM   C18S12574   4.170   4.908   9.350 -0.4468  0.0113 -0.3956
  119OSM   H18S12575   4.279   4.887   9.343 -0.5013 -0.8267  1.0353
  119OSM   H18T12576   4.154   4.998   9.413 -0.6488  0.5601 -1.2170
  119OSM   H18U12577   4.127   4.930   9.250 -1.1969 -0.9611 -0.2995
  119OSM    C1F12578   3.553   4.340  10.476  0.4954 -0.2846  0.5472
  119OSM     OF12579   3.446   4.346  10.531 -1.1058  0.2352  0.1576
  119OSM    C2F12580   3.555   4.321  10.328  0.0682  0.0750  0.0132
  119OSM    H2F12581   3.552   4.211  10.317 -3.8380 -0.2459  2.3050
  119OSM    H2G12582   3.656   4.357  10.299 -0.5129  2.9191  1.1383
  119OSM    C3F12583   3.442   4.388  10.249 -0.2619  0.1439 -0.3379
  119OSM    H3F12584   3.449   4.498  10.263 -1.0010  0.5528 -2.7677
  119OSM    H3G12585   3.339   4.356  10.275 -0.7445 -0.1557 -2.4228
  119OSM    C4F12586   3.464   4.364  10.099  0.3070  0.8621  0.1109
  119OSM    H4F12587   3.445   4.256  10.080  0.3571  0.7355  0.7467
  119OSM    H4G12588   3.570   4.383  10.073  0.3107  2.5683  1.2510
  119OSM    C5F12589   3.364   4.442  10.015 -0.2735  0.3056  0.8024
  119OSM    H5F12590   3.361   4.549  10.043  0.4757  0.5210  0.1059
  119OSM    H5G12591   3.265   4.395  10.034  0.6873 -0.6429  4.3010
  119OSM    C6F12592   3.387   4.426   9.861  0.0472  0.2844  0.5558
  119OSM    H6F12593   3.358   4.322   9.833 -1.3078  0.8899 -0.4405
  119OSM    H6G12594   3.491   4.439   9.826  0.0195 -2.4216 -0.7626
  119OSM    C7F12595   3.300   4.524   9.779 -0.0909  0.3373  0.5024
  119OSM    H7F12596   3.321   4.627   9.815  0.8196 -0.2192  1.6128
  119OSM    H7G12597   3.195   4.490   9.790 -0.4097  0.1666 -2.3077
  119OSM    C8F12598   3.341   4.522   9.622 -0.0571  0.1744 -0.3669
  119OSM    H8F12599   3.439   4.573   9.613 -0.7369  1.5317 -0.2161
  119OSM    H8G12600   3.282   4.601   9.571  1.7887  2.9865  1.5885
  119OSM    C9F12601   3.330   4.399   9.546 -0.0821 -0.0421  0.3363
  119OSM    H9F12602   3.238   4.343   9.567  0.0535 -0.8075 -1.0345
  119OSM   C10F12603   3.421   4.376   9.454  0.8772 -0.6748  0.3696
  119OSM   H10F12604   3.418   4.286   9.391 -2.3823  0.1864 -0.9508
  119OSM   C11F12605   3.529   4.458   9.406  0.2228 -0.1806 -0.1905
  119OSM   H11F12606   3.594   4.469   9.495  0.6999 -1.5394 -0.3468
  119OSM   H11G12607   3.503   4.564   9.388  0.2365  0.0510  1.0415
  119OSM   C12F12608   3.599   4.399   9.284 -0.7472  0.3926 -0.0481
  119OSM   H12F12609   3.649   4.303   9.310  1.0395  0.9564 -1.1629
  119OSM   H12G12610   3.667   4.478   9.246 -1.8563  0.9619 -0.8864
  119OSM   C13F12611   3.499   4.389   9.172  0.4387 -0.1565  1.0414
  119OSM   H13F12612   3.477   4.491   9.135  1.0395  0.0319  1.1923
  119OSM   H13G12613   3.403   4.338   9.194  0.0874  0.1893  0.3254
  119OSM   C14F12614   3.555   4.316   9.049 -0.7124 -0.0539  0.2569
  119OSM   H14F12615   3.598   4.219   9.083 -3.1652 -1.0301  0.7984
  119OSM   H14G12616   3.628   4.386   9.003 -2.7007  0.3272 -2.6214
  119OSM   C15F12617   3.461   4.292   8.934 -0.4064  0.3065  0.3774
  119OSM   H15F12618   3.385   4.372   8.937 -0.4782  0.2661 -0.3056
  119OSM   H15G12619   3.414   4.193   8.950  4.6176 -2.3422  0.8857
  119OSM   C16F12620   3.534   4.310   8.799  0.3679 -0.1191  0.0716
  119OSM   H16F12621   3.616   4.235   8.806 -0.7553 -1.4007  0.0846
  119OSM   H16G12622   3.558   4.418   8.804 -2.6745  0.6548  0.0060
  119OSM   C17F12623   3.443   4.267   8.683  0.0203  0.3337  0.0542
  119OSM   H17F12624   3.492   4.299   8.588  2.3982 -0.1271  1.0526
  119OSM   H17G12625   3.353   4.331   8.688 -0.2939 -0.1299  0.4035
  119OSM   C18F12626   3.408   4.117   8.682 -0.4691 -0.1776  0.3278
  119OSM   H18F12627   3.348   4.093   8.773  0.1004  1.6108  1.2276
  119OSM   H18G12628   3.494   4.051   8.660 -1.4464 -0.9908 -1.1827
  119OSM   H18H12629   3.328   4.086   8.612 -0.4698  1.4453 -0.4383
  120OSM      N12630   4.882   0.585  11.056 -0.0510  0.8083 -0.4265
  120OSM    C1512631   4.786   0.496  11.118  0.4094 -0.1810  0.4547
  120OSM   H15A12632   4.750   0.425  11.045  0.5293 -1.8190  1.9139
  120OSM   H15B12633   4.692   0.547  11.133 -0.1330 -0.7864 -0.7579
  120OSM   H15C12634   4.817   0.448  11.209  0.6454  2.0640  1.6211
  120OSM    C1412635   4.898   0.702  11.151 -0.4151 -0.0306 -0.0121
  120OSM   H14A12636   4.973   0.766  11.107 -0.4401 -1.0682 -1.6476
  120OSM   H14B12637   4.934   0.688  11.252  1.9137 -0.0510 -0.8019
  120OSM   H14C12638   4.801   0.751  11.151  0.4275  1.7228  0.6589
  120OSM    C1312639   5.009   0.515  11.057 -0.1242  0.4920  0.0138
  120OSM   H13A12640   5.040   0.486  11.156  1.7385 -1.0725 -0.9665
  120OSM   H13B12641   5.081   0.580  11.012  0.1511 -0.7368 -1.3862
  120OSM   H13C12642   5.018   0.426  10.996  1.2976  1.7664 -1.7132
  120OSM    C1212643   4.843   0.636  10.917 -0.3235 -0.2220  0.5028
  120OSM   H12A12644   4.750   0.692  10.921 -0.7919 -0.8761 -0.9736
  120OSM   H12B12645   4.836   0.552  10.851  3.2445  0.9110 -1.6082
  120OSM    C1112646   4.950   0.721  10.851 -0.5004 -0.1515  0.0943
  120OSM   H11A12647   5.010   0.796  10.906  1.9290 -1.5667 -0.4300
  120OSM   H11B12648   4.899   0.782  10.773  1.6944  0.4394 -0.9641
  120OSM      P12649   5.021   0.556  10.662  0.3578 -0.3953  0.1234
  120OSM    O1312650   5.148   0.497  10.619 -0.1024  0.1849 -0.0599
  120OSM    O1412651   4.908   0.460  10.680 -0.2979  0.5987 -0.3520
  120OSM    O1112652   4.979   0.659  10.553 -0.3433 -0.2352  0.0406
  120OSM    O1212653   5.042   0.640  10.788 -0.4243  0.6779 -0.1277
  120OSM    C1S12654   5.066   0.773  10.512  0.2578 -0.1567  0.0549
  120OSM    H1S12655   5.157   0.796  10.572  0.1108  0.2402  0.1235
  120OSM    H1T12656   5.008   0.867  10.523 -0.7348 -0.4910 -1.7929
  120OSM     NF12657   5.203   0.884  10.340 -0.4869  0.0246  0.2472
  120OSM    HNF12658   5.170   0.968  10.297  2.7110  1.2846 -0.0198
  120OSM    C2S12659   5.114   0.769  10.362 -0.6096 -0.7704  0.8058
  120OSM    H2S12660   5.171   0.675  10.345 -2.8283 -1.7729 -1.6655
  120OSM    C3S12661   4.991   0.770  10.268 -0.2585  0.3997  0.0917
  120OSM    H3S12662   4.940   0.865  10.296 -0.4634  0.1230  0.6856
  120OSM     O312663   4.905   0.658  10.297 -0.3964 -0.1986  0.5611
  120OSM    HO312664   4.925   0.650  10.391 -3.3252 -0.4811  1.2519
  120OSM    C4S12665   5.023   0.778  10.119  0.0048  0.3178  0.3510
  120OSM    H4S12666   5.062   0.876  10.086  0.3344 -0.7086 -2.6309
  120OSM    C5S12667   5.026   0.679  10.026  0.1592 -0.5000  0.3364
  120OSM    H5S12668   5.000   0.580  10.066 -0.7953  0.1476  1.3579
  120OSM    C6S12669   5.063   0.689   9.878 -0.1375  0.4337  0.4704
  120OSM    H6S12670   4.959   0.680   9.839 -0.2223 -0.1653  0.8349
  120OSM    H6T12671   5.121   0.603   9.839  0.2387  0.2472  1.4280
  120OSM    C7S12672   5.115   0.819   9.817 -0.0983 -0.0038  0.2160
  120OSM    H7S12673   5.204   0.861   9.867 -0.8810  0.0175  1.6673
  120OSM    H7T12674   5.038   0.898   9.832 -3.2191 -3.2047  2.9437
  120OSM    C8S12675   5.147   0.804   9.660 -0.1646 -0.2607 -0.5644
  120OSM    H8S12676   5.240   0.746   9.639 -1.0554 -1.5386 -1.0715
  120OSM    H8T12677   5.156   0.905   9.615  0.9717 -0.3078 -0.4778
  120OSM    C9S12678   5.038   0.735   9.582 -0.2648 -0.2438  0.0350
  120OSM    H9S12679   4.938   0.778   9.604  0.1936  0.7234  0.2588
  120OSM    H9T12680   5.028   0.626   9.605 -0.8628 -0.2348 -0.1747
  120OSM   C10S12681   5.048   0.754   9.433 -0.5658 -0.2570  0.3735
  120OSM   H10S12682   4.961   0.701   9.389  1.1982 -1.8362 -1.4284
  120OSM   H10T12683   5.147   0.710   9.409 -0.2962  0.1354  0.7579
  120OSM   C11S12684   5.032   0.901   9.384 -1.3663 -0.8648 -0.2378
  120OSM   H11S12685   5.123   0.961   9.406 -1.5026 -1.0691  0.9350
  120OSM   H11T12686   4.947   0.954   9.433 -2.4868 -2.6402 -0.1904
  120OSM   C12S12687   4.984   0.906   9.228 -0.2355 -0.2504  0.0133
  120OSM   H12S12688   4.979   1.009   9.186  3.7804  0.3890  0.6896
  120OSM   H12T12689   4.885   0.860   9.214 -0.2619  0.3233 -1.9164
  120OSM   C13S12690   5.070   0.825   9.125  0.3431  0.1900  0.2248
  120OSM   H13S12691   5.062   0.716   9.146 -0.0377  0.5543  2.1436
  120OSM   H13T12692   5.176   0.847   9.148  0.9760 -0.6047 -1.7181
  120OSM   C14S12693   5.029   0.865   8.984  0.0742 -0.8226 -0.2452
  120OSM   H14S12694   5.039   0.975   8.983 -0.1624 -0.7938 -1.6585
  120OSM   H14T12695   4.921   0.841   8.976 -0.5693  0.9729  2.1157
  120OSM   C15S12696   5.113   0.810   8.866  0.0282  0.1924  0.1221
  120OSM   H15S12697   5.055   0.836   8.775  0.8087  1.1672 -0.1252
  120OSM   H15T12698   5.121   0.700   8.876 -0.7219  0.0215 -0.9933
  120OSM   C16S12699   5.252   0.879   8.858 -0.8608 -0.0028  0.3829
  120OSM   H16S12700   5.302   0.856   8.954 -0.8627 -0.1585  0.3465
  120OSM   H16T12701   5.250   0.988   8.838  0.0388  0.2160  1.4364
  120OSM   C17S12702   5.335   0.812   8.746 -0.6912 -0.4743  0.4144
  120OSM   H17S12703   5.311   0.866   8.652 -0.8550 -0.4113  0.4937
  120OSM   H17T12704   5.308   0.705   8.734 -2.3301 -0.1233  0.8306
  120OSM   C18S12705   5.485   0.835   8.779  0.1187  0.2989 -0.1296
  120OSM   H18S12706   5.527   0.918   8.718 -1.1824  1.6527  0.7517
  120OSM   H18T12707   5.539   0.745   8.741  0.1265  1.0615 -2.0700
  120OSM   H18U12708   5.511   0.849   8.885 -1.6080 -1.8804  0.6845
  120OSM    C1F12709   5.332   0.878  10.380 -0.4615 -0.3440 -0.2993
  120OSM     OF12710   5.377   0.774  10.417 -0.2275 -0.2338 -1.1014
  120OSM    C2F12711   5.412   1.002  10.376 -0.3952  0.3967 -0.4370
  120OSM    H2F12712   5.459   1.010  10.476 -3.4848 -2.6722  1.4998
  120OSM    H2G12713   5.340   1.084  10.356 -1.3888 -0.9873 -3.0020
  120OSM    C3F12714   5.523   0.988  10.267 -0.9108  0.7550 -0.4332
  120OSM    H3F12715   5.577   0.891  10.275  0.0081  1.3864  2.0294
  120OSM    H3G12716   5.595   1.071  10.284  3.2326 -2.4310 -0.7511
  120OSM    C4F12717   5.482   0.999  10.121  0.1468  0.2993 -0.5659
  120OSM    H4F12718   5.423   1.092  10.106  1.5001  1.0137 -1.7750
  120OSM    H4G12719   5.414   0.915  10.097 -0.6296  0.9294 -0.5974
  120OSM    C5F12720   5.593   0.997  10.013  0.3577 -0.4457 -0.4130
  120OSM    H5F12721   5.630   0.892  10.013 -0.6513 -0.8228  0.8847
  120OSM    H5G12722   5.678   1.066  10.034 -0.9939  1.1339  0.0543
  120OSM    C6F12723   5.546   1.049   9.883 -0.8566  0.2532 -0.4745
  120OSM    H6F12724   5.531   1.158   9.891  0.2966  0.4143 -0.3282
  120OSM    H6G12725   5.454   0.991   9.858 -0.2395 -0.8822 -0.1991
  120OSM    C7F12726   5.638   1.028   9.768 -0.3857  0.2812  0.2674
  120OSM    H7F12727   5.667   0.922   9.748  1.5930  0.9517 -0.7677
  120OSM    H7G12728   5.739   1.069   9.790 -1.1101  1.7553  1.0057
  120OSM    C8F12729   5.594   1.091   9.632 -0.5165  0.2083 -0.3346
  120OSM    H8F12730   5.683   1.112   9.569  0.4105  0.5125  1.0386
  120OSM    H8G12731   5.560   1.197   9.641 -0.0660  0.1876  2.4038
  120OSM    C9F12732   5.482   1.021   9.560  0.1344  0.7139  0.2530
  120OSM    H9F12733   5.403   0.974   9.621  0.3848 -1.3761 -0.9287
  120OSM   C10F12734   5.468   1.007   9.427 -0.0863  0.1526 -0.3121
  120OSM   H10F12735   5.383   0.954   9.382  0.7391  2.4178 -5.2443
  120OSM   C11F12736   5.565   1.064   9.318 -0.0659  1.1752 -0.3450
  120OSM   H11F12737   5.573   0.993   9.233  0.9554  1.3286 -0.3849
  120OSM   H11G12738   5.665   1.093   9.357 -0.2608 -0.5691  1.6928
  120OSM   C12F12739   5.509   1.172   9.231 -0.1498  0.6992 -0.4069
  120OSM   H12F12740   5.470   1.247   9.303  2.7742  0.6076  1.4100
  120OSM   H12G12741   5.414   1.138   9.183 -0.4580  3.0776 -1.6398
  120OSM   C13F12742   5.606   1.222   9.125  0.1924  0.1991  0.1026
  120OSM   H13F12743   5.692   1.273   9.173  1.3940 -0.3136 -1.4012
  120OSM   H13G12744   5.550   1.308   9.083  2.4481  1.1050 -1.2180
  120OSM   C14F12745   5.635   1.134   9.007 -0.0211  0.5397  0.2259
  120OSM   H14F12746   5.537   1.106   8.962 -0.2569  0.5719  0.7131
  120OSM   H14G12747   5.696   1.044   9.031 -0.1293  0.1939 -0.7735
  120OSM   C15F12748   5.724   1.200   8.892  0.6788  0.9162 -0.0440
  120OSM   H15F12749   5.678   1.299   8.873 -1.8365 -0.2783 -0.7229
  120OSM   H15G12750   5.706   1.139   8.801  0.8659  1.3940 -0.4075
  120OSM   C16F12751   5.867   1.227   8.921  0.0127 -0.4210 -0.0695
  120OSM   H16F12752   5.919   1.131   8.936  0.7020  0.4014  3.6958
  120OSM   H16G12753   5.882   1.270   9.022  0.8294 -1.6695  0.3518
  120OSM   C17F12754   5.916   1.326   8.818  0.3641 -0.7323  0.0781
  120OSM   H17F12755   5.861   1.421   8.838  0.0486 -1.1353  1.1983
  120OSM   H17G12756   5.876   1.295   8.719 -2.3571  0.5373  0.6729
  120OSM   C18F12757   6.064   1.352   8.827  0.4763 -0.1708  0.3500
  120OSM   H18F12758   6.094   1.411   8.738  0.9800  1.5493  1.6064
  120OSM   H18G12759   6.113   1.254   8.808  1.3202  0.2909  0.0751
  120OSM   H18H12760   6.097   1.392   8.925 -0.2414  1.1509  0.0739
  121OSM      N12761   2.129   3.977  11.152  0.1311 -0.7655  0.1750
  121OSM    C1512762   2.030   3.944  11.045  0.1132 -0.1252  0.5432
  121OSM   H15A12763   1.929   3.942  11.084 -0.4770 -0.1713 -0.9212
  121OSM   H15B12764   2.056   3.853  10.994  2.2050  1.1890 -0.8686
  121OSM   H15C12765   2.022   4.025  10.973 -0.9680 -1.9054 -1.4670
  121OSM    C1412766   2.115   4.109  11.215 -0.0593 -0.1804  0.2167
  121OSM   H14A12767   2.124   4.194  11.150 -0.2807  0.0306  0.4572
  121OSM   H14B12768   2.192   4.123  11.290 -0.8735  0.1737  1.0094
  121OSM   H14C12769   2.019   4.129  11.262 -0.2460 -2.2777  0.8638
  121OSM    C1312770   2.125   3.868  11.256 -0.4537 -0.0950  0.0964
  121OSM   H13A12771   2.025   3.828  11.265 -0.7933  0.8104  0.4180
  121OSM   H13B12772   2.150   3.905  11.354  0.7739 -1.8458  0.4964
  121OSM   H13C12773   2.187   3.784  11.227 -0.8497 -0.0418 -0.9508
  121OSM    C1212774   2.264   3.972  11.083 -0.8597  0.0983 -0.5918
  121OSM   H12A12775   2.338   3.983  11.162 -1.4497  0.3992 -0.0778
  121OSM   H12B12776   2.275   4.061  11.022  0.3539 -1.3905 -2.6556
  121OSM    C1112777   2.313   3.851  11.002 -0.1259 -0.3995  0.5080
  121OSM   H11A12778   2.393   3.890  10.934 -0.6670  2.0391  1.1873
  121OSM   H11B12779   2.235   3.826  10.927  0.0834 -1.9528  0.7641
  121OSM      P12780   2.498   3.748  11.132  0.1004 -0.8682  0.2022
  121OSM    O1312781   2.533   3.890  11.157 -0.7033 -0.1422  0.3560
  121OSM    O1412782   2.505   3.648  11.241  0.2318  0.4530 -0.3924
  121OSM    O1112783   2.590   3.699  11.010  0.4669  0.0391 -0.4385
  121OSM    O1212784   2.353   3.741  11.076  0.0138  0.4725  0.5360
  121OSM    C1S12785   2.534   3.613  10.909  0.1181  0.4513  0.5920
  121OSM    H1S12786   2.431   3.644  10.880  0.7102 -0.6844 -3.1691
  121OSM    H1T12787   2.505   3.514  10.950 -1.6041  0.5422 -0.3041
  121OSM     NF12788   2.594   3.506  10.697 -0.0530  0.3119 -0.3627
  121OSM    HNF12789   2.630   3.413  10.706 -2.1707 -0.8427 -2.6459
  121OSM    C2S12790   2.637   3.611  10.790  0.7523 -0.3052 -0.6104
  121OSM    H2S12791   2.630   3.710  10.739 -0.0288 -0.1015 -0.1238
  121OSM    C3S12792   2.785   3.593  10.825  0.3787 -0.2453  0.2387
  121OSM    H3S12793   2.805   3.492  10.867 -1.5569 -0.2572  1.2339
  121OSM     O312794   2.836   3.673  10.927  0.0735 -0.5459 -0.1109
  121OSM    HO312795   2.758   3.718  10.959 -1.7194 -2.6798 -1.1936
  121OSM    C4S12796   2.868   3.607  10.698  0.2951  0.0687 -0.2866
  121OSM    H4S12797   2.905   3.512  10.656 -0.3659  0.2239 -1.2561
  121OSM    C5S12798   2.923   3.718  10.645  0.2630 -0.1332 -0.3093
  121OSM    H5S12799   2.889   3.812  10.691  0.4740 -0.0304 -0.3661
  121OSM    C6S12800   3.011   3.735  10.530 -0.1139 -0.0378 -0.6570
  121OSM    H6S12801   3.097   3.792  10.572  0.5763 -1.4903 -0.0497
  121OSM    H6T12802   2.956   3.808  10.466 -0.1865  2.2859  1.8468
  121OSM    C7S12803   3.050   3.617  10.445 -0.0203 -0.4040 -0.3336
  121OSM    H7S12804   2.956   3.566  10.415 -0.4805  0.2308  0.0068
  121OSM    H7T12805   3.098   3.544  10.512 -0.3085 -0.2888  0.0052
  121OSM    C8S12806   3.126   3.655  10.319 -0.7845  0.2300  0.4448
  121OSM    H8S12807   3.231   3.681  10.345 -0.8575  1.4812 -0.4136
  121OSM    H8T12808   3.091   3.744  10.262  0.6124 -1.1950 -2.9139
  121OSM    C9S12809   3.115   3.548  10.211 -0.7068 -0.6537  0.3360
  121OSM    H9S12810   3.010   3.517  10.194 -0.1831 -1.8715 -0.8473
  121OSM    H9T12811   3.174   3.463  10.252  3.6559  3.0011  2.5461
  121OSM   C10S12812   3.184   3.589  10.078 -0.0441  0.6117  0.5326
  121OSM   H10S12813   3.295   3.591  10.079  0.0357 -1.4647 -0.2293
  121OSM   H10T12814   3.147   3.690  10.048 -0.2077  0.1663 -0.8202
  121OSM   C11S12815   3.151   3.490   9.964 -0.3155  0.0905  0.3819
  121OSM   H11S12816   3.040   3.485   9.956 -0.4455  0.5714  1.5702
  121OSM   H11T12817   3.190   3.389   9.993  0.8659  0.0975 -1.0768
  121OSM   C12S12818   3.228   3.531   9.834  0.6014  0.0544  0.0569
  121OSM   H12S12819   3.338   3.521   9.848  0.4017 -0.2856  1.6185
  121OSM   H12T12820   3.205   3.636   9.807 -1.7778 -0.6334 -0.8337
  121OSM   C13S12821   3.184   3.434   9.721 -0.6273 -0.5438 -0.4238
  121OSM   H13S12822   3.082   3.468   9.695  0.0855  0.1699 -2.4794
  121OSM   H13T12823   3.196   3.335   9.771 -0.7961 -0.6520 -0.5983
  121OSM   C14S12824   3.281   3.445   9.606 -0.3555  0.5607  0.1960
  121OSM   H14S12825   3.378   3.396   9.625  0.7018  2.0369 -1.1153
  121OSM   H14T12826   3.308   3.549   9.576  1.1220 -0.3298 -1.8296
  121OSM   C15S12827   3.213   3.377   9.483 -0.5077 -0.0945 -0.6201
  121OSM   H15S12828   3.124   3.437   9.453 -0.2845 -0.5959 -2.4196
  121OSM   H15T12829   3.170   3.281   9.518  1.4290 -0.7040  0.2134
  121OSM   C16S12830   3.311   3.350   9.361  0.2162  0.1868  0.0914
  121OSM   H16S12831   3.395   3.289   9.400  0.9059 -0.0011 -1.6223
  121OSM   H16T12832   3.348   3.452   9.337 -0.4471  1.3538  3.4257
  121OSM   C17S12833   3.246   3.294   9.232  0.0319 -0.6226 -0.3015
  121OSM   H17S12834   3.199   3.196   9.255  0.8838 -0.4423  2.5756
  121OSM   H17T12835   3.320   3.274   9.152  0.9597  1.1183  0.0721
  121OSM   C18S12836   3.133   3.382   9.186  0.1483  0.1995  0.6173
  121OSM   H18S12837   3.160   3.489   9.176  1.4568 -0.1761 -0.0635
  121OSM   H18T12838   3.044   3.375   9.252  0.2863  0.7856  0.8687
  121OSM   H18U12839   3.102   3.341   9.087  0.9408  1.5142 -0.1956
  121OSM    C1F12840   2.479   3.501  10.626 -0.4511 -0.3890 -0.0899
  121OSM     OF12841   2.407   3.602  10.620 -0.4503 -0.1708 -0.1427
  121OSM    C2F12842   2.439   3.371  10.558 -0.0825  0.3844  0.7118
  121OSM    H2F12843   2.479   3.287  10.619 -0.8405 -0.3853  0.1813
  121OSM    H2G12844   2.493   3.347  10.464 -0.2968  0.5698  0.5397
  121OSM    C3F12845   2.289   3.366  10.518  0.3892  0.7413  0.3886
  121OSM    H3F12846   2.261   3.460  10.467  0.2359 -0.1009 -1.1256
  121OSM    H3G12847   2.221   3.361  10.606 -1.8979 -0.5842 -1.3422
  121OSM    C4F12848   2.276   3.243  10.417  0.2572 -0.0328 -0.0713
  121OSM    H4F12849   2.305   3.152  10.474 -4.6537 -1.3732  0.7514
  121OSM    H4G12850   2.324   3.256  10.317 -1.3462 -4.5746 -1.6890
  121OSM    C5F12851   2.125   3.216  10.380 -0.2985  0.0546 -0.1587
  121OSM    H5F12852   2.062   3.199  10.470 -1.2774 -1.3663 -1.0746
  121OSM    H5G12853   2.126   3.126  10.315 -0.0139 -0.3209  0.3549
  121OSM    C6F12854   2.055   3.329  10.295 -0.3222  0.0962 -0.8175
  121OSM    H6F12855   2.104   3.427  10.313  2.3196 -1.2742 -0.0253
  121OSM    H6G12856   1.947   3.345  10.317  0.2444  0.9220  1.7783
  121OSM    C7F12857   2.060   3.297  10.147  0.1530 -0.2064 -0.1339
  121OSM    H7F12858   2.001   3.380  10.101 -0.5968  0.8965  2.5981
  121OSM    H7G12859   2.008   3.200  10.132  2.7518 -1.7810  0.4923
  121OSM    C8F12860   2.194   3.289  10.068  0.1946  0.0616  1.0132
  121OSM    H8F12861   2.154   3.255   9.970  1.7006  0.0242  0.3717
  121OSM    H8G12862   2.254   3.204  10.108  0.1295 -1.4378 -1.7962
  121OSM    C9F12863   2.275   3.415  10.054 -0.1233  0.0233 -0.1334
  121OSM    H9F12864   2.293   3.458  10.154 -1.1665 -1.3209  0.6713
  121OSM   C10F12865   2.305   3.475   9.936 -0.3086 -0.0629 -0.4765
  121OSM   H10F12866   2.347   3.576   9.952 -0.3895 -0.5301  4.0603
  121OSM   C11F12867   2.266   3.430   9.797  0.1068 -0.4591  0.6021
  121OSM   H11F12868   2.158   3.453   9.783  0.1511  1.5517  2.8463
  121OSM   H11G12869   2.287   3.322   9.780  1.2334 -0.0514 -0.7864
  121OSM   C12F12870   2.336   3.512   9.685  0.0578 -0.6525  0.0879
  121OSM   H12F12871   2.442   3.478   9.687 -0.1920 -1.4484  0.4456
  121OSM   H12G12872   2.337   3.620   9.709  0.8417 -0.8343  0.9468
  121OSM   C13F12873   2.297   3.480   9.538  1.2862 -0.1851  0.1587
  121OSM   H13F12874   2.192   3.513   9.521  0.4281 -2.7552  0.0837
  121OSM   H13G12875   2.290   3.369   9.531 -1.9174 -0.2264  2.0074
  121OSM   C14F12876   2.391   3.545   9.433  0.2109 -0.6976  0.6763
  121OSM   H14F12877   2.494   3.513   9.458  0.7485  1.5171  1.5567
  121OSM   H14G12878   2.383   3.656   9.439  0.5379 -0.6296 -0.0724
  121OSM   C15F12879   2.365   3.511   9.286 -0.1561 -0.2381 -0.1968
  121OSM   H15F12880   2.356   3.402   9.263 -1.2490 -0.0314 -0.8586
  121OSM   H15G12881   2.458   3.541   9.233  0.1031 -2.3142 -1.0504
  121OSM   C16F12882   2.251   3.594   9.222  0.2996  0.2348 -0.2985
  121OSM   H16F12883   2.275   3.702   9.231 -0.7357  0.3477  1.7083
  121OSM   H16G12884   2.168   3.579   9.295  0.9758  2.9359  1.1648
  121OSM   C17F12885   2.215   3.558   9.078  0.0516 -0.5343 -0.1748
  121OSM   H17F12886   2.118   3.606   9.052  1.1244  1.5034 -0.6546
  121OSM   H17G12887   2.199   3.449   9.090  1.0373 -0.4214  3.4626
  121OSM   C18F12888   2.315   3.597   8.970 -0.5816  0.0701 -0.1778
  121OSM   H18F12889   2.300   3.548   8.872 -1.7575  0.8378 -0.4078
  121OSM   H18G12890   2.419   3.573   9.000  0.0496  2.2837 -0.3826
  121OSM   H18H12891   2.316   3.707   8.955  2.6161  0.1846  0.2017
  122OSM      N12892   4.232   2.322  11.096 -0.0138  0.5437  0.7608
  122OSM    C1512893   4.151   2.392  11.203 -0.5035 -0.3076 -0.6630
  122OSM   H15A12894   4.077   2.323  11.242 -2.5704  0.1423 -3.4754
  122OSM   H15B12895   4.101   2.480  11.167  1.2848  0.4698 -1.3597
  122OSM   H15C12896   4.214   2.438  11.277  1.8809 -0.8106 -2.2672
  122OSM    C1412897   4.296   2.199  11.152  0.2292  0.4947 -0.1411
  122OSM   H14A12898   4.320   2.136  11.067  2.3419  0.8329  0.1622
  122OSM   H14B12899   4.242   2.150  11.231  0.1430  1.1848  0.2396
  122OSM   H14C12900   4.389   2.216  11.204 -0.1509 -2.5772  1.7484
  122OSM    C1312901   4.119   2.272  11.005 -0.4420  0.3064  0.5998
  122OSM   H13A12902   4.133   2.180  10.949 -3.2934  0.5236 -0.6803
  122OSM   H13B12903   4.089   2.357  10.946  0.5290  1.9191  2.3592
  122OSM   H13C12904   4.032   2.257  11.068 -0.3813 -2.1213  0.2017
  122OSM    C1212905   4.330   2.412  11.033 -0.4315  0.2113  0.1368
  122OSM   H12A12906   4.384   2.364  10.952  0.3310 -1.1063  1.3888
  122OSM   H12B12907   4.409   2.438  11.102 -0.0275 -0.5209 -0.0407
  122OSM    C1112908   4.282   2.541  10.969 -0.0933 -0.0195  0.0510
  122OSM   H11A12909   4.368   2.607  10.943  0.8755 -0.4494  2.0269
  122OSM   H11B12910   4.225   2.605  11.040  1.0455  0.4077  0.6102
  122OSM      P12911   4.151   2.616  10.758 -0.3250 -0.1012 -0.0665
  122OSM    O1312912   4.096   2.565  10.632 -0.3175  0.4175 -0.6561
  122OSM    O1412913   4.056   2.683  10.847 -0.0584  0.4147  0.4070
  122OSM    O1112914   4.270   2.710  10.730 -0.0705  0.0517  0.6287
  122OSM    O1212915   4.212   2.503  10.848 -0.2537 -0.3971 -0.1340
  122OSM    C1S12916   4.395   2.670  10.670 -0.0849 -0.2263  0.5174
  122OSM    H1S12917   4.425   2.565  10.690 -1.5807 -0.8302 -0.2298
  122OSM    H1T12918   4.478   2.728  10.716 -1.9633  0.1764  3.7269
  122OSM     NF12919   4.514   2.616  10.463  0.3172 -0.4284  0.2542
  122OSM    HNF12920   4.591   2.675  10.440 -0.2504 -0.8067 -3.1918
  122OSM    C2S12921   4.399   2.691  10.514 -0.6171 -0.4153  0.3918
  122OSM    H2S12922   4.309   2.637  10.479  0.3723 -1.4214 -0.6885
  122OSM    C3S12923   4.403   2.839  10.467  0.3092 -0.4651 -0.4438
  122OSM    H3S12924   4.487   2.904  10.499 -0.6301  0.5254  0.0800
  122OSM     O312925   4.289   2.916  10.521  0.0881 -0.1621  0.0359
  122OSM    HO312926   4.253   2.859  10.590 -3.1418 -0.3868 -1.6497
  122OSM    C4S12927   4.411   2.840  10.320 -0.7247  0.5527 -0.1483
  122OSM    H4S12928   4.516   2.818  10.297 -0.5345 -0.3908  1.4656
  122OSM    C5S12929   4.315   2.861  10.232 -0.2007  0.4351 -0.6144
  122OSM    H5S12930   4.212   2.857  10.270  0.6722 -1.9340  1.7719
  122OSM    C6S12931   4.328   2.843  10.085 -0.4360 -0.4705 -0.3277
  122OSM    H6S12932   4.299   2.942  10.043 -0.9347 -0.3736  0.2331
  122OSM    H6T12933   4.262   2.761  10.050  0.0760 -0.9074 -0.2766
  122OSM    C7S12934   4.469   2.805  10.039  0.1887 -0.2459 -0.1960
  122OSM    H7S12935   4.511   2.725  10.104 -0.2645 -0.6628 -0.4161
  122OSM    H7T12936   4.538   2.892  10.051  2.0178 -1.6483 -0.0578
  122OSM    C8S12937   4.474   2.770   9.890  0.0357  0.8343  0.0343
  122OSM    H8S12938   4.421   2.845   9.827 -2.9568 -2.1088 -1.2788
  122OSM    H8T12939   4.415   2.678   9.873  0.7256  0.1946  1.0102
  122OSM    C9S12940   4.618   2.737   9.844  0.2940  0.0956  0.3445
  122OSM    H9S12941   4.660   2.644   9.888  1.4143  1.0971  1.4635
  122OSM    H9T12942   4.685   2.820   9.874  2.0794 -1.4366  0.7874
  122OSM   C10S12943   4.625   2.736   9.685 -0.0798  0.5132 -0.1820
  122OSM   H10S12944   4.596   2.838   9.653 -2.4023 -0.3447 -1.0497
  122OSM   H10T12945   4.553   2.655   9.658 -0.0323 -0.1877  1.6155
  122OSM   C11S12946   4.763   2.690   9.648  0.5793  0.4032  0.1960
  122OSM   H11S12947   4.769   2.585   9.682  1.1270  0.3949  0.0952
  122OSM   H11T12948   4.833   2.753   9.707  0.0403  0.1560  1.1144
  122OSM   C12S12949   4.800   2.690   9.500  0.6069  0.2065  0.1644
  122OSM   H12S12950   4.907   2.662   9.495  0.8145  1.0909 -0.6306
  122OSM   H12T12951   4.783   2.799   9.482 -1.5843 -0.3282 -1.4035
  122OSM   C13S12952   4.701   2.614   9.417 -0.4545  0.0459 -0.2651
  122OSM   H13S12953   4.596   2.644   9.440 -0.6133 -0.7459  0.0715
  122OSM   H13T12954   4.714   2.508   9.446 -2.5392 -0.0128  0.6376
  122OSM   C14S12955   4.735   2.642   9.276  0.1223  0.4562 -0.2082
  122OSM   H14S12956   4.839   2.608   9.257 -0.3067 -1.1727  0.2353
  122OSM   H14T12957   4.734   2.752   9.259 -6.2934  0.6709 -0.9867
  122OSM   C15S12958   4.636   2.569   9.188  0.4586  0.0022  0.2237
  122OSM   H15S12959   4.533   2.609   9.196 -0.1993 -1.3161 -1.0423
  122OSM   H15T12960   4.631   2.459   9.206 -0.2867  0.4736  3.5079
  122OSM   C16S12961   4.664   2.582   9.038  0.0671 -0.9518 -0.6688
  122OSM   H16S12962   4.587   2.514   8.995 -3.4381  0.7026  2.4184
  122OSM   H16T12963   4.767   2.549   9.014 -0.2459 -0.5868 -2.6891
  122OSM   C17S12964   4.650   2.725   9.003 -0.0347 -0.1097 -0.3049
  122OSM   H17S12965   4.715   2.774   9.078 -0.0371 -2.1289  1.1060
  122OSM   H17T12966   4.550   2.753   9.042 -0.2023 -2.0209  0.7712
  122OSM   C18S12967   4.670   2.779   8.864 -0.3261 -0.1906  0.3926
  122OSM   H18S12968   4.590   2.740   8.797  1.0910 -0.4550 -1.2275
  122OSM   H18T12969   4.761   2.745   8.809  0.8081  0.9132  1.5191
  122OSM   H18U12970   4.655   2.889   8.864  1.9134  0.2187 -1.9877
  122OSM    C1F12971   4.522   2.485  10.438  0.2237  0.6401  0.3011
  122OSM     OF12972   4.422   2.419  10.449  0.2148 -0.0081  0.3808
  122OSM    C2F12973   4.660   2.436  10.399  0.3397 -0.2049 -0.6226
  122OSM    H2F12974   4.694   2.383  10.491 -0.8642 -0.8338 -0.5282
  122OSM    H2G12975   4.714   2.533  10.392 -0.8530  0.6372  1.0889
  122OSM    C3F12976   4.654   2.334  10.288 -0.6602  0.1227 -0.8373
  122OSM    H3F12977   4.594   2.245  10.318 -1.4429  1.1861  0.9232
  122OSM    H3G12978   4.753   2.289  10.264 -0.7126  0.5387 -1.8800
  122OSM    C4F12979   4.602   2.392  10.155 -0.5102 -0.5801  0.0522
  122OSM    H4F12980   4.652   2.491  10.150 -0.0156 -0.6818  2.2711
  122OSM    H4G12981   4.491   2.402  10.154 -0.4688  0.6806  2.3274
  122OSM    C5F12982   4.643   2.308  10.031  0.6954 -0.7154 -0.0947
  122OSM    H5F12983   4.596   2.211  10.056  2.0320 -0.6356  3.2359
  122OSM    H5G12984   4.752   2.303  10.010  1.0279 -1.3959  1.6519
  122OSM    C6F12985   4.571   2.355   9.902  0.2506 -0.0006 -1.0994
  122OSM    H6F12986   4.633   2.368   9.810  0.1376 -0.0224 -1.1781
  122OSM    H6G12987   4.526   2.454   9.923  1.5297  0.1599  1.1553
  122OSM    C7F12988   4.453   2.262   9.851 -0.0923  0.4195 -0.5209
  122OSM    H7F12989   4.381   2.271   9.936 -0.9619 -2.7561 -0.8024
  122OSM    H7G12990   4.498   2.161   9.837 -0.2258  0.7448 -4.1960
  122OSM    C8F12991   4.384   2.315   9.724 -0.3735  0.2864 -0.4672
  122OSM    H8F12992   4.351   2.421   9.721 -0.4001  0.3344  0.7975
  122OSM    H8G12993   4.284   2.267   9.735  0.2448 -0.4400  3.3213
  122OSM    C9F12994   4.453   2.270   9.594 -0.2132  0.0011  0.4585
  122OSM    H9F12995   4.530   2.193   9.611  1.5743  2.3370  4.3801
  122OSM   C10F12996   4.431   2.315   9.467 -1.3341 -0.7889 -0.3225
  122OSM   H10F12997   4.485   2.277   9.378 -1.9932  2.7066 -2.4085
  122OSM   C11F12998   4.338   2.429   9.433 -0.2459 -0.8977  0.8319
  122OSM   H11F12999   4.407   2.511   9.402 -2.7965  0.4197 -1.8173
  122OSM   H11G13000   4.279   2.463   9.521 -1.2079 -0.3874  0.0162
  122OSM   C12F13001   4.237   2.419   9.317  0.4594  0.1590  0.6156
  122OSM   H12F13002   4.173   2.510   9.326  1.5512  0.7238  3.8999
  122OSM   H12G13003   4.182   2.325   9.336  1.1125 -1.0167 -2.6465
  122OSM   C13F13004   4.290   2.410   9.171  0.6983 -0.7628 -0.0750
  122OSM   H13F13005   4.339   2.312   9.157  1.0143 -0.8162  1.2127
  122OSM   H13G13006   4.362   2.495   9.169 -2.4452  2.1493  0.3051
  122OSM   C14F13007   4.176   2.407   9.063 -0.2626  0.5203 -0.3806
  122OSM   H14F13008   4.104   2.490   9.081 -2.5755 -1.9688  3.5427
  122OSM   H14G13009   4.119   2.312   9.077  0.2685  0.1563 -0.6712
  122OSM   C15F13010   4.233   2.403   8.924 -0.0801  0.5632 -0.9492
  122OSM   H15F13011   4.302   2.317   8.914  0.0421  0.5284  0.1142
  122OSM   H15G13012   4.302   2.489   8.916  5.2188 -3.2087 -0.8978
  122OSM   C16F13013   4.123   2.402   8.815 -0.8293 -0.0287 -0.6967
  122OSM   H16F13014   4.043   2.461   8.864  1.9314  2.4038  1.2052
  122OSM   H16G13015   4.075   2.302   8.809  0.7521 -0.9621  1.2603
  122OSM   C17F13016   4.165   2.469   8.686 -0.2168 -0.1244 -0.5182
  122OSM   H17F13017   4.174   2.579   8.703 -0.0226 -0.1914 -0.1882
  122OSM   H17G13018   4.086   2.462   8.607  1.3097 -0.2149 -2.1029
  122OSM   C18F13019   4.300   2.430   8.632  0.9222  0.7722  0.0108
  122OSM   H18F13020   4.333   2.513   8.566  1.1906  0.6308 -0.0366
  122OSM   H18G13021   4.298   2.334   8.575  0.9157  1.7898 -1.7583
  122OSM   H18H13022   4.373   2.403   8.712 -0.2321 -1.0233  0.5134
  123OSM      N13023   0.275   0.677   6.325 -0.1361  0.2736  0.1638
  123OSM    C1513024   0.207   0.553   6.278  0.4980 -0.8283  0.4100
  123OSM   H15A13025   0.108   0.568   6.238 -1.2714 -0.6840  4.3702
  123OSM   H15B13026   0.187   0.492   6.365  0.2343 -2.2808 -0.6402
  123OSM   H15C13027   0.264   0.489   6.213  0.5504  0.1001 -0.4887
  123OSM    C1413028   0.374   0.635   6.433  0.0416  0.0016  0.3244
  123OSM   H14A13029   0.440   0.559   6.392  0.7676  1.5802 -1.5919
  123OSM   H14B13030   0.333   0.595   6.524  0.4464  0.9621  0.9449
  123OSM   H14C13031   0.439   0.720   6.450  1.6921 -0.6246 -2.2369
  123OSM    C1313032   0.348   0.749   6.218 -0.1814  0.3656 -0.1223
  123OSM   H13A13033   0.272   0.784   6.149 -0.0311  0.1501 -0.3983
  123OSM   H13B13034   0.426   0.689   6.174 -0.3258 -0.1060  0.2692
  123OSM   H13C13035   0.389   0.843   6.252 -0.2773  0.1997  0.4549
  123OSM    C1213036   0.166   0.759   6.392  0.1899 -0.6836  0.2981
  123OSM   H12A13037   0.203   0.848   6.441  0.6908 -0.7824  0.1051
  123OSM   H12B13038   0.123   0.699   6.471  0.6731  0.3550  1.3692
  123OSM    C1113039   0.060   0.823   6.302 -0.1051 -0.2471  0.3302
  123OSM   H11A13040  -0.014   0.869   6.372 -0.3269 -0.2926  0.1275
  123OSM   H11B13041   0.009   0.749   6.237  0.9381 -2.0244  1.4629
  123OSM      P13042   0.166   1.066   6.250  0.3159 -0.1902 -0.1197
  123OSM    O1313043   0.302   1.078   6.193 -0.1348  0.2827  0.4999
  123OSM    O1413044   0.068   1.161   6.201  0.7353 -0.1972  0.0149
  123OSM    O1113045   0.184   1.068   6.405 -0.6316 -0.5133 -0.5137
  123OSM    O1213046   0.122   0.919   6.213  0.0305 -0.2770 -0.5692
  123OSM    C1S13047   0.241   1.195   6.448  0.2243  0.0377 -0.5731
  123OSM    H1S13048   0.167   1.273   6.417 -0.1142 -1.9489 -5.7881
  123OSM    H1T13049   0.338   1.227   6.404 -1.0242  3.1520 -1.3448
  123OSM     NF13050   0.295   1.334   6.648  0.9339 -0.0097 -0.0849
  123OSM    HNF13051   0.383   1.376   6.627  0.1834  1.3464 -0.6804
  123OSM    C2S13052   0.272   1.194   6.600 -0.8424 -0.5074  0.3679
  123OSM    H2S13053   0.180   1.161   6.653 -0.8329  0.8805  1.2994
  123OSM    C3S13054   0.392   1.097   6.622  0.1888 -0.2623 -0.2087
  123OSM    H3S13055   0.470   1.111   6.543 -1.2844  0.3392 -1.6224
  123OSM     O313056   0.353   0.961   6.619  0.2624 -0.2931 -0.4543
  123OSM    HO313057   0.262   0.967   6.591 -0.0283  1.5018  0.6709
  123OSM    C4S13058   0.436   1.124   6.765  0.2058 -0.6216 -0.3129
  123OSM    H4S13059   0.375   1.068   6.838  1.2044  0.2517  1.2518
  123OSM    C5S13060   0.550   1.187   6.804  0.0361 -0.4297 -0.6938
  123OSM    H5S13061   0.626   1.222   6.732  1.6161  1.3089  1.6900
  123OSM    C6S13062   0.591   1.208   6.947  0.6662 -0.0257 -0.3390
  123OSM    H6S13063   0.630   1.311   6.959  0.8108  0.0269 -1.2034
  123OSM    H6T13064   0.670   1.136   6.975  0.6051 -0.0175 -0.1431
  123OSM    C7S13065   0.498   1.182   7.063 -0.1803  0.3963 -0.6983
  123OSM    H7S13066   0.464   1.076   7.062 -2.4175  1.0462 -0.3387
  123OSM    H7T13067   0.400   1.235   7.058 -0.8073 -0.5262  0.9713
  123OSM    C8S13068   0.552   1.204   7.203  0.6782 -0.9924 -0.2397
  123OSM    H8S13069   0.603   1.302   7.211 -1.9371  0.6208 -2.0028
  123OSM    H8T13070   0.633   1.129   7.218 -1.0545 -2.8397  0.3257
  123OSM    C9S13071   0.446   1.194   7.316 -0.4536 -0.0165 -0.0151
  123OSM    H9S13072   0.503   1.149   7.400 -1.0968  1.0291  1.0190
  123OSM    H9T13073   0.367   1.122   7.284 -0.0839 -0.0822 -0.7829
  123OSM   C10S13074   0.389   1.327   7.351 -0.4940  1.1682  0.3026
  123OSM   H10S13075   0.362   1.383   7.259  0.4816  1.0296 -0.0760
  123OSM   H10T13076   0.480   1.369   7.400  1.7325 -1.6159 -1.1505
  123OSM   C11S13077   0.283   1.323   7.464  0.0612  0.4203  0.2627
  123OSM   H11S13078   0.330   1.246   7.528 -1.8786 -1.4884 -0.4870
  123OSM   H11T13079   0.197   1.284   7.406  0.7503  0.2613 -0.6822
  123OSM   C12S13080   0.248   1.455   7.528  0.4995  0.2817 -0.7890
  123OSM   H12S13081   0.214   1.541   7.467  0.2596  0.8797  0.1690
  123OSM   H12T13082   0.342   1.491   7.574 -0.3314 -0.4697  1.6623
  123OSM   C13S13083   0.144   1.440   7.647 -0.6286  1.1851  0.3372
  123OSM   H13S13084   0.206   1.383   7.719  0.8730  2.7121  0.3320
  123OSM   H13T13085   0.058   1.383   7.607 -0.9242  1.3474  0.7290
  123OSM   C14S13086   0.109   1.575   7.716  0.5264 -0.3149 -0.1307
  123OSM   H14S13087   0.032   1.557   7.794  2.0725 -1.7158  1.1583
  123OSM   H14T13088   0.052   1.637   7.644 -0.5841 -2.1323 -0.8783
  123OSM   C15S13089   0.223   1.639   7.796 -0.1512  0.5716  0.2409
  123OSM   H15S13090   0.306   1.675   7.732  1.4039 -0.6946  1.4898
  123OSM   H15T13091   0.281   1.565   7.855  0.4984  1.1325  0.3246
  123OSM   C16S13092   0.181   1.747   7.898  0.1596  0.2305  0.1077
  123OSM   H16S13093   0.099   1.805   7.850 -0.6640 -0.1768  1.0032
  123OSM   H16T13094   0.264   1.814   7.931 -1.7907  2.4568  0.7230
  123OSM   C17S13095   0.122   1.702   8.033  0.7863 -0.2267 -0.0477
  123OSM   H17S13096   0.204   1.681   8.106  0.5258  1.5167  0.7987
  123OSM   H17T13097   0.089   1.601   8.000  0.1960 -0.0838  0.1084
  123OSM   C18S13098   0.024   1.794   8.096  0.1623  0.2543  0.1662
  123OSM   H18S13099  -0.071   1.813   8.043  1.0252 -1.1361 -2.0161
  123OSM   H18T13100   0.079   1.888   8.120 -0.4113  0.7475 -0.4467
  123OSM   H18U13101  -0.004   1.745   8.192 -1.7956 -0.3880 -0.6898
  123OSM    C1F13102   0.197   1.415   6.681 -0.1908 -0.8742 -0.0306
  123OSM     OF13103   0.081   1.380   6.662 -0.4658 -0.6874 -0.0049
  123OSM    C2F13104   0.231   1.546   6.733 -0.5536 -0.2040  0.4511
  123OSM    H2F13105   0.223   1.624   6.654  0.6932 -0.9039 -0.3928
  123OSM    H2G13106   0.330   1.540   6.783 -0.6681 -1.7181  0.5621
  123OSM    C3F13107   0.118   1.601   6.832  0.2187 -0.2161  0.4148
  123OSM    H3F13108   0.021   1.598   6.779  0.8574 -1.2414 -0.7528
  123OSM    H3G13109   0.141   1.708   6.852 -1.2893 -0.2225  2.4840
  123OSM    C4F13110   0.106   1.531   6.968  0.5252 -1.0250  0.0538
  123OSM    H4F13111   0.205   1.510   7.014  1.2084 -0.1341 -0.9597
  123OSM    H4G13112   0.050   1.437   6.951 -0.6069 -0.0269 -2.0550
  123OSM    C5F13113   0.040   1.632   7.060  0.8906  0.0487 -0.3514
  123OSM    H5F13114  -0.053   1.665   7.010  2.0493  1.9102 -1.3915
  123OSM    H5G13115   0.110   1.718   7.064  0.3063  0.6945 -2.6980
  123OSM    C6F13116  -0.012   1.582   7.196  0.6051  0.0012  0.6521
  123OSM    H6F13117   0.049   1.498   7.235  0.7344  0.0389  0.5321
  123OSM    H6G13118  -0.115   1.543   7.181  0.1083  0.6168  2.2409
  123OSM    C7F13119  -0.036   1.694   7.298 -0.1374  0.1433 -0.1226
  123OSM    H7F13120  -0.070   1.791   7.255 -0.6230  0.0929  0.1363
  123OSM    H7G13121   0.064   1.719   7.339  0.0463  2.6246 -1.8814
  123OSM    C8F13122  -0.121   1.654   7.423  0.6763  0.0085 -0.5917
  123OSM    H8F13123  -0.084   1.712   7.510 -2.9784 -1.0190  1.9080
  123OSM    H8G13124  -0.088   1.557   7.464  0.4510 -0.3605 -1.2679
  123OSM    C9F13125  -0.270   1.660   7.401  0.8213 -0.0526 -0.3609
  123OSM    H9F13126  -0.316   1.621   7.309 -0.7365  1.7471 -0.4148
  123OSM   C10F13127  -0.364   1.698   7.491  0.0632  0.4278  0.4837
  123OSM   H10F13128  -0.471   1.695   7.466  0.3968  1.1637 -1.1718
  123OSM   C11F13129  -0.340   1.739   7.631  0.3523  0.0658 -0.1356
  123OSM   H11F13130  -0.334   1.850   7.629 -1.0868  0.1537 -0.3965
  123OSM   H11G13131  -0.246   1.704   7.679  1.1309  2.1780 -0.0286
  123OSM   C12F13132  -0.462   1.701   7.725  0.1357  0.1613 -0.2985
  123OSM   H12F13133  -0.458   1.591   7.740  2.9077  0.1084 -0.8524
  123OSM   H12G13134  -0.558   1.734   7.682  0.9439  1.2452 -1.3304
  123OSM   C13F13135  -0.463   1.768   7.863  0.2454  0.5002 -0.3896
  123OSM   H13F13136  -0.485   1.877   7.858 -2.7543  0.1515  1.9443
  123OSM   H13G13137  -0.368   1.754   7.918  0.5456 -2.6664 -1.5255
  123OSM   C14F13138  -0.572   1.695   7.944 -0.2878 -0.7136 -0.5014
  123OSM   H14F13139  -0.543   1.592   7.972 -2.3392 -0.9818  0.8737
  123OSM   H14G13140  -0.666   1.694   7.884 -1.2381 -0.1478  0.9109
  123OSM   C15F13141  -0.600   1.764   8.077 -0.3362  0.1197 -0.1254
  123OSM   H15F13142  -0.501   1.793   8.119 -0.8330  1.4955  0.1411
  123OSM   H15G13143  -0.644   1.693   8.150  0.9943 -0.6352 -0.0196
  123OSM   C16F13144  -0.698   1.884   8.069 -0.8181  0.4006  0.3683
  123OSM   H16F13145  -0.796   1.852   8.028 -1.3546  1.4443  0.7912
  123OSM   H16G13146  -0.650   1.949   7.993 -0.5921  1.6624  1.5469
  123OSM   C17F13147  -0.716   1.981   8.184  0.3967  0.8645  0.0785
  123OSM   H17F13148  -0.795   2.051   8.148  1.5873  2.0471 -0.2894
  123OSM   H17G13149  -0.628   2.043   8.210  0.1686  1.3716 -0.3346
  123OSM   C18F13150  -0.770   1.911   8.312 -0.0472  0.5039 -0.5422
  123OSM   H18F13151  -0.691   1.886   8.386 -1.3839 -0.8088  0.5088
  123OSM   H18G13152  -0.816   1.813   8.285  1.7900 -0.4883 -0.2464
  123OSM   H18H13153  -0.839   1.980   8.366 -0.1843  0.2331 -0.3641
  124OSM      N13154   2.712   5.452   6.217  0.3606 -0.4077 -0.1202
  124OSM    C1513155   2.728   5.590   6.287  0.0795  0.4902  0.5230
  124OSM   H15A13156   2.685   5.672   6.231  0.8807  1.5183  1.3543
  124OSM   H15B13157   2.834   5.601   6.306  0.2706  0.2620 -0.3806
  124OSM   H15C13158   2.674   5.588   6.381 -2.3122  0.7605 -0.7776
  124OSM    C1413159   2.572   5.457   6.166 -0.6861  0.4824  0.0536
  124OSM   H14A13160   2.540   5.357   6.138  1.3165 -0.3938  0.7182
  124OSM   H14B13161   2.563   5.519   6.078 -0.6546 -0.6858 -0.8092
  124OSM   H14C13162   2.505   5.496   6.241 -0.2914  0.7325  0.2763
  124OSM    C1313163   2.802   5.444   6.098  0.7828 -0.2329  0.0243
  124OSM   H13A13164   2.794   5.360   6.031  2.0783  0.2009 -0.7247
  124OSM   H13B13165   2.903   5.460   6.135 -0.2286  0.8766  2.5507
  124OSM   H13C13166   2.796   5.535   6.039  0.6043  0.0882  0.5280
  124OSM    C1213167   2.722   5.335   6.311 -0.2461 -0.1215 -0.0329
  124OSM   H12A13168   2.711   5.242   6.256 -3.3735 -0.5567  1.0907
  124OSM   H12B13169   2.635   5.338   6.376 -1.2212  0.3498 -1.3113
  124OSM    C1113170   2.841   5.327   6.408  0.2144 -0.8383  0.4718
  124OSM   H11A13171   2.832   5.249   6.486  0.8457 -0.2204  1.1818
  124OSM   H11B13172   2.845   5.421   6.467  2.2496 -2.1083  2.5059
  124OSM      P13173   3.049   5.197   6.324  0.1886 -0.2183 -0.2275
  124OSM    O1313174   2.973   5.079   6.280  0.2445 -0.8385 -0.6849
  124OSM    O1413175   3.179   5.220   6.258  0.1346  0.0784 -0.1525
  124OSM    O1113176   3.069   5.184   6.481 -0.3323 -0.4706 -0.2625
  124OSM    O1213177   2.962   5.328   6.324 -0.3821  0.7392  0.2468
  124OSM    C1S13178   3.162   5.276   6.550 -0.3239  0.6998  0.3133
  124OSM    H1S13179   3.181   5.371   6.495  2.1484  0.0248 -0.1359
  124OSM    H1T13180   3.264   5.234   6.564 -0.6545  0.2241  1.3934
  124OSM     NF13181   3.157   5.437   6.740  0.3088 -0.0136  0.1198
  124OSM    HNF13182   3.232   5.423   6.804 -1.7079  3.3674  3.6121
  124OSM    C2S13183   3.088   5.321   6.678 -0.3257  0.1326 -0.3102
  124OSM    H2S13184   2.986   5.348   6.644 -0.1837  0.7115 -0.2902
  124OSM    C3S13185   3.084   5.191   6.776  0.3486 -0.8537 -0.0136
  124OSM    H3S13186   3.181   5.141   6.795  0.5897  0.3248  2.0834
  124OSM     O313187   3.006   5.084   6.730  0.2895  0.1213  0.6334
  124OSM    HO313188   2.993   5.105   6.637  0.1545 -1.7637  0.1775
  124OSM    C4S13189   3.020   5.229   6.912 -0.1748 -0.1492  0.0730
  124OSM    H4S13190   2.911   5.243   6.901 -0.1207 -1.1770 -2.5431
  124OSM    C5S13191   3.089   5.238   7.033 -0.8646  1.3836  0.5600
  124OSM    H5S13192   3.193   5.204   7.019 -0.6025  1.8804  1.2288
  124OSM    C6S13193   3.039   5.276   7.165 -0.1097 -0.1906  0.2681
  124OSM    H6S13194   3.053   5.195   7.240 -1.2585  0.2340  0.9699
  124OSM    H6T13195   2.932   5.302   7.159 -0.1649 -0.2571  0.8341
  124OSM    C7S13196   3.131   5.397   7.206  0.3895 -0.2229 -0.4577
  124OSM    H7S13197   3.060   5.455   7.269  0.0315 -0.1838 -0.8922
  124OSM    H7T13198   3.165   5.461   7.122  1.0014 -1.1496 -0.9404
  124OSM    C8S13199   3.253   5.339   7.274 -0.5940  0.1417 -0.0839
  124OSM    H8S13200   3.331   5.417   7.264 -0.4085 -0.1584 -1.0764
  124OSM    H8T13201   3.292   5.252   7.218 -1.5901 -0.4598  0.1290
  124OSM    C9S13202   3.228   5.294   7.423 -0.0270  0.1454 -0.2469
  124OSM    H9S13203   3.287   5.201   7.441  2.2871  0.8853 -3.2172
  124OSM    H9T13204   3.123   5.258   7.426  0.4981 -1.4589  0.4196
  124OSM   C10S13205   3.241   5.401   7.527  0.7796 -0.3977 -0.6090
  124OSM   H10S13206   3.172   5.480   7.490  1.6986  0.1898 -1.0907
  124OSM   H10T13207   3.345   5.439   7.534  0.2381  0.9655  0.4002
  124OSM   C11S13208   3.201   5.361   7.672 -0.5289 -0.3113  0.7051
  124OSM   H11S13209   3.270   5.277   7.695  1.8918  1.6439  1.0249
  124OSM   H11T13210   3.095   5.330   7.682 -0.9729  0.5325 -1.0647
  124OSM   C12S13211   3.231   5.474   7.773  0.1623 -0.8106 -0.2698
  124OSM   H12S13212   3.144   5.542   7.775  1.0025  0.2839  0.0046
  124OSM   H12T13213   3.325   5.528   7.750  1.4255 -3.2863 -1.3407
  124OSM   C13S13214   3.247   5.423   7.917 -0.1682  0.5842  0.1039
  124OSM   H13S13215   3.323   5.342   7.921 -1.7850 -1.1405 -1.7219
  124OSM   H13T13216   3.154   5.369   7.947  0.0745 -1.0160 -1.7963
  124OSM   C14S13217   3.276   5.527   8.021  0.2970 -0.5726 -0.0684
  124OSM   H14S13218   3.216   5.620   8.008 -2.7487 -1.7258  3.7047
  124OSM   H14T13219   3.383   5.554   8.017  0.4803 -1.4277 -1.6870
  124OSM   C15S13220   3.259   5.477   8.165 -0.0011  0.0824  0.8696
  124OSM   H15S13221   3.287   5.370   8.170 -2.4390 -0.9011 -2.7459
  124OSM   H15T13222   3.153   5.502   8.188 -0.4048  1.4342 -2.0466
  124OSM   C16S13223   3.339   5.561   8.274 -0.9909  0.4686  0.5039
  124OSM   H16S13224   3.305   5.666   8.287 -1.3280  0.3214  0.8355
  124OSM   H16T13225   3.446   5.569   8.244 -1.4381 -1.3330 -1.7822
  124OSM   C17S13226   3.330   5.489   8.410  0.2160 -0.2831  0.0470
  124OSM   H17S13227   3.383   5.391   8.406  2.3047  0.8350 -3.2833
  124OSM   H17T13228   3.221   5.469   8.423 -0.3082  2.3167  0.1044
  124OSM   C18S13229   3.379   5.577   8.532  0.2550  0.1131 -0.2091
  124OSM   H18S13230   3.324   5.673   8.525  0.6843  0.4334  0.6735
  124OSM   H18T13231   3.487   5.602   8.530  0.0288  1.0647 -0.7682
  124OSM   H18U13232   3.349   5.528   8.627  0.0463 -1.8322 -1.2178
  124OSM    C1F13233   3.129   5.562   6.692  0.2608  0.5512  0.5337
  124OSM     OF13234   3.027   5.574   6.624 -0.3474 -0.1167 -0.4100
  124OSM    C2F13235   3.211   5.675   6.743 -0.0763  0.4980  0.0599
  124OSM    H2F13236   3.199   5.770   6.687  0.7008  0.8165  0.4260
  124OSM    H2G13237   3.317   5.641   6.741  0.6622  2.6441 -0.1530
  124OSM    C3F13238   3.171   5.713   6.886 -0.0979  0.4097 -0.2836
  124OSM    H3F13239   3.254   5.778   6.923 -0.4953  0.9075 -0.2546
  124OSM    H3G13240   3.166   5.625   6.953 -0.7222 -0.3599 -1.3229
  124OSM    C4F13241   3.031   5.778   6.903  0.0120  0.0573 -0.3961
  124OSM    H4F13242   2.956   5.696   6.910 -1.1189  1.1030  0.1059
  124OSM    H4G13243   3.018   5.827   6.804  3.9576  1.4361 -0.3937
  124OSM    C5F13244   3.022   5.884   7.011  0.2813  0.0982  0.2134
  124OSM    H5F13245   2.942   5.960   7.000 -0.4274 -0.7570 -0.9079
  124OSM    H5G13246   3.120   5.935   7.001  0.4714 -0.1723  0.6604
  124OSM    C6F13247   3.011   5.829   7.157  0.0689  0.8617 -0.7515
  124OSM    H6F13248   3.102   5.766   7.169  0.3729  1.4273 -0.0040
  124OSM    H6G13249   2.918   5.767   7.160 -0.8666  2.1632 -1.7399
  124OSM    C7F13250   3.008   5.937   7.264 -0.1834  0.7604  0.2533
  124OSM    H7F13251   2.931   6.014   7.237 -0.8896  0.1699  0.5491
  124OSM    H7G13252   3.109   5.980   7.276 -0.0095  0.5870 -0.5323
  124OSM    C8F13253   2.960   5.888   7.405  0.1643 -0.6851  0.1940
  124OSM    H8F13254   2.869   5.827   7.388 -0.2296 -0.6459  2.0248
  124OSM    H8G13255   2.929   5.978   7.461  2.2161  0.4632 -0.4316
  124OSM    C9F13256   3.070   5.815   7.477 -0.3386  0.1207 -0.3018
  124OSM    H9F13257   3.144   5.778   7.404 -0.4152  0.0320 -0.3338
  124OSM   C10F13258   3.098   5.807   7.613  0.1177 -0.2020 -0.8703
  124OSM   H10F13259   3.187   5.756   7.652  0.1668  1.1683  0.9181
  124OSM   C11F13260   3.019   5.875   7.715  0.0492  0.3103 -0.1159
  124OSM   H11F13261   2.939   5.809   7.755  1.4011 -0.8112  0.8269
  124OSM   H11G13262   2.959   5.953   7.663  0.4228  0.1392 -0.8151
  124OSM   C12F13263   3.099   5.919   7.832  0.7136 -0.2690  0.0762
  124OSM   H12F13264   3.164   6.003   7.801 -2.2548  1.6076 -1.5191
  124OSM   H12G13265   3.164   5.835   7.865 -1.6901 -2.3998 -0.3094
  124OSM   C13F13266   3.017   5.947   7.959  0.5296  0.0465  1.3501
  124OSM   H13F13267   2.971   5.850   7.989  1.2968 -0.2293  1.6524
  124OSM   H13G13268   2.937   6.019   7.931  1.8606  0.5630 -1.4778
  124OSM   C14F13269   3.105   5.994   8.066 -0.5531 -0.7316 -0.0474
  124OSM   H14F13270   3.119   6.104   8.055 -0.7218 -0.5897  0.9905
  124OSM   H14G13271   3.209   5.954   8.066 -0.1534  0.2546 -0.3730
  124OSM   C15F13272   3.042   5.972   8.200  0.3293 -0.3024 -0.3637
  124OSM   H15F13273   3.034   5.862   8.213  0.0086 -0.4961 -1.9541
  124OSM   H15G13274   2.942   6.019   8.215  0.5688 -0.6505  3.2188
  124OSM   C16F13275   3.147   6.018   8.307  0.0410  0.3338  1.3319
  124OSM   H16F13276   3.149   6.129   8.301  0.8569  0.2560 -0.2511
  124OSM   H16G13277   3.247   5.976   8.285 -0.5129  0.0759 -0.9577
  124OSM   C17F13278   3.104   5.993   8.448  0.1210  0.1828  0.3151
  124OSM   H17F13279   3.081   5.884   8.448  1.9604 -0.2960 -2.3136
  124OSM   H17G13280   3.003   6.029   8.478 -0.3353  0.1868 -1.1642
  124OSM   C18F13281   3.214   6.021   8.550 -0.1576 -0.1427 -0.2785
  124OSM   H18F13282   3.315   6.008   8.506  0.6258  1.4490  0.9705
  124OSM   H18G13283   3.200   5.956   8.639 -1.3243  0.1460 -0.2302
  124OSM   H18H13284   3.214   6.129   8.576 -0.0513 -0.1609 -0.2016
  125OSM      N13285   2.996   1.513   6.241 -0.3144  0.1965  0.3380
  125OSM    C1513286   3.017   1.373   6.207  0.4904  0.8438  0.4956
  125OSM   H15A13287   3.108   1.354   6.152  2.9335  1.2652  4.0127
  125OSM   H15B13288   2.938   1.328   6.149 -1.7823  2.3029  2.2856
  125OSM   H15C13289   3.031   1.311   6.295 -1.8538  0.1232  0.4408
  125OSM    C1413290   3.023   1.596   6.125  0.0234  0.3065  0.7476
  125OSM   H14A13291   2.940   1.613   6.057  0.4857  1.3534  0.4164
  125OSM   H14B13292   3.099   1.544   6.068 -1.3627 -1.5661  0.5237
  125OSM   H14C13293   3.059   1.693   6.155  2.1341 -0.9734  2.6093
  125OSM    C1313294   2.861   1.541   6.298 -0.0313 -1.0405  0.2247
  125OSM   H13A13295   2.843   1.646   6.314  0.9032 -0.8058 -0.2405
  125OSM   H13B13296   2.837   1.495   6.393 -1.7286  2.7689  1.8534
  125OSM   H13C13297   2.782   1.504   6.234  0.2825 -2.6349  0.7082
  125OSM    C1213298   3.103   1.549   6.344 -0.1587  0.2731 -0.7774
  125OSM   H12A13299   3.084   1.493   6.434  1.1898 -1.1941 -1.3532
  125OSM   H12B13300   3.108   1.656   6.354  1.0008  0.1468  0.1838
  125OSM    C1113301   3.247   1.496   6.319 -0.3003 -0.3336  0.4790
  125OSM   H11A13302   3.309   1.556   6.389  0.1007  1.4618 -1.3359
  125OSM   H11B13303   3.269   1.519   6.213 -3.5664  1.4135  0.0578
  125OSM      P13304   3.349   1.260   6.273 -0.4609 -0.0246 -0.4225
  125OSM    O1313305   3.273   1.150   6.213 -0.1635  0.5224 -0.9564
  125OSM    O1413306   3.425   1.348   6.181  0.4625 -0.0489 -0.0498
  125OSM    O1113307   3.446   1.202   6.391  0.2495  0.4624 -0.5121
  125OSM    O1213308   3.252   1.355   6.356 -0.1138  0.0721  0.7005
  125OSM    C1S13309   3.493   1.290   6.496 -0.4049 -0.5078 -0.3081
  125OSM    H1S13310   3.476   1.399   6.484 -0.5984 -0.2807  1.7558
  125OSM    H1T13311   3.603   1.277   6.503 -0.5951 -2.8270 -0.7700
  125OSM     NF13312   3.522   1.320   6.746  0.7197 -0.6946 -0.1919
  125OSM    HNF13313   3.585   1.263   6.796  0.7520 -0.6074 -0.1327
  125OSM    C2S13314   3.439   1.248   6.642 -0.5075  0.7351  0.2475
  125OSM    H2S13315   3.338   1.293   6.653 -0.9753  0.4008 -2.2062
  125OSM    C3S13316   3.435   1.095   6.663 -0.6269  0.2299 -0.5487
  125OSM    H3S13317   3.536   1.051   6.650  0.1986  1.6410  0.7524
  125OSM     O313318   3.354   1.028   6.574  0.2169 -0.4721  0.5240
  125OSM    HO313319   3.332   1.083   6.498 -0.3905 -1.6057 -0.1563
  125OSM    C4S13320   3.385   1.066   6.802  0.9710 -0.1491 -0.0891
  125OSM    H4S13321   3.456   1.094   6.882 -1.3584  1.4780  1.5252
  125OSM    C5S13322   3.265   1.023   6.846  0.4815  0.3275  0.2344
  125OSM    H5S13323   3.185   1.007   6.771 -1.7389  0.4400  2.4580
  125OSM    C6S13324   3.235   1.000   6.994  0.2015 -0.3459 -0.9094
  125OSM    H6S13325   3.189   0.899   7.009 -1.3482  0.7391  2.9087
  125OSM    H6T13326   3.163   1.076   7.032  2.3402  0.8842  0.9214
  125OSM    C7S13327   3.355   1.002   7.094  0.2587  0.3925 -0.1475
  125OSM    H7S13328   3.397   1.104   7.107 -1.2495  1.0457 -0.1861
  125OSM    H7T13329   3.433   0.944   7.041 -0.1533 -2.6513  2.3246
  125OSM    C8S13330   3.313   0.942   7.234  0.2996 -0.0545 -0.5545
  125OSM    H8S13331   3.319   0.831   7.233 -0.0048 -0.1009  0.7860
  125OSM    H8T13332   3.207   0.976   7.242  0.6507  2.2213 -3.8025
  125OSM    C9S13333   3.391   0.990   7.357 -0.1178 -0.1314 -0.4713
  125OSM    H9S13334   3.357   1.094   7.378 -1.1836 -0.4011 -0.8205
  125OSM    H9T13335   3.496   1.005   7.322 -0.2325 -0.7985 -1.1367
  125OSM   C10S13336   3.378   0.902   7.476 -0.0460 -0.2093  0.5734
  125OSM   H10S13337   3.391   0.798   7.440  1.1815  0.5177 -1.2059
  125OSM   H10T13338   3.269   0.902   7.501  0.1035 -1.7270  1.3580
  125OSM   C11S13339   3.467   0.944   7.588  0.2634 -0.2996 -0.2808
  125OSM   H11S13340   3.424   1.040   7.625  1.2606 -0.1483  0.5688
  125OSM   H11T13341   3.570   0.973   7.558  0.9874 -0.7623  1.5959
  125OSM   C12S13342   3.481   0.834   7.704 -0.1034 -0.3681 -0.2292
  125OSM   H12S13343   3.551   0.887   7.771  2.5919 -1.6515 -1.8496
  125OSM   H12T13344   3.516   0.740   7.656 -1.1088 -0.8314 -0.0997
  125OSM   C13S13345   3.349   0.804   7.774  0.5762  0.6771  0.0712
  125OSM   H13S13346   3.310   0.706   7.738  0.5899  1.2661 -1.6154
  125OSM   H13T13347   3.280   0.890   7.760 -1.2011 -0.4852  1.2842
  125OSM   C14S13348   3.365   0.781   7.925  0.3629 -0.3010  0.0869
  125OSM   H14S13349   3.407   0.872   7.973 -0.3759  0.8387 -1.3393
  125OSM   H14T13350   3.450   0.709   7.922  1.4744  1.0026 -1.0875
  125OSM   C15S13351   3.249   0.738   8.011  0.3173  0.0656  0.3140
  125OSM   H15S13352   3.207   0.647   7.963  0.3711  1.0813 -1.7518
  125OSM   H15T13353   3.176   0.821   8.005 -0.0198 -0.1993  0.6839
  125OSM   C16S13354   3.279   0.715   8.160 -0.0678 -0.0159 -0.4090
  125OSM   H16S13355   3.352   0.634   8.182 -0.6853 -0.4995 -0.1114
  125OSM   H16T13356   3.185   0.671   8.200 -0.1401  0.9745  0.5496
  125OSM   C17S13357   3.307   0.849   8.236 -0.4428 -0.0990  0.0750
  125OSM   H17S13358   3.220   0.918   8.243 -0.7717 -0.6071  1.2111
  125OSM   H17T13359   3.381   0.915   8.185  0.0355 -0.2025  0.6215
  125OSM   C18S13360   3.366   0.810   8.369 -0.8580  0.5504 -0.2127
  125OSM   H18S13361   3.404   0.893   8.432 -1.8379  0.6671  0.2457
  125OSM   H18T13362   3.445   0.732   8.365 -0.7839  0.4984  1.6520
  125OSM   H18U13363   3.287   0.759   8.428  0.2911 -0.7923  0.2168
  125OSM    C1F13364   3.522   1.452   6.754 -0.0293 -0.3325  0.5680
  125OSM     OF13365   3.446   1.517   6.681  0.2234 -0.0128 -0.7581
  125OSM    C2F13366   3.615   1.510   6.859  0.5403 -0.3897 -0.1381
  125OSM    H2F13367   3.716   1.470   6.838  0.9037 -0.0975  0.9890
  125OSM    H2G13368   3.578   1.477   6.958 -2.2563  2.0889 -0.1957
  125OSM    C3F13369   3.624   1.668   6.848 -0.3546  1.2457 -0.4631
  125OSM    H3F13370   3.529   1.725   6.858 -0.9862 -0.0376  1.3409
  125OSM    H3G13371   3.668   1.706   6.753 -0.4411  0.8195 -0.6770
  125OSM    C4F13372   3.718   1.716   6.958 -0.6907 -0.0061 -0.7236
  125OSM    H4F13373   3.784   1.799   6.925 -1.2600  1.2040  1.0087
  125OSM    H4G13374   3.780   1.627   6.982 -0.1423  0.4958 -0.2326
  125OSM    C5F13375   3.655   1.743   7.095 -0.4584 -0.6144  0.9903
  125OSM    H5F13376   3.583   1.663   7.125 -1.1722  0.6047  2.6999
  125OSM    H5G13377   3.596   1.837   7.097  0.9106  0.3123 -0.2134
  125OSM    C6F13378   3.751   1.764   7.211  0.3443  0.3998  0.5521
  125OSM    H6F13379   3.810   1.855   7.185 -0.2133  0.2018 -1.5066
  125OSM    H6G13380   3.815   1.675   7.228 -0.4694 -0.5939 -1.3331
  125OSM    C7F13381   3.670   1.799   7.344 -0.0372  0.3309  0.0238
  125OSM    H7F13382   3.604   1.717   7.379  1.1584  0.2319  2.1750
  125OSM    H7G13383   3.602   1.882   7.313 -1.3097 -0.7150 -0.0817
  125OSM    C8F13384   3.764   1.838   7.464  0.5274  0.2519  0.3235
  125OSM    H8F13385   3.696   1.845   7.552 -1.7607  3.6499 -1.4727
  125OSM    H8G13386   3.804   1.941   7.463  3.2838 -0.5695  3.7372
  125OSM    C9F13387   3.880   1.745   7.495 -0.1518 -0.2092  0.5748
  125OSM    H9F13388   3.952   1.723   7.415  1.0389  0.2122  1.4923
  125OSM   C10F13389   3.900   1.677   7.610 -0.2480 -0.3616 -0.2404
  125OSM   H10F13390   3.991   1.615   7.613  1.2874  1.8030  1.2929
  125OSM   C11F13391   3.821   1.685   7.740 -0.0637  0.1121  0.2600
  125OSM   H11F13392   3.788   1.588   7.783  0.3728 -0.1419  0.0289
  125OSM   H11G13393   3.732   1.751   7.728  0.2636  0.5661  0.2819
  125OSM   C12F13394   3.894   1.760   7.851  0.0890 -0.3236 -1.0665
  125OSM   H12F13395   3.832   1.774   7.942  2.3684  1.4251  0.3194
  125OSM   H12G13396   3.924   1.864   7.826 -1.7825  0.8093  1.0677
  125OSM   C13F13397   4.005   1.678   7.912 -0.2471 -0.2216  0.4699
  125OSM   H13F13398   4.104   1.684   7.862 -0.4647 -0.0905  0.0533
  125OSM   H13G13399   3.986   1.568   7.910  0.6086 -0.3689  0.3075
  125OSM   C14F13400   4.052   1.723   8.050 -0.6464  0.3126  0.2539
  125OSM   H14F13401   4.069   1.833   8.055  2.0283 -0.0699  4.6747
  125OSM   H14G13402   4.152   1.686   8.080  0.0153 -0.2480 -2.3418
  125OSM   C15F13403   3.954   1.697   8.166 -0.7216 -0.0365 -0.3009
  125OSM   H15F13404   3.852   1.734   8.143  0.0279  1.5157 -1.2350
  125OSM   H15G13405   3.994   1.756   8.251 -1.0794 -0.4929  0.1967
  125OSM   C16F13406   3.936   1.547   8.192 -0.1957  0.1351 -0.6757
  125OSM   H16F13407   4.034   1.504   8.221 -0.2463  0.3615 -0.1509
  125OSM   H16G13408   3.919   1.501   8.093  1.2361  1.3022 -1.5080
  125OSM   C17F13409   3.812   1.510   8.279 -0.0180 -0.1460 -0.0459
  125OSM   H17F13410   3.728   1.549   8.218  0.7541 -1.9230 -2.4120
  125OSM   H17G13411   3.821   1.571   8.371  3.0710  0.3490 -0.5697
  125OSM   C18F13412   3.777   1.363   8.301  0.4880  0.2923 -0.6909
  125OSM   H18F13413   3.755   1.294   8.216 -1.3550 -0.0391  0.0275
  125OSM   H18G13414   3.680   1.365   8.354  0.7036 -0.4225 -0.2411
  125OSM   H18H13415   3.855   1.321   8.368 -1.3284 -1.8245  0.1952
  126OSM      N13416   0.762   5.865   6.400 -0.0848  0.0452 -0.9649
  126OSM    C1513417   0.700   5.753   6.319  0.6440  0.3248  0.2781
  126OSM   H15A13418   0.659   5.682   6.388  2.1749 -1.9395 -1.0214
  126OSM   H15B13419   0.779   5.699   6.268  1.0222  0.5884  0.5779
  126OSM   H15C13420   0.624   5.785   6.249  0.6604 -2.1665 -0.9780
  126OSM    C1413421   0.840   5.939   6.290  0.1485 -0.1496  0.6314
  126OSM   H14A13422   0.883   5.872   6.217 -1.7375  0.8423 -1.5396
  126OSM   H14B13423   0.902   6.015   6.334 -2.0694  0.5870  2.7690
  126OSM   H14C13424   0.765   5.974   6.220  0.5763 -3.0557 -1.4752
  126OSM    C1313425   0.657   5.951   6.463 -0.1628  0.4972  0.3104
  126OSM   H13A13426   0.582   5.899   6.521 -0.8114  1.7607  0.6412
  126OSM   H13B13427   0.618   6.025   6.394 -2.7598 -0.7335  0.3189
  126OSM   H13C13428   0.715   6.009   6.533  1.4194  0.2541 -0.7611
  126OSM    C1213429   0.852   5.799   6.509  0.1606 -1.3012  1.4314
  126OSM   H12A13430   0.900   5.884   6.555  1.5807 -0.4885 -1.3277
  126OSM   H12B13431   0.931   5.749   6.455 -1.2668 -1.5166 -0.5712
  126OSM    C1113432   0.797   5.692   6.601  0.9231 -0.2172 -0.4157
  126OSM   H11A13433   0.697   5.723   6.637  1.5684 -0.1802  1.4759
  126OSM   H11B13434   0.863   5.673   6.689  2.1889 -0.4908 -1.3922
  126OSM      P13435   0.915   5.481   6.498  0.1675  0.0339 -0.0145
  126OSM    O1313436   0.867   5.352   6.443 -0.1845  0.0011  0.2231
  126OSM    O1413437   0.997   5.576   6.421  0.0750  0.1091  0.3225
  126OSM    O1113438   0.988   5.456   6.635 -0.4351  0.5344  0.1704
  126OSM    O1213439   0.782   5.563   6.531  0.2894 -0.0763  0.3348
  126OSM    C1S13440   0.915   5.392   6.741  0.1644 -0.0475  0.0804
  126OSM    H1S13441   0.878   5.292   6.708  4.9562 -0.9767 -3.7660
  126OSM    H1T13442   0.830   5.459   6.763  0.2313  0.9956 -2.5000
  126OSM     NF13443   0.930   5.306   6.974  0.0593  1.0723  0.5323
  126OSM    HNF13444   0.876   5.357   7.041 -0.7641  1.1212 -0.1471
  126OSM    C2S13445   0.999   5.385   6.875 -0.1953  0.4688 -0.0535
  126OSM    H2S13446   1.094   5.335   6.845  0.1919  2.3976 -2.3836
  126OSM    C3S13447   1.039   5.527   6.922  0.5059  0.3196 -0.6482
  126OSM    H3S13448   0.939   5.572   6.941 -0.7271 -2.5806  0.4660
  126OSM     O313449   1.101   5.609   6.827 -0.2283  0.0755 -0.0531
  126OSM    HO313450   1.068   5.577   6.743  2.7419 -0.0122 -1.3203
  126OSM    C4S13451   1.123   5.520   7.048 -0.0453 -0.0315 -0.2271
  126OSM    H4S13452   1.227   5.484   7.044 -0.0940 -0.5067  1.7763
  126OSM    C5S13453   1.096   5.583   7.165  0.7904  0.2773 -0.7662
  126OSM    H5S13454   1.005   5.645   7.170  0.9132  0.6468 -2.5108
  126OSM    C6S13455   1.171   5.582   7.292 -0.3330 -0.5462  0.0409
  126OSM    H6S13456   1.270   5.532   7.284 -0.1710 -0.1192 -0.7524
  126OSM    H6T13457   1.120   5.513   7.362 -0.4615 -0.0622  0.4323
  126OSM    C7S13458   1.172   5.720   7.366  0.7197  0.2558  0.4174
  126OSM    H7S13459   1.069   5.752   7.391  1.0104  4.2676 -2.3953
  126OSM    H7T13460   1.214   5.808   7.311  1.0462 -1.1162 -1.6607
  126OSM    C8S13461   1.244   5.719   7.501 -0.2415  0.3322 -0.3328
  126OSM    H8S13462   1.351   5.733   7.476 -0.3315 -1.0017 -1.5651
  126OSM    H8T13463   1.220   5.616   7.534 -4.0748  0.8330 -1.1318
  126OSM    C9S13464   1.187   5.822   7.595  0.6211  0.2988  0.3651
  126OSM    H9S13465   1.076   5.827   7.591  0.7034  1.5317 -1.4026
  126OSM    H9T13466   1.215   5.926   7.567  0.7836 -0.3173 -2.0191
  126OSM   C10S13467   1.229   5.805   7.740  0.2919 -0.2233 -0.8790
  126OSM   H10S13468   1.337   5.830   7.744  0.0118  1.1483 -1.3682
  126OSM   H10T13469   1.242   5.699   7.773  0.1424 -0.2147 -0.7920
  126OSM   C11S13470   1.144   5.880   7.837  0.0702  0.3302 -1.3391
  126OSM   H11S13471   1.041   5.841   7.850  1.2448 -2.9049 -0.7925
  126OSM   H11T13472   1.134   5.981   7.792 -0.4537  0.2931 -1.3135
  126OSM   C12S13473   1.197   5.887   7.980 -0.3332 -0.5793 -0.2661
  126OSM   H12S13474   1.301   5.926   7.978 -1.5888  3.0633 -1.4673
  126OSM   H12T13475   1.183   5.790   8.033 -2.2473  1.1860  2.7318
  126OSM   C13S13476   1.113   5.967   8.076  0.0616 -0.0910  0.1320
  126OSM   H13S13477   1.013   5.959   8.029  0.6123  2.9802 -1.8676
  126OSM   H13T13478   1.139   6.075   8.066 -0.7289 -0.0703 -2.0300
  126OSM   C14S13479   1.119   5.916   8.220  0.4092 -0.0284 -0.3898
  126OSM   H14S13480   1.223   5.926   8.257  0.5058 -0.5773 -0.5004
  126OSM   H14T13481   1.101   5.806   8.224  0.8828 -0.0957 -0.0753
  126OSM   C15S13482   1.013   5.979   8.308  0.1877 -0.4499  0.7913
  126OSM   H15S13483   0.912   5.947   8.272  0.2497 -0.2982  0.4781
  126OSM   H15T13484   1.010   6.090   8.310 -2.1812 -0.4828  2.6034
  126OSM   C16S13485   1.015   5.942   8.449 -1.0077 -0.5290 -0.1897
  126OSM   H16S13486   0.941   5.999   8.509 -2.2501  0.1098 -2.2241
  126OSM   H16T13487   1.117   5.968   8.485  0.5158 -4.2005 -1.3856
  126OSM   C17S13488   0.983   5.795   8.473 -0.3197 -0.7100 -0.0019
  126OSM   H17S13489   1.072   5.743   8.431  1.0398  1.7645 -0.3549
  126OSM   H17T13490   0.894   5.770   8.411 -0.4776  3.6380 -1.8533
  126OSM   C18S13491   0.956   5.753   8.622  0.0103  0.0059 -0.0101
  126OSM   H18S13492   0.862   5.801   8.658  1.1417  1.5744  0.9871
  126OSM   H18T13493   1.042   5.798   8.676  1.1043 -2.0262  0.0039
  126OSM   H18U13494   0.953   5.643   8.632  0.7925 -0.0622 -0.4806
  126OSM    C1F13495   0.913   5.178   6.965  1.0357 -0.0353  0.2152
  126OSM     OF13496   0.964   5.105   6.884  0.3656  0.2292  0.1856
  126OSM    C2F13497   0.826   5.135   7.083 -0.0966  0.1396  0.5700
  126OSM    H2F13498   0.757   5.055   7.049  1.8152 -0.4786 -2.2450
  126OSM    H2G13499   0.783   5.229   7.124  1.4858  1.3888 -0.5154
  126OSM    C3F13500   0.914   5.073   7.193  0.1664 -0.5506  0.3844
  126OSM    H3F13501   0.993   5.148   7.214  0.2068 -0.4717 -0.0296
  126OSM    H3G13502   0.964   4.982   7.154 -0.7709 -1.1263  0.5040
  126OSM    C4F13503   0.834   5.041   7.322 -0.1420  1.2376 -0.0016
  126OSM    H4F13504   0.751   4.970   7.303  1.0780 -0.3507  0.4109
  126OSM    H4G13505   0.786   5.128   7.371  0.7548  1.1290  1.0973
  126OSM    C5F13506   0.922   4.975   7.428 -0.8489 -0.2678  0.7038
  126OSM    H5F13507   1.007   5.042   7.453 -2.7028  3.5942 -2.1776
  126OSM    H5G13508   0.978   4.892   7.380  1.3842  0.8795  1.2277
  126OSM    C6F13509   0.857   4.913   7.558 -0.0619  0.7546  0.0435
  126OSM    H6F13510   0.785   4.833   7.530  3.4882 -2.3456 -0.9905
  126OSM    H6G13511   0.804   4.995   7.612  0.2569  0.0995  1.3909
  126OSM    C7F13512   0.963   4.853   7.651 -1.2427  0.2539  0.4319
  126OSM    H7F13513   1.046   4.921   7.679  0.9080 -1.6276 -1.0324
  126OSM    H7G13514   1.015   4.779   7.586 -1.9920  0.3631 -0.3091
  126OSM    C8F13515   0.901   4.785   7.771 -0.2914  0.5211  0.1996
  126OSM    H8F13516   0.860   4.692   7.726 -1.1365  0.4530  1.0960
  126OSM    H8G13517   0.816   4.844   7.811 -1.2311 -0.2641 -0.5843
  126OSM    C9F13518   1.006   4.738   7.868 -0.0708  0.6663 -0.0836
  126OSM    H9F13519   1.084   4.679   7.818 -0.2245  0.4108 -0.0213
  126OSM   C10F13520   1.031   4.763   7.999 -0.3736 -0.7032  0.1366
  126OSM   H10F13521   1.111   4.706   8.048 -1.1573 -0.1440  2.1457
  126OSM   C11F13522   0.950   4.857   8.079 -0.1697 -0.1268  0.1356
  126OSM   H11F13523   0.920   4.782   8.155 -2.3764 -1.6189 -2.0474
  126OSM   H11G13524   0.862   4.894   8.022  0.2897  0.6357 -0.0967
  126OSM   C12F13525   1.019   4.971   8.155  0.0496 -0.2161 -0.5871
  126OSM   H12F13526   1.043   5.053   8.084  2.4699 -0.9132 -0.6599
  126OSM   H12G13527   1.120   4.947   8.195  0.4153 -0.8454 -1.8481
  126OSM   C13F13528   0.936   5.011   8.278  0.4924  0.0204 -0.2520
  126OSM   H13F13529   0.998   5.077   8.342  0.4899  0.5088 -0.7397
  126OSM   H13G13530   0.915   4.923   8.342  0.8353 -0.3519 -0.6462
  126OSM   C14F13531   0.814   5.098   8.244 -0.3602  0.9416  0.8480
  126OSM   H14F13532   0.735   5.042   8.190  1.5192  0.0691 -1.1263
  126OSM   H14G13533   0.845   5.184   8.180 -0.4480  1.3556  1.3515
  126OSM   C15F13534   0.756   5.156   8.363 -0.6427 -0.0657  0.1017
  126OSM   H15F13535   0.846   5.193   8.416  0.3192 -0.3406 -1.2832
  126OSM   H15G13536   0.708   5.093   8.441 -0.8744  1.2911  1.1103
  126OSM   C16F13537   0.659   5.274   8.337  0.0114  0.8359  0.4292
  126OSM   H16F13538   0.571   5.234   8.282  3.1888 -2.3235 -2.9717
  126OSM   H16G13539   0.715   5.344   8.270  0.8823  1.3174  1.6214
  126OSM   C17F13540   0.612   5.360   8.452  0.0589  0.3585 -0.3359
  126OSM   H17F13541   0.542   5.314   8.526  1.7082  1.4128  1.9734
  126OSM   H17G13542   0.566   5.449   8.405 -1.2421  1.7404  3.1717
  126OSM   C18F13543   0.726   5.417   8.535 -0.3577 -0.1797  0.4716
  126OSM   H18F13544   0.797   5.481   8.479  2.7627 -0.4529  3.8075
  126OSM   H18G13545   0.796   5.337   8.564  0.1304  0.2891  0.5913
  126OSM   H18H13546   0.680   5.470   8.621 -0.0342 -0.1683  0.6360
  127OSM      N13547   2.460   4.810   5.944  0.5852  0.7114  0.4016
  127OSM    C1513548   2.502   4.670   5.914 -0.0927 -0.3936  0.0416
  127OSM   H15A13549   2.481   4.660   5.809  2.3301 -2.3618 -0.3467
  127OSM   H15B13550   2.454   4.600   5.981  2.3325 -0.8464  1.4181
  127OSM   H15C13551   2.607   4.648   5.924  1.0804  3.6925 -1.4657
  127OSM    C1413552   2.560   4.908   5.888 -0.4104  0.1469 -0.2248
  127OSM   H14A13553   2.541   5.010   5.916  0.2955  1.3835 -3.7867
  127OSM   H14B13554   2.552   4.913   5.781 -1.1666 -1.5560 -0.2822
  127OSM   H14C13555   2.659   4.883   5.924 -1.3824 -3.1598  0.5080
  127OSM    C1313556   2.324   4.845   5.869 -1.3563  0.1000 -0.3289
  127OSM   H13A13557   2.348   4.830   5.765  2.0251  0.0558  0.3217
  127OSM   H13B13558   2.311   4.951   5.882 -1.6164  0.1669 -1.1076
  127OSM   H13C13559   2.244   4.787   5.912 -0.6223 -0.1534  0.7514
  127OSM    C1213560   2.454   4.824   6.096 -0.4833 -0.7868  0.5579
  127OSM   H12A13561   2.441   4.928   6.121  2.8886  0.4635 -2.1424
  127OSM   H12B13562   2.558   4.815   6.122 -0.5868 -0.7037  1.0121
  127OSM    C1113563   2.375   4.728   6.193 -0.3238 -0.1851  0.0011
  127OSM   H11A13564   2.270   4.741   6.159  0.1169  3.5549 -0.3580
  127OSM   H11B13565   2.376   4.764   6.298 -1.0725  0.0639 -0.0717
  127OSM      P13566   2.557   4.542   6.252 -0.4105 -0.0240  0.3519
  127OSM    O1313567   2.599   4.404   6.216  0.2922 -0.2526 -0.4230
  127OSM    O1413568   2.658   4.644   6.258 -0.5219  0.5715 -0.4733
  127OSM    O1113569   2.499   4.539   6.393  0.1010  0.0574 -0.4692
  127OSM    O1213570   2.434   4.597   6.170  0.1174 -0.5699  0.2619
  127OSM    C1S13571   2.385   4.459   6.426 -0.0705 -0.2307 -0.5371
  127OSM    H1S13572   2.396   4.350   6.405  1.9943 -0.0970 -0.3256
  127OSM    H1T13573   2.291   4.482   6.371 -0.5793 -3.0077 -1.0108
  127OSM     NF13574   2.271   4.357   6.630  0.6440 -0.2446 -0.0821
  127OSM    HNF13575   2.174   4.375   6.618  0.4906 -0.5958  0.5457
  127OSM    C2S13576   2.350   4.468   6.584  0.3167 -0.0056 -0.5248
  127OSM    H2S13577   2.447   4.456   6.636  0.0137 -3.2427 -0.5007
  127OSM    C3S13578   2.277   4.600   6.631  0.1827  0.3676 -0.0234
  127OSM    H3S13579   2.171   4.604   6.599  0.5172  1.2313 -1.0985
  127OSM     O313580   2.329   4.716   6.565  0.1006 -0.3692  0.8948
  127OSM    HO313581   2.395   4.677   6.507 -1.2678  1.8639 -2.4744
  127OSM    C4S13582   2.289   4.611   6.782 -0.1268  0.6112 -0.1838
  127OSM    H4S13583   2.389   4.641   6.818  0.3471 -0.6573 -0.3882
  127OSM    C5S13584   2.188   4.580   6.868  0.0963 -0.4113  0.0376
  127OSM    H5S13585   2.097   4.540   6.822 -0.7174  3.1496 -1.7442
  127OSM    C6S13586   2.207   4.605   7.013  0.4821 -0.7541  0.5251
  127OSM    H6S13587   2.306   4.570   7.050  1.0775 -2.0595 -2.0453
  127OSM    H6T13588   2.135   4.541   7.068 -0.2303 -1.7868 -1.5090
  127OSM    C7S13589   2.193   4.759   7.054  0.1956 -0.9348  0.3339
  127OSM    H7S13590   2.095   4.801   7.024  0.2901 -0.5911  0.4941
  127OSM    H7T13591   2.267   4.822   7.001 -2.5405  1.8173 -0.5039
  127OSM    C8S13592   2.201   4.761   7.203 -0.5635 -0.0073 -0.9036
  127OSM    H8S13593   2.283   4.700   7.248 -1.5907 -0.8263 -0.1134
  127OSM    H8T13594   2.103   4.721   7.236 -0.5679  0.3326 -0.4858
  127OSM    C9S13595   2.213   4.909   7.258 -0.4579 -0.5038 -0.1116
  127OSM    H9S13596   2.132   4.968   7.209  1.2563  0.4066 -2.0250
  127OSM    H9T13597   2.309   4.956   7.230  0.3401 -1.0795  1.5582
  127OSM   C10S13598   2.208   4.914   7.408  0.3301  0.0857  0.5556
  127OSM   H10S13599   2.277   4.851   7.468  0.1221 -2.1015 -1.3758
  127OSM   H10T13600   2.105   4.894   7.444  0.1334 -0.8222 -0.4625
  127OSM   C11S13601   2.217   5.059   7.458 -0.6294  0.5359 -0.4009
  127OSM   H11S13602   2.139   5.126   7.415  1.1813  2.5560 -0.6906
  127OSM   H11T13603   2.310   5.101   7.416  0.4710  0.3709  1.7565
  127OSM   C12S13604   2.216   5.080   7.615  0.2153  0.2619 -0.2082
  127OSM   H12S13605   2.156   4.999   7.661  0.0307 -1.2256 -2.8629
  127OSM   H12T13606   2.165   5.177   7.634 -0.2772  0.0048 -0.2139
  127OSM   C13S13607   2.361   5.075   7.674  0.8256 -0.1346  0.2688
  127OSM   H13S13608   2.420   5.166   7.650 -3.0482  2.4273 -0.4932
  127OSM   H13T13609   2.420   5.008   7.609  1.7376 -0.1728  1.1134
  127OSM   C14S13610   2.385   5.048   7.824  0.4320 -0.1457 -0.1187
  127OSM   H14S13611   2.491   5.065   7.853  0.4711 -0.4454 -0.0909
  127OSM   H14T13612   2.369   4.943   7.854 -0.8389 -0.5861 -2.1811
  127OSM   C15S13613   2.306   5.149   7.915 -0.0781 -0.3742  0.1877
  127OSM   H15S13614   2.198   5.158   7.890 -0.3952 -1.0077  1.2946
  127OSM   H15T13615   2.349   5.251   7.900  0.0061 -0.1966  1.5542
  127OSM   C16S13616   2.315   5.107   8.066  0.2739  0.5866  0.4147
  127OSM   H16S13617   2.415   5.126   8.112 -0.6944  3.0374  1.6516
  127OSM   H16T13618   2.282   5.001   8.072 -0.8380  1.0129  2.6006
  127OSM   C17S13619   2.213   5.173   8.162 -0.3581 -0.4018 -0.2171
  127OSM   H17S13620   2.116   5.124   8.140 -0.2872 -0.1243 -1.1768
  127OSM   H17T13621   2.207   5.282   8.144  3.5778  0.1488  0.9153
  127OSM   C18S13622   2.248   5.160   8.307  0.0656 -0.0460 -0.3225
  127OSM   H18S13623   2.240   5.053   8.338  2.2083 -0.1563  0.0215
  127OSM   H18T13624   2.181   5.220   8.372  2.6258  3.3108 -0.5420
  127OSM   H18U13625   2.347   5.200   8.338 -0.9533  2.1178  0.3277
  127OSM    C1F13626   2.299   4.228   6.654  0.3400  0.0289 -0.5751
  127OSM     OF13627   2.410   4.185   6.631  0.3905  0.2608  0.0888
  127OSM    C2F13628   2.176   4.143   6.681 -0.1473  0.3212 -0.5172
  127OSM    H2F13629   2.154   4.094   6.584 -2.8109 -2.0344  1.1185
  127OSM    H2G13630   2.084   4.203   6.697  0.5664  1.8556 -1.8474
  127OSM    C3F13631   2.209   4.033   6.776  0.3109 -0.4260  0.2870
  127OSM    H3F13632   2.310   3.993   6.752 -0.0192 -0.2310 -1.6553
  127OSM    H3G13633   2.131   3.954   6.767 -1.0741  0.5948  2.4623
  127OSM    C4F13634   2.207   4.081   6.923  0.2761  0.0763 -0.0996
  127OSM    H4F13635   2.292   4.152   6.931 -0.2871  0.5657  2.4736
  127OSM    H4G13636   2.238   3.994   6.985  1.2009  0.1315 -0.4719
  127OSM    C5F13637   2.083   4.150   6.979 -0.3101  0.3995  0.6058
  127OSM    H5F13638   2.019   4.059   6.982  0.9893 -0.5773  0.0577
  127OSM    H5G13639   2.045   4.221   6.903 -0.9345 -0.9720 -0.4249
  127OSM    C6F13640   2.102   4.209   7.118  0.1102 -0.6888  0.3268
  127OSM    H6F13641   2.007   4.257   7.151  0.0262  0.8059 -1.9371
  127OSM    H6G13642   2.168   4.297   7.114 -2.5625  1.3888 -1.2876
  127OSM    C7F13643   2.134   4.109   7.232  0.8209 -0.3628 -0.2316
  127OSM    H7F13644   2.227   4.053   7.209  0.1686 -2.0378  1.0074
  127OSM    H7G13645   2.057   4.029   7.230 -0.3939  0.6567  1.9086
  127OSM    C8F13646   2.150   4.164   7.376 -0.3309 -0.4393  0.0845
  127OSM    H8F13647   2.167   4.084   7.452 -0.7284 -2.0743 -1.4761
  127OSM    H8G13648   2.049   4.198   7.406 -0.2014 -0.6427  0.7747
  127OSM    C9F13649   2.256   4.275   7.378  0.0675  0.3140 -0.6241
  127OSM    H9F13650   2.361   4.242   7.365  0.9054  2.4578  0.2387
  127OSM   C10F13651   2.235   4.405   7.396  0.0618 -0.3582  0.6970
  127OSM   H10F13652   2.318   4.474   7.375  0.5156 -1.1694 -0.2366
  127OSM   C11F13653   2.100   4.469   7.425  0.9587 -0.0856  0.4742
  127OSM   H11F13654   2.022   4.389   7.427  0.3872  0.4475  0.0097
  127OSM   H11G13655   2.071   4.533   7.339  1.0001  0.4841  0.8792
  127OSM   C12F13656   2.098   4.554   7.547  0.2718 -1.0513 -0.0872
  127OSM   H12F13657   1.999   4.604   7.544  0.0088 -1.5864 -0.5139
  127OSM   H12G13658   2.173   4.636   7.538 -1.0090  0.1379 -0.2179
  127OSM   C13F13659   2.107   4.485   7.683  0.2899  0.2006  0.1211
  127OSM   H13F13660   2.103   4.555   7.770  1.7185 -0.2652  0.5928
  127OSM   H13G13661   2.199   4.423   7.687  0.2280  0.1165  0.2660
  127OSM   C14F13662   1.984   4.398   7.702  0.2535 -0.1949 -0.1925
  127OSM   H14F13663   1.996   4.297   7.658  1.0507  0.1549 -0.7934
  127OSM   H14G13664   1.901   4.449   7.648 -0.6471 -1.0453  0.3427
  127OSM   C15F13665   1.964   4.372   7.850 -0.9082  0.4037 -0.7137
  127OSM   H15F13666   1.886   4.294   7.865  0.0057  0.0128  2.9595
  127OSM   H15G13667   1.930   4.460   7.908 -1.0270 -0.7729  1.0922
  127OSM   C16F13668   2.093   4.315   7.921  0.2132 -0.0262 -0.7595
  127OSM   H16F13669   2.188   4.372   7.918  0.1850  0.1157  0.5506
  127OSM   H16G13670   2.117   4.215   7.877  1.1015  0.5231 -1.5524
  127OSM   C17F13671   2.069   4.301   8.075  0.7654  0.0154  0.8145
  127OSM   H17F13672   1.999   4.217   8.090  0.1704  0.5302  0.9941
  127OSM   H17G13673   2.011   4.391   8.103 -1.7863 -1.6546  1.1817
  127OSM   C18F13674   2.189   4.279   8.156 -0.1484 -0.2887  0.0243
  127OSM   H18F13675   2.253   4.368   8.139 -0.2220  0.6149  3.7390
  127OSM   H18G13676   2.244   4.192   8.113 -0.6568 -1.1071  0.9777
  127OSM   H18H13677   2.158   4.274   8.262 -0.4660 -0.6678 -0.0827
  128OSM      N13678   3.574   1.852   6.130  0.7746  0.5323  0.7068
  128OSM    C1513679   3.580   1.841   5.980 -0.1090 -0.4833  0.6290
  128OSM   H15A13680   3.488   1.864   5.928  0.9867  1.6097 -0.5367
  128OSM   H15B13681   3.616   1.745   5.947 -2.6763 -1.9894  1.9287
  128OSM   H15C13682   3.649   1.916   5.943 -0.1772  0.0884  1.6482
  128OSM    C1413683   3.538   1.990   6.164  0.0866  1.2977  0.0168
  128OSM   H14A13684   3.522   2.002   6.270 -2.6244 -1.7696  0.1189
  128OSM   H14B13685   3.447   2.019   6.114 -0.6689  0.4801  0.8814
  128OSM   H14C13686   3.611   2.065   6.137 -1.8562  2.8132 -1.2893
  128OSM    C1313687   3.465   1.760   6.172 -0.4764 -0.3847 -0.2825
  128OSM   H13A13688   3.377   1.798   6.124  0.1392  1.2302 -0.1945
  128OSM   H13B13689   3.456   1.763   6.280  1.9392 -0.9225  0.0034
  128OSM   H13C13690   3.476   1.665   6.121 -3.4570 -0.5756 -0.7172
  128OSM    C1213691   3.704   1.816   6.200  0.2404  0.0920 -0.4318
  128OSM   H12A13692   3.715   1.709   6.191  3.1180  0.3150 -0.4751
  128OSM   H12B13693   3.682   1.829   6.305 -0.9890 -1.8361 -0.3953
  128OSM    C1113694   3.837   1.871   6.147 -0.1371  0.1181  0.7184
  128OSM   H11A13695   3.852   1.838   6.042  0.5262 -2.4393  1.5322
  128OSM   H11B13696   3.922   1.825   6.201 -0.1761 -2.2117 -1.0488
  128OSM      P13697   3.953   2.114   6.187 -0.0868 -0.1752  0.5637
  128OSM    O1313698   4.077   2.076   6.115  0.0244  0.4228 -0.2658
  128OSM    O1413699   3.898   2.251   6.170  0.1681  0.0817  0.5854
  128OSM    O1113700   3.979   2.072   6.338 -0.7317  0.4925  0.1171
  128OSM    O1213701   3.837   2.015   6.142  0.2540 -0.5797  0.6498
  128OSM    C1S13702   3.880   2.104   6.432  1.1861  1.2090  0.3422
  128OSM    H1S13703   3.817   2.012   6.430  0.8086  1.4664 -1.7833
  128OSM    H1T13704   3.811   2.186   6.405 -2.4557 -1.4860  0.7313
  128OSM     NF13705   3.816   2.138   6.662 -0.1175 -0.0743 -0.2999
  128OSM    HNF13706   3.769   2.224   6.684  1.6165  0.8626 -0.1175
  128OSM    C2S13707   3.934   2.133   6.585 -0.2608 -0.6042  0.6352
  128OSM    H2S13708   4.010   2.061   6.622  1.8400  1.7123  1.0277
  128OSM    C3S13709   4.023   2.258   6.581  0.3066 -0.9345 -0.0440
  128OSM    H3S13710   3.948   2.334   6.551  1.0159 -0.1714  0.0632
  128OSM     O313711   4.131   2.249   6.488  0.5387 -0.3944 -0.5109
  128OSM    HO313712   4.099   2.179   6.431 -1.3842 -0.6672  0.7944
  128OSM    C4S13713   4.069   2.296   6.714 -0.1097  0.2513  0.5127
  128OSM    H4S13714   3.988   2.344   6.771  0.8900  0.8841  1.4564
  128OSM    C5S13715   4.193   2.281   6.772 -0.1923  0.1675 -0.1321
  128OSM    H5S13716   4.267   2.222   6.715  0.1021 -0.6439  1.0627
  128OSM    C6S13717   4.227   2.339   6.909 -0.2908  0.1745  0.2467
  128OSM    H6S13718   4.302   2.420   6.913  0.0996 -0.2194  1.5684
  128OSM    H6T13719   4.281   2.256   6.960  0.8236  0.4103 -0.5118
  128OSM    C7S13720   4.114   2.385   7.000 -0.1701 -0.4660 -1.1903
  128OSM    H7S13721   4.028   2.315   7.002  0.4906 -1.3389  2.1673
  128OSM    H7T13722   4.066   2.479   6.964 -2.1543 -0.0054  2.2065
  128OSM    C8S13723   4.160   2.413   7.148 -0.9179  0.3335 -0.1077
  128OSM    H8S13724   4.230   2.499   7.154  1.1561 -1.3470  1.3911
  128OSM    H8T13725   4.227   2.332   7.184 -0.9980  1.0983  1.8468
  128OSM    C9S13726   4.044   2.436   7.252 -0.3450  0.1596  0.4976
  128OSM    H9S13727   3.950   2.388   7.218  0.2907 -1.2900  0.6860
  128OSM    H9T13728   4.020   2.544   7.242  0.1715  0.4930  2.4017
  128OSM   C10S13729   4.078   2.380   7.394 -0.6623 -0.2208 -0.4427
  128OSM   H10S13730   4.168   2.438   7.425 -2.7979  4.8812 -2.5804
  128OSM   H10T13731   4.105   2.273   7.384 -1.5808 -0.8918  3.0369
  128OSM   C11S13732   3.966   2.399   7.492 -0.2327  0.2357 -0.1539
  128OSM   H11S13733   3.872   2.360   7.447 -1.4943 -0.0435  2.5461
  128OSM   H11T13734   3.951   2.507   7.513 -4.3426  0.0155 -1.2244
  128OSM   C12S13735   3.993   2.311   7.615 -0.0380  0.3665 -0.2584
  128OSM   H12S13736   4.092   2.322   7.665  0.4438 -2.0480 -0.5691
  128OSM   H12T13737   4.004   2.208   7.577  1.6509  0.2628  0.4434
  128OSM   C13S13738   3.886   2.308   7.731  0.2047 -0.3307 -0.4078
  128OSM   H13S13739   3.784   2.302   7.688  0.1358  2.6130 -0.8927
  128OSM   H13T13740   3.894   2.399   7.795 -0.3012 -0.2616 -0.4406
  128OSM   C14S13741   3.899   2.179   7.811  0.0759  0.5177  0.1110
  128OSM   H14S13742   4.008   2.163   7.821 -0.2514 -2.0256  0.2617
  128OSM   H14T13743   3.870   2.107   7.732 -1.2990  2.9631 -1.7751
  128OSM   C15S13744   3.839   2.168   7.961  0.5896  0.5958  0.7933
  128OSM   H15S13745   3.870   2.067   7.995 -3.2668 -1.5515 -1.3645
  128OSM   H15T13746   3.730   2.172   7.939  0.4381  1.6990  1.6509
  128OSM   C16S13747   3.897   2.273   8.054  0.2633 -0.4262  0.0806
  128OSM   H16S13748   3.874   2.373   8.012 -2.2390 -1.4058 -1.1177
  128OSM   H16T13749   4.007   2.259   8.054  0.5714  1.3127 -2.9463
  128OSM   C17S13750   3.856   2.261   8.197 -0.2455 -0.1229 -0.9217
  128OSM   H17S13751   3.845   2.154   8.224  1.3602 -0.0839  0.0050
  128OSM   H17T13752   3.754   2.299   8.216 -0.3890 -0.3120 -1.3112
  128OSM   C18S13753   3.961   2.319   8.289  0.2184  0.6445  0.6961
  128OSM   H18S13754   3.966   2.429   8.271 -2.0477  0.2558 -3.7870
  128OSM   H18T13755   4.064   2.282   8.269 -0.1766 -0.1348  0.0366
  128OSM   H18U13756   3.934   2.306   8.396 -1.3768  1.1028  0.3719
  128OSM    C1F13757   3.758   2.025   6.715  0.0784 -0.2661  0.7724
  128OSM     OF13758   3.799   1.910   6.693 -0.0746  0.1804  0.5871
  128OSM    C2F13759   3.635   2.045   6.796  0.5829 -0.2968 -0.1616
  128OSM    H2F13760   3.586   1.949   6.824 -1.3589 -0.1118 -2.5950
  128OSM    H2G13761   3.557   2.088   6.730 -0.2706 -0.3194  0.8033
  128OSM    C3F13762   3.659   2.148   6.910  0.4370 -0.1388  0.3216
  128OSM    H3F13763   3.556   2.171   6.946 -0.2627 -0.0082 -1.6091
  128OSM    H3G13764   3.696   2.243   6.867 -0.0907 -0.1098 -0.0854
  128OSM    C4F13765   3.758   2.117   7.010 -0.6712  0.1842 -0.1178
  128OSM    H4F13766   3.858   2.143   6.970 -0.6218  0.9110  0.4576
  128OSM    H4G13767   3.764   2.012   7.046 -0.0354 -0.0680 -0.9428
  128OSM    C5F13768   3.746   2.200   7.143 -0.1947  0.3453 -0.0237
  128OSM    H5F13769   3.740   2.305   7.105  1.2357  0.0427 -1.1972
  128OSM    H5G13770   3.839   2.182   7.201  1.1981  0.9635 -1.9410
  128OSM    C6F13771   3.614   2.172   7.220 -0.8427 -1.0500  0.3880
  128OSM    H6F13772   3.561   2.076   7.200 -0.3272 -0.9877 -1.4563
  128OSM    H6G13773   3.543   2.251   7.187  0.7863  0.4715  0.3906
  128OSM    C7F13774   3.638   2.202   7.369  0.3372 -0.4322 -0.1405
  128OSM    H7F13775   3.672   2.308   7.378 -0.1278 -0.2727 -0.2570
  128OSM    H7G13776   3.719   2.135   7.404 -0.3377 -1.3226 -0.2626
  128OSM    C8F13777   3.514   2.182   7.463 -0.0692  0.6778  0.4307
  128OSM    H8F13778   3.431   2.241   7.420  0.0200 -0.1343 -0.9362
  128OSM    H8G13779   3.548   2.229   7.558  0.9619 -0.2711  0.5556
  128OSM    C9F13780   3.474   2.038   7.487 -0.9609 -0.1045  0.4213
  128OSM    H9F13781   3.445   1.982   7.396  2.8257  0.2808 -1.2081
  128OSM   C10F13782   3.472   1.967   7.602  0.3253 -0.1980 -0.3774
  128OSM   H10F13783   3.440   1.861   7.603  0.9163 -0.4463  3.3895
  128OSM   C11F13784   3.500   2.034   7.734  0.0589  0.2200  0.3999
  128OSM   H11F13785   3.593   2.094   7.736  0.9632 -1.1317  2.2523
  128OSM   H11G13786   3.504   1.952   7.810 -4.4035 -1.3838 -0.8007
  128OSM   C12F13787   3.382   2.119   7.785  0.2559 -0.5377 -0.3098
  128OSM   H12F13788   3.297   2.048   7.796 -1.0864  0.9994 -0.4884
  128OSM   H12G13789   3.351   2.200   7.715 -0.6694  0.4364  1.1789
  128OSM   C13F13790   3.419   2.181   7.917 -0.1803 -0.4146  0.2236
  128OSM   H13F13791   3.513   2.237   7.895 -1.6415  1.3896 -1.7793
  128OSM   H13G13792   3.437   2.096   7.987 -1.5928 -0.1393  0.9664
  128OSM   C14F13793   3.314   2.265   7.991  1.0954 -0.5779  0.7874
  128OSM   H14F13794   3.217   2.211   7.985  1.9266 -2.1907  1.1696
  128OSM   H14G13795   3.293   2.368   7.955  2.0929 -0.7740 -0.4321
  128OSM   C15F13796   3.343   2.275   8.136 -0.1804  0.1657 -0.1826
  128OSM   H15F13797   3.441   2.312   8.173  0.5030 -2.1981  0.5560
  128OSM   H15G13798   3.350   2.170   8.173  0.6681  0.5908  0.9256
  128OSM   C16F13799   3.219   2.330   8.214 -0.2173 -0.2093 -0.4398
  128OSM   H16F13800   3.225   2.315   8.324  0.0367  2.2961 -0.0559
  128OSM   H16G13801   3.129   2.267   8.195  0.2879 -1.5245  1.3379
  128OSM   C17F13802   3.198   2.483   8.207  0.2083  0.1802 -0.6607
  128OSM   H17F13803   3.227   2.515   8.105  0.0145 -2.1839 -1.5335
  128OSM   H17G13804   3.259   2.528   8.289 -1.5283  0.7760  0.3629
  128OSM   C18F13805   3.051   2.520   8.234 -0.4387  0.4787 -0.1739
  128OSM   H18F13806   2.992   2.440   8.184 -0.5178 -0.9115  2.0037
  128OSM   H18G13807   3.032   2.620   8.190 -1.0528  1.1919  1.6003
  128OSM   H18H13808   3.030   2.516   8.343  1.5114 -0.1717  0.2196
  129OSM      N13809   1.509   4.902   5.879  0.5186  0.1507 -0.1455
  129OSM    C1513810   1.549   4.760   5.839 -0.2286 -0.5468  0.2031
  129OSM   H15A13811   1.588   4.744   5.740  0.6751 -2.5992  0.8438
  129OSM   H15B13812   1.467   4.691   5.843 -1.8296  1.2916  0.9874
  129OSM   H15C13813   1.617   4.723   5.914 -0.5668 -0.9609  0.3064
  129OSM    C1413814   1.619   5.000   5.843 -0.5809 -0.3734 -0.0463
  129OSM   H14A13815   1.714   4.970   5.886 -0.0976 -2.3661 -2.2757
  129OSM   H14B13816   1.593   5.102   5.866 -0.4425 -0.4509  0.4755
  129OSM   H14C13817   1.637   4.994   5.737  3.2896  0.6252  0.4024
  129OSM    C1313818   1.386   4.934   5.807 -0.5269  0.1720 -0.1525
  129OSM   H13A13819   1.405   4.933   5.701 -0.2374 -0.2073 -0.0964
  129OSM   H13B13820   1.346   5.031   5.833 -1.4714 -0.4011  0.5801
  129OSM   H13C13821   1.303   4.871   5.833 -2.6327  1.4369 -3.2316
  129OSM    C1213822   1.478   4.907   6.030 -0.7377 -0.1121 -0.1935
  129OSM   H12A13823   1.394   4.843   6.053 -1.2187  0.4725 -0.3045
  129OSM   H12B13824   1.467   5.013   6.048 -1.8629 -0.5521  2.0044
  129OSM    C1113825   1.591   4.860   6.124  0.6727  0.3095 -0.0515
  129OSM   H11A13826   1.572   4.903   6.224  1.1433  0.4170 -0.0097
  129OSM   H11B13827   1.681   4.916   6.091  1.5181 -1.5595 -1.0341
  129OSM      P13828   1.530   4.615   6.200  0.2284  0.2933  0.2908
  129OSM    O1313829   1.384   4.635   6.171 -0.2412 -0.2022  0.7247
  129OSM    O1413830   1.586   4.481   6.182 -0.0265 -0.3639  0.4360
  129OSM    O1113831   1.564   4.665   6.342  0.2393 -0.3225 -0.1987
  129OSM    O1213832   1.611   4.716   6.112 -0.3803 -0.7730 -0.7321
  129OSM    C1S13833   1.466   4.705   6.440 -0.3414  0.2319 -0.3480
  129OSM    H1S13834   1.378   4.637   6.434  0.2787 -0.5398 -0.8922
  129OSM    H1T13835   1.431   4.806   6.410  1.8296  1.0436 -0.3237
  129OSM     NF13836   1.427   4.752   6.678  0.0282 -0.3023 -0.1554
  129OSM    HNF13837   1.440   4.837   6.729  0.0972  0.6101 -1.6385
  129OSM    C2S13838   1.529   4.722   6.581  0.5510  0.7674 -0.2724
  129OSM    H2S13839   1.568   4.624   6.616 -0.4773  1.2195  2.4213
  129OSM    C3S13840   1.645   4.821   6.588  0.4724 -0.1346  0.3413
  129OSM    H3S13841   1.617   4.924   6.559  1.2949 -0.1599 -0.6007
  129OSM     O313842   1.741   4.788   6.490 -0.5425  0.2179  0.6484
  129OSM    HO313843   1.690   4.751   6.418 -2.0551  1.7275  0.8552
  129OSM    C4S13844   1.711   4.832   6.718 -0.9037 -0.3570 -0.1581
  129OSM    H4S13845   1.782   4.750   6.739 -0.4977 -0.3433 -1.3753
  129OSM    C5S13846   1.709   4.938   6.803  0.1249 -0.0909  0.4881
  129OSM    H5S13847   1.656   5.030   6.775  2.4832  1.0769 -0.3938
  129OSM    C6S13848   1.784   4.948   6.925  0.6109 -0.0336  0.2901
  129OSM    H6S13849   1.870   5.018   6.912  0.4918  0.2738  1.1187
  129OSM    H6T13850   1.838   4.852   6.939 -1.9541 -2.1063 -2.5567
  129OSM    C7S13851   1.712   5.006   7.046  0.1436  0.1664  0.3059
  129OSM    H7S13852   1.619   4.952   7.072 -0.1175 -0.2427 -1.3595
  129OSM    H7T13853   1.676   5.110   7.027 -0.3821 -0.2687 -1.2275
  129OSM    C8S13854   1.799   4.995   7.179 -0.2802 -0.2387 -0.0687
  129OSM    H8S13855   1.884   5.065   7.162 -0.8753  0.1957 -1.3582
  129OSM    H8T13856   1.839   4.892   7.190  0.5689 -0.1152 -1.6193
  129OSM    C9S13857   1.722   5.029   7.308 -0.3036  0.2483  0.2603
  129OSM    H9S13858   1.647   4.950   7.329  2.2871 -2.6929 -0.8051
  129OSM    H9T13859   1.682   5.131   7.290 -0.0052  0.4227  0.5614
  129OSM   C10S13860   1.808   5.029   7.432  0.5827 -0.6210  0.4752
  129OSM   H10S13861   1.900   5.088   7.408  1.6906 -2.4670 -0.0080
  129OSM   H10T13862   1.840   4.926   7.457  1.0997 -0.3215  1.0816
  129OSM   C11S13863   1.743   5.097   7.550 -0.8738  0.5609 -0.3617
  129OSM   H11S13864   1.653   5.040   7.583 -0.2975 -0.1444  0.0079
  129OSM   H11T13865   1.713   5.202   7.530 -0.7266  0.4108 -1.4361
  129OSM   C12S13866   1.840   5.110   7.676  0.5016  0.1247  0.5959
  129OSM   H12S13867   1.909   5.190   7.640 -2.0196  0.6570 -3.8684
  129OSM   H12T13868   1.899   5.019   7.696 -0.2902 -0.5217  0.0525
  129OSM   C13S13869   1.759   5.155   7.802 -0.4535  0.0034 -0.3069
  129OSM   H13S13870   1.674   5.084   7.815  0.9763 -1.4529  1.8758
  129OSM   H13T13871   1.715   5.254   7.778  1.8503  1.1948  0.0738
  129OSM   C14S13872   1.849   5.162   7.920  0.0835  0.3189  0.0719
  129OSM   H14S13873   1.929   5.239   7.919  1.8875 -1.3972 -2.6518
  129OSM   H14T13874   1.905   5.068   7.937  0.9485  0.4902 -1.6326
  129OSM   C15S13875   1.770   5.181   8.050  0.1095  0.2073 -0.0887
  129OSM   H15S13876   1.691   5.105   8.062  1.2719 -0.8419  1.1890
  129OSM   H15T13877   1.715   5.277   8.038 -0.4029  0.1155  1.4252
  129OSM   C16S13878   1.841   5.184   8.187  0.0974 -0.2140  0.5703
  129OSM   H16S13879   1.940   5.232   8.175 -1.0730  1.9265 -1.1209
  129OSM   H16T13880   1.847   5.081   8.228 -1.3234 -0.1422  1.0183
  129OSM   C17S13881   1.758   5.273   8.287 -0.5487  0.2309  0.7262
  129OSM   H17S13882   1.662   5.224   8.312 -1.3244  0.9386 -0.7477
  129OSM   H17T13883   1.737   5.368   8.233 -0.6233  0.7158  1.5931
  129OSM   C18S13884   1.826   5.312   8.421  0.2717 -0.5347  0.3081
  129OSM   H18S13885   1.903   5.390   8.404 -0.0385 -0.3525 -0.2966
  129OSM   H18T13886   1.879   5.226   8.465 -0.0659 -1.5650 -1.2117
  129OSM   H18U13887   1.768   5.366   8.499  2.5672  0.3590  1.5038
  129OSM    C1F13888   1.322   4.670   6.711  0.2657 -0.5439 -0.1065
  129OSM     OF13889   1.303   4.576   6.638  0.6740 -0.0146 -0.2130
  129OSM    C2F13890   1.260   4.699   6.840  0.5007  0.4794  0.2028
  129OSM    H2F13891   1.222   4.802   6.857  0.2973  0.5595 -0.7093
  129OSM    H2G13892   1.329   4.664   6.920 -0.1104  0.2261  0.6288
  129OSM    C3F13893   1.143   4.598   6.855 -1.1920  0.0752 -0.0535
  129OSM    H3F13894   1.192   4.499   6.847  2.2375  1.4780  1.8308
  129OSM    H3G13895   1.076   4.599   6.766  0.4708 -3.5217 -1.5285
  129OSM    C4F13896   1.062   4.595   6.983 -0.3057  0.2504 -0.7362
  129OSM    H4F13897   0.984   4.519   6.960  0.5053 -0.5943 -0.7613
  129OSM    H4G13898   1.022   4.697   6.999 -0.1571 -0.1086  2.6217
  129OSM    C5F13899   1.136   4.541   7.105 -0.3080 -0.2974  0.5506
  129OSM    H5F13900   1.214   4.613   7.137  0.4420 -0.3417 -1.1015
  129OSM    H5G13901   1.178   4.445   7.068 -0.7866 -0.4692  0.4478
  129OSM    C6F13902   1.043   4.502   7.223 -0.0647 -0.2301 -0.0845
  129OSM    H6F13903   0.982   4.593   7.238  1.1344  1.0182 -2.2463
  129OSM    H6G13904   1.109   4.471   7.307  2.8130 -0.9481 -2.4277
  129OSM    C7F13905   0.970   4.374   7.194  0.6808  0.7841  0.3853
  129OSM    H7F13906   1.049   4.296   7.193  1.0816  1.1873 -0.8124
  129OSM    H7G13907   0.922   4.390   7.095 -1.2249  0.8149  1.2534
  129OSM    C8F13908   0.859   4.327   7.286  0.2756 -0.5150  0.5923
  129OSM    H8F13909   0.795   4.255   7.231 -0.7299 -0.1810  1.2982
  129OSM    H8G13910   0.804   4.418   7.317 -1.8605 -1.6715  0.4516
  129OSM    C9F13911   0.920   4.272   7.419 -0.1444 -0.4076  0.0299
  129OSM    H9F13912   0.976   4.178   7.407  0.8782  0.3426 -1.5069
  129OSM   C10F13913   0.935   4.321   7.539  0.2670 -0.0640  0.8132
  129OSM   H10F13914   0.994   4.263   7.612  3.8322  0.9605 -1.0008
  129OSM   C11F13915   0.875   4.451   7.588 -0.3484 -0.0905 -0.2094
  129OSM   H11F13916   0.815   4.507   7.513 -1.6962  0.3422  1.1485
  129OSM   H11G13917   0.952   4.527   7.613  0.6782 -0.6864 -1.4553
  129OSM   C12F13918   0.773   4.424   7.701 -0.3937 -0.3456 -0.3611
  129OSM   H12F13919   0.689   4.358   7.671 -0.8242 -0.2566  0.6263
  129OSM   H12G13920   0.724   4.521   7.726 -2.6330 -1.0279 -1.7802
  129OSM   C13F13921   0.816   4.362   7.836 -0.0226 -0.6489  0.1142
  129OSM   H13F13922   0.905   4.419   7.870 -0.7941  0.2836  0.6068
  129OSM   H13G13923   0.854   4.260   7.812 -2.3080 -0.9240 -3.1006
  129OSM   C14F13924   0.709   4.332   7.942  0.4069  0.0011 -0.1008
  129OSM   H14F13925   0.623   4.278   7.898  0.8269 -1.5633  0.9054
  129OSM   H14G13926   0.674   4.434   7.970  0.8949 -0.0887  0.9135
  129OSM   C15F13927   0.760   4.253   8.064 -0.0083  0.2888 -0.2841
  129OSM   H15F13928   0.839   4.315   8.112 -0.1711 -0.4544  0.9954
  129OSM   H15G13929   0.822   4.171   8.022  0.5426  1.3134 -1.5356
  129OSM   C16F13930   0.659   4.209   8.171 -1.0073  0.7049  0.6648
  129OSM   H16F13931   0.725   4.158   8.244  0.4342  0.5502 -0.6919
  129OSM   H16G13932   0.591   4.135   8.122  1.8969 -1.2736 -0.6429
  129OSM   C17F13933   0.598   4.326   8.234  0.0724 -0.0698 -0.1558
  129OSM   H17F13934   0.507   4.344   8.172 -0.7825 -0.9030  0.8116
  129OSM   H17G13935   0.660   4.418   8.235 -0.4889  0.3123  0.0143
  129OSM   C18F13936   0.549   4.302   8.372  0.0631  0.2277  0.7275
  129OSM   H18F13937   0.488   4.387   8.409  0.2198  0.4699  0.4365
  129OSM   H18G13938   0.637   4.277   8.434  2.3982 -1.2450 -2.8276
  129OSM   H18H13939   0.484   4.213   8.373  1.5349 -0.9291 -0.7296
  130OSM      N13940   3.978   1.137   6.232 -0.3011  0.2812 -0.2038
  130OSM    C1513941   4.087   1.203   6.299 -0.4837 -0.3028 -0.0282
  130OSM   H15A13942   4.098   1.308   6.276  0.4717 -0.2101  0.7446
  130OSM   H15B13943   4.186   1.171   6.271  1.1312  2.0746  2.4283
  130OSM   H15C13944   4.071   1.191   6.405  0.3059 -1.5196 -0.0231
  130OSM    C1413945   3.846   1.182   6.291 -0.1244  0.6197 -0.2625
  130OSM   H14A13946   3.837   1.286   6.264  3.1415  1.0085 -0.3496
  130OSM   H14B13947   3.856   1.168   6.398  1.0217 -0.3121 -0.4637
  130OSM   H14C13948   3.770   1.116   6.252  0.2983  0.0648 -0.1657
  130OSM    C1313949   3.981   1.165   6.088  0.5716 -0.6942 -0.3116
  130OSM   H13A13950   3.902   1.111   6.038  1.0898 -1.4021 -0.3832
  130OSM   H13B13951   4.078   1.143   6.045  0.1917 -1.6902 -0.7012
  130OSM   H13C13952   3.970   1.272   6.076 -1.8888 -0.4289  2.8770
  130OSM    C1213953   3.982   0.982   6.264 -0.3969  0.1346 -0.0187
  130OSM   H12A13954   3.892   0.944   6.217  0.3027  2.7494 -3.9090
  130OSM   H12B13955   3.974   0.973   6.371 -0.4961  0.2867 -0.0116
  130OSM    C1113956   4.097   0.887   6.222  0.0571 -0.2044 -0.8066
  130OSM   H11A13957   4.108   0.900   6.112  4.1549 -2.5696 -0.8513
  130OSM   H11B13958   4.051   0.788   6.241 -1.5422  0.5685 -0.4704
  130OSM      P13959   4.360   0.870   6.240  0.0174  0.3072 -0.7184
  130OSM    O1313960   4.362   0.768   6.131 -0.3919  0.3283  0.0488
  130OSM    O1413961   4.414   1.003   6.204  0.4703 -0.0520 -0.3380
  130OSM    O1113962   4.445   0.819   6.360  0.1040  0.0671 -0.5520
  130OSM    O1213963   4.212   0.892   6.307 -0.7275  0.1671 -0.6404
  130OSM    C1S13964   4.455   0.901   6.477 -0.2572  0.5886 -0.1412
  130OSM    H1S13965   4.376   0.978   6.479  0.1441  1.0415 -0.9441
  130OSM    H1T13966   4.544   0.966   6.460 -1.6570  1.9401 -3.0486
  130OSM     NF13967   4.455   0.916   6.725 -0.5414 -0.7322  0.2713
  130OSM    HNF13968   4.526   0.933   6.792 -1.4078  1.4767  0.7299
  130OSM    C2S13969   4.463   0.823   6.612  0.5580 -0.2794 -0.0227
  130OSM    H2S13970   4.371   0.760   6.620  0.4879  0.0216  2.4199
  130OSM    C3S13971   4.578   0.730   6.619  0.0503  0.5549 -0.7882
  130OSM    H3S13972   4.671   0.792   6.618  0.2979  0.1835 -1.1589
  130OSM     O313973   4.589   0.636   6.514 -0.2314  1.0439  0.2194
  130OSM    HO313974   4.528   0.667   6.448 -0.1600 -1.9925 -1.4677
  130OSM    C4S13975   4.578   0.650   6.747 -0.0772 -0.5878 -0.6132
  130OSM    H4S13976   4.485   0.593   6.763 -0.2107 -0.4219 -0.7972
  130OSM    C5S13977   4.676   0.645   6.841  0.8415  0.2381 -0.8430
  130OSM    H5S13978   4.764   0.709   6.832  0.3196  1.3009  1.0498
  130OSM    C6S13979   4.663   0.576   6.978 -0.0158 -0.1947 -0.3881
  130OSM    H6S13980   4.708   0.474   6.984  1.7246  0.5971  1.1767
  130OSM    H6T13981   4.558   0.557   7.009  0.0997  0.0927  0.2053
  130OSM    C7S13982   4.726   0.675   7.079 -0.1301 -0.2391  0.4678
  130OSM    H7S13983   4.696   0.780   7.061  1.2461 -0.0102 -0.6196
  130OSM    H7T13984   4.837   0.678   7.076 -0.1239 -0.7635  0.0056
  130OSM    C8S13985   4.693   0.642   7.231 -0.1194  0.2091 -0.1609
  130OSM    H8S13986   4.583   0.636   7.239 -0.0997  0.1066  0.0435
  130OSM    H8T13987   4.727   0.729   7.291  0.5007 -0.7359  0.9049
  130OSM    C9S13988   4.767   0.519   7.290 -0.4592 -0.8995  0.3537
  130OSM    H9S13989   4.875   0.543   7.286 -0.8624  1.0629  0.2953
  130OSM    H9T13990   4.747   0.437   7.217  0.9298 -1.1925  0.2691
  130OSM   C10S13991   4.720   0.474   7.432 -0.5447 -0.5137 -0.2090
  130OSM   H10S13992   4.770   0.383   7.471 -1.4871 -0.2299  1.7732
  130OSM   H10T13993   4.612   0.450   7.424 -0.6974  0.5079 -1.9137
  130OSM   C11S13994   4.744   0.588   7.534 -0.2535  0.4413 -0.8371
  130OSM   H11S13995   4.671   0.671   7.526 -1.4389 -0.3569  1.1418
  130OSM   H11T13996   4.847   0.631   7.528  1.0669 -2.2771  0.3465
  130OSM   C12S13997   4.720   0.525   7.672 -0.3457 -0.5185 -0.3760
  130OSM   H12S13998   4.804   0.452   7.678  2.0052  2.0291 -0.6374
  130OSM   H12T13999   4.618   0.481   7.678 -0.3404 -0.8598 -2.3113
  130OSM   C13S14000   4.744   0.634   7.777  0.6115 -0.2670 -0.6880
  130OSM   H13S14001   4.660   0.707   7.774  0.2203 -0.7189 -1.0430
  130OSM   H13T14002   4.833   0.688   7.738  0.9459 -1.6557 -1.9468
  130OSM   C14S14003   4.749   0.594   7.925 -0.5200 -0.4320  0.2125
  130OSM   H14S14004   4.824   0.512   7.936 -0.6131 -0.6820 -0.9505
  130OSM   H14T14005   4.650   0.556   7.958 -0.9616 -2.5452 -3.1600
  130OSM   C15S14006   4.788   0.703   8.028  0.4019 -0.2289 -0.3627
  130OSM   H15S14007   4.739   0.800   8.007  2.0990  1.0369  1.2331
  130OSM   H15T14008   4.893   0.731   8.009  0.0694  1.2770 -0.0766
  130OSM   C16S14009   4.781   0.653   8.172  0.2422 -0.1067 -0.6203
  130OSM   H16S14010   4.837   0.557   8.176  1.5878  0.6756  0.4795
  130OSM   H16T14011   4.677   0.629   8.203  0.7947 -0.8971  0.6822
  130OSM   C17S14012   4.847   0.745   8.276  0.4992 -0.8713  0.1184
  130OSM   H17S14013   4.800   0.845   8.277  3.0933  0.4818 -1.5260
  130OSM   H17T14014   4.946   0.761   8.228  0.1152 -2.9647 -1.5348
  130OSM   C18S14015   4.847   0.689   8.414 -0.9373 -0.4532 -0.3116
  130OSM   H18S14016   4.867   0.772   8.486  1.6400  0.1085 -1.5476
  130OSM   H18T14017   4.934   0.620   8.425  3.5357  4.2922 -1.8232
  130OSM   H18U14018   4.754   0.632   8.430 -0.4840 -0.6803  1.8355
  130OSM    C1F14019   4.358   1.001   6.746  0.3738 -0.0866  0.1770
  130OSM     OF14020   4.239   0.994   6.705  0.3089  0.7796  0.1344
  130OSM    C2F14021   4.402   1.118   6.832  0.4914 -1.3185  0.7131
  130OSM    H2F14022   4.421   1.203   6.764 -0.3710 -2.0757 -0.5085
  130OSM    H2G14023   4.494   1.091   6.888  0.3843 -2.0635  0.5355
  130OSM    C3F14024   4.285   1.154   6.923 -0.4172  0.0289 -0.1656
  130OSM    H3F14025   4.234   1.062   6.959 -0.5330  0.4261  0.7195
  130OSM    H3G14026   4.204   1.198   6.860  0.5049 -0.5789 -1.8290
  130OSM    C4F14027   4.315   1.265   7.032 -0.5513  0.0983  0.2900
  130OSM    H4F14028   4.220   1.312   7.064 -0.2985  0.1818  0.9446
  130OSM    H4G14029   4.392   1.341   7.007  0.1513  0.5382  3.3775
  130OSM    C5F14030   4.363   1.193   7.157  0.6702  0.0570  0.2226
  130OSM    H5F14031   4.458   1.138   7.141 -0.7783 -2.4349 -0.3273
  130OSM    H5G14032   4.293   1.110   7.178  1.3538 -0.6309 -0.1777
  130OSM    C6F14033   4.376   1.279   7.275 -0.1204  0.6780 -0.6259
  130OSM    H6F14034   4.290   1.346   7.297  0.1106  0.9038 -0.4007
  130OSM    H6G14035   4.461   1.351   7.280 -0.8943  1.6520 -1.0330
  130OSM    C7F14036   4.386   1.206   7.411  1.2372 -0.2636 -0.2267
  130OSM    H7F14037   4.471   1.136   7.399  0.2845 -1.8574  1.7641
  130OSM    H7G14038   4.298   1.142   7.430  1.7679 -1.4087 -1.4489
  130OSM    C8F14039   4.418   1.299   7.530 -0.3207 -0.3811  0.7574
  130OSM    H8F14040   4.327   1.360   7.548  0.1166  1.7046 -3.0240
  130OSM    H8G14041   4.505   1.366   7.509  0.7588 -2.2669 -1.3301
  130OSM    C9F14042   4.465   1.226   7.655  0.8917  0.4818 -1.1829
  130OSM    H9F14043   4.517   1.131   7.636  2.2366  1.4718 -2.7260
  130OSM   C10F14044   4.454   1.271   7.779  0.0642  0.0982 -0.3481
  130OSM   H10F14045   4.490   1.214   7.866 -1.8044  0.4393  0.6930
  130OSM   C11F14046   4.400   1.407   7.824  0.1869 -0.1339  0.4113
  130OSM   H11F14047   4.303   1.380   7.870  1.0150 -2.3510  1.0268
  130OSM   H11G14048   4.390   1.485   7.746  0.7373  0.8658  1.3182
  130OSM   C12F14049   4.487   1.472   7.926 -0.0171  0.1738 -0.4869
  130OSM   H12F14050   4.578   1.526   7.893  0.7475 -1.7657 -1.7498
  130OSM   H12G14051   4.526   1.392   7.993 -0.0310  0.2014 -0.4456
  130OSM   C13F14052   4.410   1.571   8.012  0.0442  0.2860  0.5381
  130OSM   H13F14053   4.321   1.511   8.044 -0.7200 -0.0930 -2.0496
  130OSM   H13G14054   4.359   1.643   7.945 -2.5292 -2.3001 -0.5006
  130OSM   C14F14055   4.478   1.631   8.137 -0.3582 -0.3519 -0.3258
  130OSM   H14F14056   4.516   1.560   8.214  1.1529  1.8326  1.0763
  130OSM   H14G14057   4.408   1.702   8.186  0.8942 -0.2685  1.4511
  130OSM   C15F14058   4.591   1.731   8.100  0.4472  0.7495  0.0036
  130OSM   H15F14059   4.558   1.783   8.008 -1.3361 -1.9697 -1.0347
  130OSM   H15G14060   4.673   1.668   8.061 -0.3935 -0.8486  0.7114
  130OSM   C16F14061   4.632   1.819   8.217 -0.1427  0.2255  0.7646
  130OSM   H16F14062   4.668   1.759   8.303 -2.8704 -3.2767 -0.3012
  130OSM   H16G14063   4.544   1.878   8.252  0.0697  0.0965  1.5274
  130OSM   C17F14064   4.732   1.927   8.162 -0.1914 -0.1371 -0.4490
  130OSM   H17F14065   4.705   1.968   8.062  3.2331 -0.1405 -1.5104
  130OSM   H17G14066   4.823   1.864   8.150 -0.5997 -0.6697 -0.8002
  130OSM   C18F14067   4.763   2.029   8.271 -0.7159  0.1716  0.0854
  130OSM   H18F14068   4.795   1.976   8.364 -3.4162 -0.1769  0.9108
  130OSM   H18G14069   4.672   2.093   8.279 -1.2442 -0.4744 -0.6265
  130OSM   H18H14070   4.848   2.095   8.243  0.0323 -0.6667  0.3235
  131OSM      N14071   3.511   3.159   5.731 -0.0725 -0.3187 -0.0861
  131OSM    C1514072   3.566   3.034   5.790  0.5023  0.0408 -0.4700
  131OSM   H15A14073   3.622   2.973   5.720  1.3771  0.5216 -0.2059
  131OSM   H15B14074   3.480   2.974   5.818  0.9040 -0.7348 -0.8735
  131OSM   H15C14075   3.617   3.061   5.882 -1.1284  0.8503  0.2546
  131OSM    C1414076   3.629   3.253   5.695 -0.0256  0.2493  0.4802
  131OSM   H14A14077   3.698   3.215   5.620 -1.0902 -1.2275  0.1961
  131OSM   H14B14078   3.694   3.289   5.773  0.5762 -1.1195  0.6448
  131OSM   H14C14079   3.585   3.343   5.657  1.6533  0.4359 -1.1984
  131OSM    C1314080   3.448   3.122   5.594  0.3080  0.5377  0.2347
  131OSM   H13A14081   3.374   3.045   5.602  0.2232  0.2417 -2.4262
  131OSM   H13B14082   3.534   3.093   5.535  0.4562 -1.4148  1.3272
  131OSM   H13C14083   3.403   3.204   5.539 -0.2430  0.4027  0.4792
  131OSM    C1214084   3.405   3.236   5.806  0.2888  0.7163  0.9131
  131OSM   H12A14085   3.320   3.170   5.807 -0.2366  1.3122 -0.8710
  131OSM   H12B14086   3.376   3.322   5.747 -0.8995 -0.0451  0.3697
  131OSM    C1114087   3.438   3.265   5.958 -0.9450 -0.6618 -0.5851
  131OSM   H11A14088   3.522   3.335   5.978 -0.1684 -1.2768 -1.6118
  131OSM   H11B14089   3.475   3.168   5.999  1.6841 -0.0016 -1.1754
  131OSM      P14090   3.200   3.231   6.064  0.3942  0.1953  0.1085
  131OSM    O1314091   3.115   3.319   6.143  0.6856  0.3015  0.2317
  131OSM    O1414092   3.132   3.159   5.954 -0.0021  0.1747 -0.5053
  131OSM    O1114093   3.259   3.129   6.166  0.3601  0.2965  0.1563
  131OSM    O1214094   3.319   3.317   6.019  0.0609  0.1063 -0.1982
  131OSM    C1S14095   3.356   3.152   6.268  0.2717 -0.5266 -0.1247
  131OSM    H1S14096   3.360   3.256   6.307  2.7399 -1.1746  1.6388
  131OSM    H1T14097   3.457   3.129   6.227  0.4456 -0.6759  0.3838
  131OSM     NF14098   3.384   3.118   6.516  0.8199 -0.2080  0.9644
  131OSM    HNF14099   3.468   3.080   6.555  1.8511 -0.2100 -1.1111
  131OSM    C2S14100   3.324   3.060   6.392 -0.0278 -0.1141  0.5349
  131OSM    H2S14101   3.216   3.043   6.408  0.2428 -0.8814  1.7195
  131OSM    C3S14102   3.378   2.921   6.356  0.1589 -0.2425 -0.2623
  131OSM    H3S14103   3.484   2.921   6.323  0.6307 -0.3653  1.2083
  131OSM     O314104   3.308   2.863   6.246 -0.2450 -0.1137  0.1647
  131OSM    HO314105   3.240   2.928   6.226  0.1987  0.1414 -0.5562
  131OSM    C4S14106   3.373   2.829   6.473 -0.0377  0.5138  0.0767
  131OSM    H4S14107   3.463   2.845   6.535  0.2548  0.3315 -0.2971
  131OSM    C5S14108   3.275   2.741   6.506 -0.4225  0.3615 -0.0753
  131OSM    H5S14109   3.199   2.720   6.429 -1.6099  1.2500  0.8229
  131OSM    C6S14110   3.280   2.653   6.626  0.4410  0.4011 -0.8726
  131OSM    H6S14111   3.280   2.548   6.589  1.5009  0.2541 -0.4965
  131OSM    H6T14112   3.188   2.658   6.687  2.0089  0.9292  1.6029
  131OSM    C7S14113   3.397   2.653   6.719  0.1865 -0.0494 -0.2144
  131OSM    H7S14114   3.403   2.757   6.757  1.1879 -0.5654  1.1603
  131OSM    H7T14115   3.489   2.629   6.662  0.7969  1.9274 -0.1354
  131OSM    C8S14116   3.410   2.539   6.824  0.1876  0.3693 -0.3596
  131OSM    H8S14117   3.517   2.554   6.847  0.6377  0.7997 -2.4951
  131OSM    H8T14118   3.382   2.440   6.783 -0.2142  0.3810 -0.1186
  131OSM    C9S14119   3.320   2.554   6.952  0.1403 -0.4703  0.6754
  131OSM    H9S14120   3.213   2.552   6.921  0.7254 -0.9543 -1.4607
  131OSM    H9T14121   3.347   2.651   6.999  1.5813  0.5926 -2.0984
  131OSM   C10S14122   3.340   2.434   7.046 -0.5519 -0.0942  0.2853
  131OSM   H10S14123   3.445   2.432   7.084 -0.7979  0.1242  0.9876
  131OSM   H10T14124   3.309   2.340   6.996 -0.0019  0.3919 -1.0101
  131OSM   C11S14125   3.247   2.431   7.168 -0.3934 -0.0556  0.4987
  131OSM   H11S14126   3.285   2.350   7.234  1.2147 -0.1499 -0.4928
  131OSM   H11T14127   3.145   2.405   7.132  0.0569  0.0434 -0.9166
  131OSM   C12S14128   3.244   2.564   7.239  0.0482  0.0523  0.4734
  131OSM   H12S14129   3.152   2.620   7.209  2.2123  3.8318  0.2828
  131OSM   H12T14130   3.330   2.628   7.211 -1.7180  1.3648 -2.4467
  131OSM   C13S14131   3.235   2.543   7.386 -0.1171 -0.4667  0.4415
  131OSM   H13S14132   3.188   2.632   7.433 -0.8287  0.4476 -1.8336
  131OSM   H13T14133   3.333   2.527   7.435  0.4799  0.8503 -0.2552
  131OSM   C14S14134   3.149   2.429   7.449  0.4364 -0.7417 -0.5778
  131OSM   H14S14135   3.170   2.325   7.418 -2.0382 -1.5812  0.2764
  131OSM   H14T14136   3.046   2.445   7.409  0.1521  1.5384  0.8583
  131OSM   C15S14137   3.130   2.419   7.600 -0.8740 -0.0442  0.4799
  131OSM   H15S14138   3.224   2.372   7.635  0.3893  1.5579 -0.6222
  131OSM   H15T14139   3.038   2.363   7.627 -1.0609  0.0896  0.1290
  131OSM   C16S14140   3.107   2.558   7.673  0.2208 -0.2124 -0.0281
  131OSM   H16S14141   3.042   2.614   7.603  1.3603  0.8311 -0.2853
  131OSM   H16T14142   3.207   2.606   7.672  0.2935 -0.3758 -1.1388
  131OSM   C17S14143   3.048   2.559   7.813  0.2673  0.4184  0.2423
  131OSM   H17S14144   3.119   2.502   7.878 -1.1807 -0.9530  0.6931
  131OSM   H17T14145   2.948   2.510   7.819  0.2243  0.4940  0.1317
  131OSM   C18S14146   3.037   2.700   7.872  0.0168  0.4341  0.0967
  131OSM   H18S14147   2.972   2.753   7.799  0.3513 -1.7268 -1.8529
  131OSM   H18T14148   3.135   2.749   7.890  2.7659 -4.1278 -0.7702
  131OSM   H18U14149   2.996   2.686   7.975  0.2533 -1.5353 -0.0478
  131OSM    C1F14150   3.335   3.226   6.574 -0.6420  0.1345  0.1885
  131OSM     OF14151   3.243   3.284   6.518 -0.1903 -0.4818 -0.2174
  131OSM    C2F14152   3.416   3.282   6.687  1.3814  0.2577 -0.1615
  131OSM    H2F14153   3.436   3.389   6.665  0.1932  0.5303  0.0474
  131OSM    H2G14154   3.504   3.216   6.699  0.8098 -0.2198  1.6792
  131OSM    C3F14155   3.332   3.283   6.822 -0.0003 -0.6598  0.0364
  131OSM    H3F14156   3.240   3.345   6.810  1.2795  1.1709 -0.9346
  131OSM    H3G14157   3.395   3.334   6.898  1.2032  1.0157 -1.9860
  131OSM    C4F14158   3.285   3.142   6.863  0.2690  0.1826 -0.0470
  131OSM    H4F14159   3.220   3.107   6.781  1.6412 -2.1746 -0.2288
  131OSM    H4G14160   3.218   3.147   6.952 -0.9875 -0.7508 -0.9147
  131OSM    C5F14161   3.396   3.043   6.892 -0.2901 -0.1732 -0.5170
  131OSM    H5F14162   3.471   3.046   6.810 -2.4219  4.8334 -2.6645
  131OSM    H5G14163   3.362   2.937   6.901  0.8729 -0.6231 -1.1497
  131OSM    C6F14164   3.465   3.063   7.030  0.4094  0.0091  0.0171
  131OSM    H6F14165   3.498   3.168   7.048  1.2879 -0.6313  2.6963
  131OSM    H6G14166   3.558   3.001   7.027  0.2501 -0.3117  1.2694
  131OSM    C7F14167   3.372   3.025   7.147  0.5043  0.1929 -0.6814
  131OSM    H7F14168   3.334   2.921   7.138 -0.6505  0.5221  0.1764
  131OSM    H7G14169   3.283   3.091   7.145 -0.2562 -0.8007 -0.4537
  131OSM    C8F14170   3.435   3.040   7.291 -0.0969  0.0231 -0.4530
  131OSM    H8F14171   3.473   3.142   7.312  2.6307 -1.0422  0.1593
  131OSM    H8G14172   3.527   2.979   7.298  0.0271  0.3834  3.5085
  131OSM    C9F14173   3.350   2.997   7.407  0.3112 -0.5034 -0.7424
  131OSM    H9F14174   3.245   2.999   7.377  0.7043 -0.2615 -2.2028
  131OSM   C10F14175   3.381   2.973   7.534  0.0041 -0.5266 -0.7296
  131OSM   H10F14176   3.297   2.955   7.602 -1.0546  0.8061 -1.6158
  131OSM   C11F14177   3.520   2.977   7.593  0.0029  0.1950 -0.7177
  131OSM   H11F14178   3.595   2.997   7.513  1.1930  3.7012  1.0813
  131OSM   H11G14179   3.543   2.871   7.620  0.5431 -0.4712 -3.4749
  131OSM   C12F14180   3.559   3.074   7.707 -0.1369 -0.9119  0.5596
  131OSM   H12F14181   3.542   3.180   7.679 -0.5292 -0.7470  1.3908
  131OSM   H12G14182   3.665   3.061   7.738  0.8548 -1.0019 -2.5304
  131OSM   C13F14183   3.466   3.054   7.826 -0.0654 -0.2351  0.4013
  131OSM   H13F14184   3.440   2.946   7.817 -2.9544  0.4420 -0.3363
  131OSM   H13G14185   3.366   3.101   7.815 -1.6092 -2.5799  3.0154
  131OSM   C14F14186   3.519   3.076   7.972  0.9074 -0.4173  1.2486
  131OSM   H14F14187   3.616   3.030   8.001  1.3107  0.8389  1.9992
  131OSM   H14G14188   3.447   3.036   8.046  0.7238  0.0239  1.3098
  131OSM   C15F14189   3.517   3.228   7.988  0.4877 -0.0516  0.2462
  131OSM   H15F14190   3.444   3.284   7.925  1.4941 -0.4145 -1.3144
  131OSM   H15G14191   3.616   3.259   7.949  0.0778 -0.6223 -1.3319
  131OSM   C16F14192   3.497   3.269   8.138  0.3913  0.3782 -0.0882
  131OSM   H16F14193   3.597   3.274   8.185  0.4071 -0.8365  0.0167
  131OSM   H16G14194   3.440   3.186   8.184 -1.1798  0.9135 -0.9618
  131OSM   C17F14195   3.406   3.398   8.162 -0.2577 -0.5901  0.0156
  131OSM   H17F14196   3.449   3.492   8.120 -0.0501 -1.7133 -2.4720
  131OSM   H17G14197   3.389   3.405   8.271  0.2341  2.5002 -0.0016
  131OSM   C18F14198   3.267   3.392   8.102  0.4517 -0.1362  0.0965
  131OSM   H18F14199   3.203   3.459   8.163  0.5475  0.8109 -0.8086
  131OSM   H18G14200   3.225   3.289   8.102 -3.6348  1.3076  1.6049
  131OSM   H18H14201   3.265   3.433   7.998  0.7167  2.8488  1.1713
  132OSM      N14202   4.279   6.249   6.313  0.3414 -0.0943  0.4540
  132OSM    C1514203   4.395   6.278   6.400 -0.3317 -0.1995  0.8369
  132OSM   H15A14204   4.465   6.196   6.410  0.1670 -0.0108 -0.8743
  132OSM   H15B14205   4.360   6.312   6.497 -0.7169 -0.8099  0.9189
  132OSM   H15C14206   4.438   6.365   6.353  0.6724 -1.6590 -1.0673
  132OSM    C1414207   4.227   6.380   6.244  0.6041  0.8720 -0.3111
  132OSM   H14A14208   4.158   6.356   6.164  2.0718 -1.4864 -1.0103
  132OSM   H14B14209   4.308   6.448   6.221  0.0470  1.2978 -1.0365
  132OSM   H14C14210   4.162   6.441   6.304 -1.5275 -1.4676 -0.0764
  132OSM    C1314211   4.333   6.168   6.195  0.8171  1.0220 -0.0136
  132OSM   H13A14212   4.389   6.083   6.229 -1.5826 -0.6147  0.0533
  132OSM   H13B14213   4.396   6.231   6.133  0.6431 -0.1931 -1.4783
  132OSM   H13C14214   4.252   6.132   6.133  2.1027 -0.2853 -0.9791
  132OSM    C1214215   4.173   6.165   6.380  0.3103 -0.4011  1.3045
  132OSM   H12A14216   4.207   6.066   6.407  1.2989 -0.5920 -0.4570
  132OSM   H12B14217   4.096   6.152   6.304 -2.2786 -0.8712  3.8309
  132OSM    C1114218   4.095   6.229   6.493  0.3354 -0.6506  0.0673
  132OSM   H11A14219   4.172   6.246   6.571 -0.6392 -1.6680  1.2932
  132OSM   H11B14220   4.026   6.148   6.527 -1.1340  0.8479  0.7643
  132OSM      P14221   3.884   6.346   6.394  0.0512 -0.0835 -0.6740
  132OSM    O1314222   3.873   6.483   6.343 -0.2856  0.0616  0.1143
  132OSM    O1414223   3.875   6.232   6.298 -0.7935 -0.2034 -0.2316
  132OSM    O1114224   3.775   6.325   6.494 -0.0270 -0.3772 -0.1832
  132OSM    O1214225   4.017   6.347   6.471  0.3927 -0.4300  0.0348
  132OSM    C1S14226   3.782   6.276   6.627  0.3123 -0.2187 -0.3880
  132OSM    H1S14227   3.887   6.264   6.662  0.5928 -1.1267 -1.4749
  132OSM    H1T14228   3.747   6.170   6.627  3.3621 -1.3326 -1.0461
  132OSM     NF14229   3.721   6.329   6.867  0.9748  0.4788 -0.3819
  132OSM    HNF14230   3.650   6.269   6.905  0.5028  1.9701  1.2210
  132OSM    C2S14231   3.702   6.368   6.725 -0.1918  0.2593 -0.5851
  132OSM    H2S14232   3.747   6.470   6.721 -1.4632  0.9464  1.1639
  132OSM    C3S14233   3.554   6.382   6.682  1.6228  0.0723  0.4571
  132OSM    H3S14234   3.498   6.288   6.704  2.4429 -0.7105 -0.6657
  132OSM     O314235   3.534   6.425   6.546 -0.3556  0.1058  0.0620
  132OSM    HO314236   3.611   6.392   6.499  0.7129  2.3526  0.0815
  132OSM    C4S14237   3.490   6.476   6.777 -0.0488 -0.0109 -0.9167
  132OSM    H4S14238   3.462   6.432   6.874 -0.2964 -0.3792 -1.1565
  132OSM    C5S14239   3.473   6.604   6.762  0.3770  0.1066  0.0898
  132OSM    H5S14240   3.490   6.655   6.665  1.5262 -0.9721 -0.2897
  132OSM    C6S14241   3.418   6.696   6.867 -0.3189 -0.3541 -0.0094
  132OSM    H6S14242   3.316   6.728   6.835  0.7484  1.4137 -1.8721
  132OSM    H6T14243   3.467   6.795   6.852 -1.1029  0.0103 -0.2364
  132OSM    C7S14244   3.419   6.666   7.021  0.0896  0.6106  0.2005
  132OSM    H7S14245   3.358   6.576   7.044 -1.2985  0.7101 -2.7106
  132OSM    H7T14246   3.358   6.745   7.071 -0.7668 -0.5514  1.0401
  132OSM    C8S14247   3.555   6.664   7.093 -0.3774  1.0553  0.5633
  132OSM    H8S14248   3.616   6.744   7.045 -1.4208  1.6406  0.1932
  132OSM    H8T14249   3.610   6.569   7.074 -2.6540 -0.1307 -0.5552
  132OSM    C9S14250   3.551   6.696   7.241 -0.7274  0.0399 -0.1383
  132OSM    H9S14251   3.517   6.801   7.230 -0.3544  0.5729  2.9099
  132OSM    H9T14252   3.649   6.706   7.293 -0.9054  0.0177  0.2038
  132OSM   C10S14253   3.450   6.604   7.318  0.1779 -0.2689 -0.3665
  132OSM   H10S14254   3.498   6.506   7.337 -0.6481 -0.6998 -0.5110
  132OSM   H10T14255   3.358   6.588   7.258  0.5667  0.6258 -1.2455
  132OSM   C11S14256   3.413   6.662   7.454  1.1798  0.1469  0.1104
  132OSM   H11S14257   3.322   6.606   7.484 -0.3295  1.7046 -1.3312
  132OSM   H11T14258   3.394   6.769   7.432  0.4815 -0.1391 -0.7575
  132OSM   C12S14259   3.522   6.656   7.561  0.7629 -0.5348 -0.3750
  132OSM   H12S14260   3.593   6.734   7.526  2.0155 -1.8427 -0.7991
  132OSM   H12T14261   3.567   6.555   7.557 -2.1263 -2.0518  2.0708
  132OSM   C13S14262   3.485   6.695   7.699 -0.4362 -0.2470  0.6119
  132OSM   H13S14263   3.381   6.665   7.725 -0.4241 -1.1561 -0.3486
  132OSM   H13T14264   3.484   6.807   7.696 -0.3464 -0.2438 -2.2135
  132OSM   C14S14265   3.588   6.636   7.796  0.0085 -0.7806  0.6036
  132OSM   H14S14266   3.689   6.658   7.754 -0.0351 -2.4109 -0.4270
  132OSM   H14T14267   3.567   6.528   7.803  0.0287 -1.1108 -2.7758
  132OSM   C15S14268   3.576   6.713   7.931  0.3894 -0.3953  1.1835
  132OSM   H15S14269   3.471   6.717   7.966  0.6357 -1.8980  2.1621
  132OSM   H15T14270   3.610   6.816   7.906  0.5982 -0.5023  1.0175
  132OSM   C16S14271   3.663   6.647   8.040 -0.2104  0.1173 -0.0325
  132OSM   H16S14272   3.762   6.643   7.991  0.0725 -0.1981  0.5614
  132OSM   H16T14273   3.621   6.547   8.064  0.7264 -0.0276  1.1279
  132OSM   C17S14274   3.686   6.737   8.164  0.2719 -0.0158 -0.4415
  132OSM   H17S14275   3.582   6.757   8.197 -0.3797 -1.3949 -1.5168
  132OSM   H17T14276   3.719   6.835   8.124  2.3309 -0.6588 -0.4169
  132OSM   C18S14277   3.787   6.685   8.267  0.7768  0.0570  0.1009
  132OSM   H18S14278   3.765   6.576   8.277 -0.8289  0.2607 -0.8429
  132OSM   H18T14279   3.770   6.737   8.363 -2.3073 -2.1857  0.9165
  132OSM   H18U14280   3.891   6.709   8.236  1.4521 -2.0840  0.5515
  132OSM    C1F14281   3.829   6.337   6.940  0.4906  0.2990  0.3163
  132OSM     OF14282   3.925   6.399   6.900 -0.5662  0.4516 -0.1369
  132OSM    C2F14283   3.822   6.272   7.075 -0.2787  0.2961  0.2829
  132OSM    H2F14284   3.905   6.198   7.066  0.9734  1.5791  0.9902
  132OSM    H2G14285   3.734   6.204   7.079  1.2729 -2.3002 -3.3521
  132OSM    C3F14286   3.837   6.375   7.192  0.4442  0.4337  0.1939
  132OSM    H3F14287   3.760   6.452   7.174  1.3098  1.3320  0.2746
  132OSM    H3G14288   3.936   6.425   7.187  0.3348  0.6740  0.4259
  132OSM    C4F14289   3.830   6.307   7.323  0.0099 -0.4194 -0.8550
  132OSM    H4F14290   3.885   6.211   7.325 -0.5598 -0.9556  4.4398
  132OSM    H4G14291   3.725   6.289   7.354  0.7136 -2.0565  0.7643
  132OSM    C5F14292   3.893   6.389   7.442 -0.0874  0.5886 -0.2709
  132OSM    H5F14293   3.838   6.484   7.462 -0.2739  0.1009  1.7246
  132OSM    H5G14294   3.992   6.416   7.400  0.2132  1.0223  0.6880
  132OSM    C6F14295   3.907   6.301   7.565  0.2373 -0.2359 -0.8118
  132OSM    H6F14296   4.000   6.241   7.556  1.3648  1.2752  0.2768
  132OSM    H6G14297   3.817   6.236   7.574 -1.5685  2.0782 -1.1542
  132OSM    C7F14298   3.901   6.385   7.694  0.1574 -0.5738  0.6817
  132OSM    H7F14299   3.802   6.352   7.731 -0.5629  1.1945  0.4095
  132OSM    H7G14300   3.898   6.494   7.674  3.2881 -0.3218  1.0250
  132OSM    C8F14301   4.010   6.366   7.802 -0.5080  0.2883  0.6998
  132OSM    H8F14302   4.113   6.368   7.762  0.1680  0.4093  2.3575
  132OSM    H8G14303   3.991   6.265   7.842 -0.7287  0.3320  0.7082
  132OSM    C9F14304   3.991   6.468   7.912 -0.2587 -0.0717  0.6059
  132OSM    H9F14305   3.947   6.559   7.869  0.6465 -0.5801 -1.5305
  132OSM   C10F14306   4.010   6.460   8.045  0.8227 -0.0533 -0.2981
  132OSM   H10F14307   3.973   6.544   8.107  0.4110 -1.8443  2.0108
  132OSM   C11F14308   4.040   6.335   8.127  0.6223 -0.3690 -0.1555
  132OSM   H11F14309   4.057   6.244   8.065 -1.5628 -0.5278 -0.6179
  132OSM   H11G14310   3.952   6.318   8.192  1.0362  0.6189  0.6876
  132OSM   C12F14311   4.156   6.352   8.227 -0.1428 -0.0034  0.1286
  132OSM   H12F14312   4.244   6.371   8.162  0.6408 -1.8533  0.6184
  132OSM   H12G14313   4.167   6.254   8.278  1.2316  0.5952  1.0207
  132OSM   C13F14314   4.144   6.452   8.344 -0.7281  0.1094 -0.0967
  132OSM   H13F14315   4.080   6.408   8.423  4.7395 -0.7339  4.5598
  132OSM   H13G14316   4.113   6.556   8.322  2.2127  1.4445  1.4465
  132OSM   C14F14317   4.286   6.470   8.409  0.4846 -0.2340  0.2556
  132OSM   H14F14318   4.346   6.551   8.363 -0.9599  0.0973 -1.0929
  132OSM   H14G14319   4.334   6.370   8.395 -0.5529 -0.5977 -0.8456
  132OSM   C15F14320   4.273   6.495   8.558 -0.2645  0.2435 -0.4371
  132OSM   H15F14321   4.362   6.452   8.610 -1.4557 -0.4719  1.0711
  132OSM   H15G14322   4.188   6.433   8.593 -0.3002 -0.0320 -0.9892
  132OSM   C16F14323   4.260   6.637   8.603 -0.4118  0.6696 -0.0699
  132OSM   H16F14324   4.179   6.673   8.535  0.1036  1.1388 -0.4468
  132OSM   H16G14325   4.346   6.705   8.586 -0.2462  0.5630  0.3566
  132OSM   C17F14326   4.200   6.648   8.742  1.0403  0.1676 -0.0084
  132OSM   H17F14327   4.208   6.753   8.777 -2.9267  0.5534  0.2078
  132OSM   H17G14328   4.257   6.574   8.803 -0.2502 -0.7593  0.1101
  132OSM   C18F14329   4.049   6.626   8.754  0.6329  0.6704 -0.8081
  132OSM   H18F14330   4.016   6.520   8.752 -3.2105  1.6230  1.5036
  132OSM   H18G14331   3.991   6.679   8.675  1.3573  0.7088 -1.3306
  132OSM   H18H14332   4.008   6.654   8.853  1.8820 -0.2467 -0.0032
  133OSM      N14333   5.194   5.081   5.900  0.3178 -0.5350  1.0185
  133OSM    C1514334   5.326   5.091   5.823  0.1583  0.0804 -0.1644
  133OSM   H15A14335   5.404   5.123   5.891 -0.8583  3.1943 -0.2965
  133OSM   H15B14336   5.309   5.148   5.733 -2.7057 -0.8290 -0.3110
  133OSM   H15C14337   5.349   4.991   5.789  0.0337  0.6464 -2.0391
  133OSM    C1414338   5.142   5.217   5.910 -0.8544 -0.1433  0.2691
  133OSM   H14A14339   5.057   5.232   5.976 -2.4916 -0.9025 -1.5742
  133OSM   H14B14340   5.108   5.251   5.814  0.5642  1.1194  0.1816
  133OSM   H14C14341   5.217   5.285   5.949 -3.5929  2.5610  1.3020
  133OSM    C1314342   5.111   5.004   5.809  0.2205 -0.0808 -0.9318
  133OSM   H13A14343   5.091   5.063   5.721 -0.9788 -1.1590 -1.4128
  133OSM   H13B14344   5.014   4.992   5.855  0.6268 -2.1235 -0.5095
  133OSM   H13C14345   5.133   4.900   5.788 -2.2579 -1.0655  0.8470
  133OSM    C1214346   5.223   5.018   6.039 -0.1148  0.9613  0.3289
  133OSM   H12A14347   5.288   5.083   6.096 -1.9218  0.6465  2.9317
  133OSM   H12B14348   5.288   4.931   6.028  0.7656  1.6187  0.2063
  133OSM    C1114349   5.107   4.984   6.131 -0.3746  0.7781  0.1896
  133OSM   H11A14350   5.053   5.080   6.145 -1.4077  0.2951 -0.4306
  133OSM   H11B14351   5.148   4.946   6.228 -1.3640 -0.0607  0.2969
  133OSM      P14352   5.055   4.735   6.064 -0.3094 -0.7188 -0.3028
  133OSM    O1314353   4.931   4.678   6.005  0.0171  0.2550  0.0621
  133OSM    O1414354   5.183   4.712   5.990  0.1264 -0.2266  0.0332
  133OSM    O1114355   5.071   4.691   6.217  0.2466 -0.6037  0.2944
  133OSM    O1214356   5.015   4.889   6.081  0.0364 -0.0325  0.1563
  133OSM    C1S14357   4.962   4.718   6.304  0.5254 -0.6137  0.0078
  133OSM    H1S14358   4.866   4.678   6.266 -0.2417  1.1889 -0.0753
  133OSM    H1T14359   4.966   4.827   6.324 -2.1055 -0.3441 -0.5972
  133OSM     NF14360   4.864   4.675   6.526 -0.0391  0.7599 -0.6426
  133OSM    HNF14361   4.843   4.758   6.576 -1.1279 -0.1134  0.4079
  133OSM    C2S14362   4.993   4.673   6.455 -0.1426 -0.0998 -0.4284
  133OSM    H2S14363   5.023   4.566   6.451  2.7881  0.6713 -2.2706
  133OSM    C3S14364   5.112   4.755   6.504 -0.2789 -0.6384 -0.1971
  133OSM    H3S14365   5.074   4.859   6.495  1.5270  0.3174  2.2203
  133OSM     O314366   5.229   4.746   6.422 -0.7123 -0.1631 -0.0677
  133OSM    HO314367   5.199   4.721   6.335 -0.4063  0.8095 -0.4564
  133OSM    C4S14368   5.146   4.730   6.648 -1.0596  0.1184  0.2784
  133OSM    H4S14369   5.101   4.794   6.725  0.3817 -0.4630  1.6579
  133OSM    C5S14370   5.233   4.632   6.694 -0.2104  0.3190  0.6927
  133OSM    H5S14371   5.288   4.575   6.619 -0.1137  1.2702  0.0300
  133OSM    C6S14372   5.272   4.608   6.835 -0.5335 -0.0571 -0.6095
  133OSM    H6S14373   5.226   4.514   6.874 -0.3479 -1.0221 -2.6093
  133OSM    H6T14374   5.232   4.690   6.899  2.3085  0.7078  0.3278
  133OSM    C7S14375   5.422   4.598   6.877  0.4265 -0.0694 -0.3650
  133OSM    H7S14376   5.475   4.694   6.856  0.3798  0.2427  0.8897
  133OSM    H7T14377   5.469   4.514   6.821 -0.3223  0.4998 -1.9033
  133OSM    C8S14378   5.426   4.574   7.023 -0.1014  0.3122 -0.7287
  133OSM    H8S14379   5.375   4.479   7.050  2.4580 -1.2376 -0.9558
  133OSM    H8T14380   5.387   4.660   7.081  0.9092  0.8905 -0.8917
  133OSM    C9S14381   5.567   4.544   7.067  0.2507  0.3684  0.7857
  133OSM    H9S14382   5.632   4.632   7.046 -0.8817  1.7034  2.5553
  133OSM    H9T14383   5.613   4.462   7.007  0.2949  2.2678 -1.9459
  133OSM   C10S14384   5.589   4.523   7.220  0.0420 -0.3728  0.3593
  133OSM   H10S14385   5.693   4.497   7.248  0.7607  1.2655 -0.6697
  133OSM   H10T14386   5.515   4.445   7.247 -0.0473 -0.1405  0.7967
  133OSM   C11S14387   5.557   4.654   7.303  0.0696  0.0591 -0.7507
  133OSM   H11S14388   5.460   4.699   7.274 -0.6802 -1.5230 -0.8271
  133OSM   H11T14389   5.637   4.731   7.302  2.0778 -1.8645  0.8008
  133OSM   C12S14390   5.543   4.632   7.458 -0.0350 -0.8487  0.9242
  133OSM   H12S14391   5.512   4.527   7.473 -1.1069 -0.5728  0.7826
  133OSM   H12T14392   5.464   4.696   7.504  0.7087  0.0704  0.9357
  133OSM   C13S14393   5.664   4.659   7.542 -0.3308  0.4474 -0.0899
  133OSM   H13S14394   5.643   4.678   7.649  0.6909  0.5627  0.1020
  133OSM   H13T14395   5.700   4.759   7.511  0.8566  0.2045  0.4477
  133OSM   C14S14396   5.773   4.551   7.523  0.5200 -0.1491  1.0351
  133OSM   H14S14397   5.816   4.575   7.423  0.1158  0.7916  1.0713
  133OSM   H14T14398   5.728   4.450   7.526 -4.3702  1.7053 -0.5131
  133OSM   C15S14399   5.879   4.570   7.628 -0.3790 -0.3975 -0.5598
  133OSM   H15S14400   5.925   4.670   7.617  1.3561 -1.2765 -1.7077
  133OSM   H15T14401   5.957   4.492   7.618  0.5887  0.6943 -1.8038
  133OSM   C16S14402   5.833   4.549   7.778 -0.1155  0.4196  0.1828
  133OSM   H16S14403   5.780   4.641   7.810 -1.0124  0.2531 -0.7543
  133OSM   H16T14404   5.927   4.539   7.837 -0.3333  0.0315  0.4758
  133OSM   C17S14405   5.748   4.429   7.799 -0.0790 -0.5771 -0.1835
  133OSM   H17S14406   5.812   4.343   7.770  1.0797  0.6221 -1.3814
  133OSM   H17T14407   5.649   4.435   7.748  0.2397  2.0500 -0.6251
  133OSM   C18S14408   5.706   4.401   7.947 -0.6475 -0.4168  0.4743
  133OSM   H18S14409   5.797   4.408   8.011 -0.9094 -1.3562  0.9547
  133OSM   H18T14410   5.668   4.297   7.946  0.7654 -0.9556  0.2068
  133OSM   H18U14411   5.638   4.481   7.985 -1.7798 -0.9955 -0.2870
  133OSM    C1F14412   4.778   4.573   6.515 -0.1377  1.0235 -0.6581
  133OSM     OF14413   4.811   4.472   6.453  0.4132  0.0680  0.2784
  133OSM    C2F14414   4.643   4.590   6.583 -0.0048 -0.4414  0.1896
  133OSM    H2F14415   4.564   4.539   6.524 -3.2185  3.1679  0.9521
  133OSM    H2G14416   4.619   4.698   6.575  1.9681 -0.0555 -1.3859
  133OSM    C3F14417   4.640   4.547   6.730  0.2536 -0.0544  0.4226
  133OSM    H3F14418   4.668   4.442   6.748 -0.0675 -0.0997  0.6584
  133OSM    H3G14419   4.534   4.554   6.762 -0.0883 -0.0746 -0.6672
  133OSM    C4F14420   4.709   4.635   6.830  0.5094 -0.0884  0.1175
  133OSM    H4F14421   4.680   4.742   6.817  2.6851  0.2279 -3.0054
  133OSM    H4G14422   4.817   4.634   6.805 -0.0813  1.1503 -2.9163
  133OSM    C5F14423   4.688   4.591   6.974  0.5242 -0.4864 -0.0082
  133OSM    H5F14424   4.765   4.514   6.996  0.6837 -0.4003 -0.2610
  133OSM    H5G14425   4.586   4.548   6.990 -0.5200  1.9178  0.1880
  133OSM    C6F14426   4.706   4.698   7.083  1.0380  0.1438 -0.0041
  133OSM    H6F14427   4.630   4.778   7.071 -0.2035 -0.9461  0.4079
  133OSM    H6G14428   4.802   4.753   7.069  0.2605  2.0492  1.5942
  133OSM    C7F14429   4.720   4.631   7.220  0.0004 -0.6002  0.9245
  133OSM    H7F14430   4.815   4.575   7.212  1.7794  2.3507 -0.4943
  133OSM    H7G14431   4.635   4.560   7.229  1.2010 -2.2666 -0.3239
  133OSM    C8F14432   4.735   4.734   7.331  0.4394  0.0522 -0.2108
  133OSM    H8F14433   4.792   4.827   7.313  1.1918 -0.1727  0.8965
  133OSM    H8G14434   4.788   4.671   7.406  0.9585  0.9556  0.1993
  133OSM    C9F14435   4.601   4.774   7.378 -0.0743 -0.8337  0.9922
  133OSM    H9F14436   4.527   4.781   7.297  1.9634 -1.6728 -1.0627
  133OSM   C10F14437   4.558   4.807   7.501 -0.0327  0.8537 -0.0225
  133OSM   H10F14438   4.454   4.840   7.517 -0.8126 -0.0689 -2.7220
  133OSM   C11F14439   4.655   4.818   7.616 -0.3885 -0.5144  0.2083
  133OSM   H11F14440   4.753   4.781   7.579 -0.1952 -0.1150  0.3127
  133OSM   H11G14441   4.626   4.748   7.697  0.0357 -0.1485  0.6827
  133OSM   C12F14442   4.682   4.957   7.676  0.0243  0.0286  0.0950
  133OSM   H12F14443   4.597   4.994   7.737  0.2018 -1.9702  1.6875
  133OSM   H12G14444   4.710   5.034   7.601  2.6254  2.1020  2.9162
  133OSM   C13F14445   4.807   4.960   7.757  0.4712 -0.3713  0.4000
  133OSM   H13F14446   4.885   4.910   7.696  1.8140  2.8168 -0.7481
  133OSM   H13G14447   4.786   4.895   7.844  0.5894 -1.4071 -0.3344
  133OSM   C14F14448   4.863   5.099   7.779 -0.4881 -0.4337 -0.5102
  133OSM   H14F14449   4.807   5.144   7.864  0.9657 -0.7433  0.6668
  133OSM   H14G14450   4.866   5.171   7.695 -0.2823  0.9505  0.6375
  133OSM   C15F14451   5.008   5.087   7.840 -0.8864  0.0913  0.5365
  133OSM   H15F14452   5.052   5.189   7.833  0.3451 -0.4028  0.8449
  133OSM   H15G14453   5.057   5.025   7.763 -1.2885 -0.2982  0.5874
  133OSM   C16F14454   5.030   5.037   7.981  0.1054  1.0557 -0.8481
  133OSM   H16F14455   5.041   4.927   7.991  1.0881  1.2499  0.6050
  133OSM   H16G14456   4.954   5.065   8.057 -1.9367 -2.4851 -1.3906
  133OSM   C17F14457   5.167   5.086   8.033 -0.0457  0.5110  0.2322
  133OSM   H17F14458   5.174   5.195   8.015 -2.2908  0.2653 -2.9836
  133OSM   H17G14459   5.246   5.037   7.971 -0.4715 -0.6715  0.5844
  133OSM   C18F14460   5.195   5.036   8.178  0.8103  0.0749  0.2903
  133OSM   H18F14461   5.301   5.009   8.197  1.3503  2.6856  1.4474
  133OSM   H18G14462   5.125   4.962   8.220 -0.8701  0.3795 -1.8317
  133OSM   H18H14463   5.183   5.127   8.241 -3.1543 -0.8408  1.0968
  134OSM      N14464   5.291   1.122   6.007 -1.2839  0.0849  0.4559
  134OSM    C1514465   5.171   1.109   5.920  0.3374  0.5388  0.1981
  134OSM   H15A14466   5.130   1.204   5.892  2.2680  2.1499  2.4533
  134OSM   H15B14467   5.086   1.056   5.961 -0.7896  1.3756 -0.9809
  134OSM   H15C14468   5.190   1.049   5.832 -1.3387  2.1416 -1.3622
  134OSM    C1414469   5.349   0.994   6.041 -0.0550  0.9619  0.6166
  134OSM   H14A14470   5.449   1.009   6.080  0.1365  0.0986  0.4750
  134OSM   H14B14471   5.361   0.932   5.953  1.9137  2.6295 -0.3974
  134OSM   H14C14472   5.284   0.953   6.116  2.7670 -2.1551  1.5974
  134OSM    C1314473   5.394   1.204   5.924  0.4731  0.0623  0.1376
  134OSM   H13A14474   5.476   1.222   5.993 -0.7055  1.2333  1.2817
  134OSM   H13B14475   5.352   1.298   5.893 -1.8880 -0.7581  0.6850
  134OSM   H13C14476   5.422   1.145   5.838  0.8569  2.7580 -1.6899
  134OSM    C1214477   5.259   1.191   6.132 -0.5050  0.5050 -0.2352
  134OSM   H12A14478   5.230   1.289   6.097  1.8784  0.1654 -3.7003
  134OSM   H12B14479   5.343   1.205   6.198  1.1924  0.3555 -2.2939
  134OSM    C1114480   5.153   1.116   6.217 -0.0412 -0.0343  0.0531
  134OSM   H11A14481   5.069   1.095   6.147 -0.6685 -0.9222  1.0510
  134OSM   H11B14482   5.113   1.186   6.293 -1.8777 -0.4783 -0.4511
  134OSM      P14483   5.263   0.981   6.416  0.0586 -0.5983 -0.2238
  134OSM    O1314484   5.396   0.916   6.396 -0.4632  0.4194 -0.3175
  134OSM    O1414485   5.255   1.113   6.482 -0.2653 -0.5651 -0.2265
  134OSM    O1114486   5.164   0.886   6.488 -0.4122 -0.1023  0.3195
  134OSM    O1214487   5.187   0.993   6.281 -0.2413  0.2376 -0.1228
  134OSM    C1S14488   5.195   0.843   6.622  0.0594  0.4352  0.9052
  134OSM    H1S14489   5.185   0.932   6.688 -1.6022 -0.1378  1.4913
  134OSM    H1T14490   5.296   0.796   6.629 -0.3741 -0.8106 -0.5592
  134OSM     NF14491   5.156   0.672   6.800 -0.2472 -0.1041 -0.0645
  134OSM    HNF14492   5.199   0.583   6.785 -1.9943 -1.0043  0.0277
  134OSM    C2S14493   5.101   0.736   6.683  0.1667 -0.6890 -0.5063
  134OSM    H2S14494   5.010   0.789   6.719  1.0850  1.6202 -1.3942
  134OSM    C3S14495   5.051   0.635   6.571 -0.7432  0.7429  0.3192
  134OSM    H3S14496   5.135   0.577   6.528 -3.0751 -0.5724 -2.7928
  134OSM     O314497   4.987   0.704   6.464  0.3113 -0.3791  0.9592
  134OSM    HO314498   5.018   0.794   6.474 -1.4595  0.4179 -0.1552
  134OSM    C4S14499   4.958   0.528   6.629 -0.5664 -0.7088  0.0513
  134OSM    H4S14500   4.852   0.556   6.624  0.1950  2.4868 -0.8998
  134OSM    C5S14501   4.996   0.412   6.686 -0.2496  0.3800 -0.4370
  134OSM    H5S14502   5.101   0.381   6.691 -0.8664 -1.7953  0.6815
  134OSM    C6S14503   4.894   0.310   6.731 -0.0217 -0.0380  0.4943
  134OSM    H6S14504   4.877   0.244   6.643 -0.2353  2.0627 -1.1148
  134OSM    H6T14505   4.806   0.374   6.751  0.6415  0.7669  0.9057
  134OSM    C7S14506   4.944   0.224   6.841  0.7816 -0.3222 -0.6976
  134OSM    H7S14507   5.039   0.179   6.805  1.4587  1.6460 -1.5146
  134OSM    H7T14508   4.864   0.147   6.850 -1.2030  1.4343 -2.3514
  134OSM    C8S14509   4.968   0.294   6.971 -0.2329  0.2683 -0.3022
  134OSM    H8S14510   4.896   0.372   7.006  1.0977  1.3676  0.0860
  134OSM    H8T14511   5.058   0.356   6.951 -1.6837  2.6973  0.1371
  134OSM    C9S14512   5.007   0.202   7.088  0.1917  0.8322 -0.2090
  134OSM    H9S14513   5.094   0.141   7.056 -2.0906 -1.8167 -1.9413
  134OSM    H9T14514   4.921   0.133   7.107  1.3363 -0.5068  0.2929
  134OSM   C10S14515   5.048   0.269   7.221 -0.0844  0.3915  0.3287
  134OSM   H10S14516   4.973   0.352   7.225 -0.4635  0.4295 -3.6442
  134OSM   H10T14517   5.147   0.319   7.220 -0.9424  2.3032 -2.6291
  134OSM   C11S14518   5.018   0.186   7.346 -0.1739  0.0407 -0.4011
  134OSM   H11S14519   5.067   0.086   7.344  0.1825  0.2252 -1.2588
  134OSM   H11T14520   4.909   0.165   7.341  0.1187 -1.7638 -0.1644
  134OSM   C12S14521   5.049   0.262   7.480  0.6380  0.4336  0.2802
  134OSM   H12S14522   4.997   0.360   7.484  1.5816  1.0404 -1.4371
  134OSM   H12T14523   5.160   0.270   7.491  0.9327 -1.9375 -0.4208
  134OSM   C13S14524   5.006   0.191   7.611 -0.5753  0.3193  0.0814
  134OSM   H13S14525   5.033   0.084   7.609 -0.0438  0.4556 -0.5248
  134OSM   H13T14526   4.896   0.185   7.629 -0.2753 -1.1225  1.7097
  134OSM   C14S14527   5.070   0.256   7.736  0.0097 -0.0178  0.0320
  134OSM   H14S14528   5.018   0.354   7.748 -1.5448 -0.8476  0.3968
  134OSM   H14T14529   5.178   0.268   7.717  0.0486 -0.3158  0.0559
  134OSM   C15S14530   5.037   0.171   7.863  0.0388 -0.9354 -0.6449
  134OSM   H15S14531   5.076   0.067   7.856 -0.2146 -1.1224  0.5284
  134OSM   H15T14532   4.928   0.174   7.883  0.1194  1.3459 -0.2428
  134OSM   C16S14533   5.105   0.234   7.988 -0.8645 -0.0474  0.1444
  134OSM   H16S14534   5.079   0.341   8.006  1.2054  0.3329  1.2822
  134OSM   H16T14535   5.216   0.225   7.985 -0.7571  0.8977  0.7016
  134OSM   C17S14536   5.059   0.170   8.119 -0.2986  0.2121 -1.3540
  134OSM   H17S14537   5.124   0.081   8.133  2.3051  2.0687 -0.6056
  134OSM   H17T14538   4.953   0.139   8.109  0.0848 -1.1146 -1.4632
  134OSM   C18S14539   5.082   0.262   8.239  0.4112  0.7247  0.4100
  134OSM   H18S14540   5.092   0.203   8.332 -0.0164  0.8243  0.5207
  134OSM   H18T14541   4.997   0.332   8.250 -1.3059 -1.0582 -0.7706
  134OSM   H18U14542   5.177   0.317   8.219  1.2139 -0.9339 -0.6017
  134OSM    C1F14543   5.179   0.733   6.919  0.0028 -0.7395 -0.4560
  134OSM     OF14544   5.180   0.852   6.939 -0.0385 -0.5802 -0.3850
  134OSM    C2F14545   5.213   0.640   7.031  0.3037  0.2686  0.0449
  134OSM    H2F14546   5.288   0.573   6.985  0.1571  0.0638  0.1021
  134OSM    H2G14547   5.125   0.577   7.054 -0.2461  0.8978 -0.2848
  134OSM    C3F14548   5.254   0.708   7.164 -0.0088 -0.3329 -0.1376
  134OSM    H3F14549   5.186   0.795   7.179 -0.3906 -0.8607  1.4286
  134OSM    H3G14550   5.361   0.734   7.147  0.2512 -0.8403  0.6754
  134OSM    C4F14551   5.226   0.624   7.288  0.4892  0.1538 -0.0948
  134OSM    H4F14552   5.296   0.537   7.287 -2.2578 -2.2529  1.2896
  134OSM    H4G14553   5.120   0.590   7.278  0.2951  1.0048 -1.0758
  134OSM    C5F14554   5.227   0.717   7.407  0.8612  0.0686  0.0344
  134OSM    H5F14555   5.152   0.799   7.414 -0.1190 -0.8189  0.2113
  134OSM    H5G14556   5.328   0.757   7.430  0.2896  0.9249  1.1600
  134OSM    C6F14557   5.197   0.644   7.542  0.3088 -0.0721 -0.0529
  134OSM    H6F14558   5.267   0.558   7.556  1.5914  0.4189 -2.8217
  134OSM    H6G14559   5.093   0.605   7.536 -0.1953  0.2398  3.9230
  134OSM    C7F14560   5.209   0.742   7.663  0.7324  0.0680 -0.7713
  134OSM    H7F14561   5.126   0.813   7.641 -0.2375 -1.1112 -1.0815
  134OSM    H7G14562   5.308   0.791   7.667  1.9893 -2.3934  2.4341
  134OSM    C8F14563   5.148   0.691   7.799  0.0507 -0.2226  0.2529
  134OSM    H8F14564   5.052   0.642   7.775 -0.9351  0.9928  1.4939
  134OSM    H8G14565   5.128   0.775   7.870  1.3400 -0.4149  0.8797
  134OSM    C9F14566   5.248   0.593   7.853  0.2857  0.4899 -0.0155
  134OSM    H9F14567   5.315   0.538   7.785 -0.6498  2.2708 -2.5406
  134OSM   C10F14568   5.257   0.557   7.983  0.7167  0.3550 -0.2613
  134OSM   H10F14569   5.330   0.484   8.020  0.7507  2.1273  3.7013
  134OSM   C11F14570   5.182   0.620   8.101  0.2723  0.6344  0.7426
  134OSM   H11F14571   5.105   0.557   8.150  1.3324 -1.7917 -0.5488
  134OSM   H11G14572   5.133   0.716   8.073  1.0503  0.5919 -0.9128
  134OSM   C12F14573   5.265   0.661   8.229 -0.3347 -0.7661 -0.0612
  134OSM   H12F14574   5.310   0.570   8.273 -0.3942 -0.3161  0.9481
  134OSM   H12G14575   5.197   0.687   8.313 -0.2062 -2.2627  0.5275
  134OSM   C13F14576   5.377   0.773   8.198  0.3534  0.2578  0.9507
  134OSM   H13F14577   5.321   0.866   8.174 -0.0450 -0.7157 -2.3987
  134OSM   H13G14578   5.427   0.735   8.106 -0.5271  1.0413  0.1207
  134OSM   C14F14579   5.476   0.820   8.307  0.4064  0.2395  0.0237
  134OSM   H14F14580   5.422   0.873   8.388  0.6976  1.8728 -0.7976
  134OSM   H14G14581   5.546   0.894   8.262 -0.6750  2.1567  1.3657
  134OSM   C15F14582   5.552   0.695   8.359  0.3554 -0.8021  0.5638
  134OSM   H15F14583   5.573   0.638   8.266 -1.1469  1.1200 -1.0462
  134OSM   H15G14584   5.473   0.643   8.417 -1.2795  0.9242  0.0117
  134OSM   C16F14585   5.674   0.713   8.448  0.5474 -0.4198 -0.7148
  134OSM   H16F14586   5.654   0.785   8.530 -0.6039 -2.1123  0.5377
  134OSM   H16G14587   5.758   0.768   8.400 -0.1347 -0.6192 -2.1962
  134OSM   C17F14588   5.717   0.584   8.502  0.0823 -0.3807  0.0807
  134OSM   H17F14589   5.729   0.517   8.414 -0.0294 -0.0424 -0.1974
  134OSM   H17G14590   5.633   0.532   8.553  1.6430 -1.5169  1.6196
  134OSM   C18F14591   5.838   0.588   8.595 -0.2778 -0.7371  0.2485
  134OSM   H18F14592   5.866   0.482   8.611 -0.8097 -1.0584 -0.8115
  134OSM   H18G14593   5.810   0.649   8.684 -1.4795  1.3073 -1.4161
  134OSM   H18H14594   5.925   0.642   8.551 -1.0699  1.5799  1.3615
  135OSM      N14595   4.759   0.853   6.180  0.3936 -0.1474  0.2961
  135OSM    C1514596   4.730   0.753   6.286  0.4806 -0.3006  0.5696
  135OSM   H15A14597   4.711   0.652   6.252 -0.2375 -0.6779  2.0088
  135OSM   H15B14598   4.651   0.784   6.354 -0.7780  1.6612 -1.6442
  135OSM   H15C14599   4.819   0.748   6.347 -0.7541 -0.5770  2.4386
  135OSM    C1414600   4.899   0.820   6.123  0.4030  0.2970 -0.0363
  135OSM   H14A14601   4.891   0.740   6.051  3.4589  1.0208 -1.3325
  135OSM   H14B14602   4.976   0.797   6.195  1.3636 -1.2007 -1.4778
  135OSM   H14C14603   4.933   0.907   6.068  0.1682 -0.2664 -1.1121
  135OSM    C1314604   4.672   0.839   6.053  0.1646 -0.3056 -0.3177
  135OSM   H13A14605   4.568   0.865   6.066 -0.4197 -2.5342 -0.1264
  135OSM   H13B14606   4.677   0.742   6.007 -0.8934  0.9172 -3.2626
  135OSM   H13C14607   4.702   0.908   5.976 -0.8832  0.3887 -0.1235
  135OSM    C1214608   4.745   0.993   6.226 -0.9428 -0.1787 -0.2100
  135OSM   H12A14609   4.647   1.014   6.267 -0.8131 -0.9271  0.5129
  135OSM   H12B14610   4.763   1.067   6.150  1.0197  0.4049  0.7367
  135OSM    C1114611   4.831   1.013   6.352  0.8983  0.0918  0.1430
  135OSM   H11A14612   4.931   0.965   6.344  0.5373 -0.8913  1.2524
  135OSM   H11B14613   4.784   0.953   6.433 -2.3747 -0.1071 -1.7419
  135OSM      P14614   4.756   1.224   6.494 -0.2367 -0.1848 -0.1565
  135OSM    O1314615   4.822   1.352   6.525 -0.3432  0.0971 -0.5926
  135OSM    O1414616   4.609   1.220   6.468  0.4087 -0.6644  0.0402
  135OSM    O1114617   4.781   1.141   6.626  0.5152 -0.2681  0.0428
  135OSM    O1214618   4.830   1.151   6.377  0.3334 -0.0601  0.2151
  135OSM    C1S14619   4.918   1.098   6.658  0.0443  0.8654 -0.1297
  135OSM    H1S14620   5.000   1.157   6.611 -0.0190  1.4881  0.5240
  135OSM    H1T14621   4.933   0.993   6.627  0.4318  0.7029  0.5869
  135OSM     NF14622   5.089   1.091   6.850  0.0599 -0.3725 -0.3868
  135OSM    HNF14623   5.120   1.009   6.898  2.9754  1.0814  0.4041
  135OSM    C2S14624   4.949   1.110   6.817  0.2806 -0.4040  0.0833
  135OSM    H2S14625   4.920   1.213   6.845 -0.0936 -0.6752  0.7026
  135OSM    C3S14626   4.860   1.004   6.893  0.2296  0.0386  0.4437
  135OSM    H3S14627   4.898   0.910   6.848  0.6674  0.7170 -0.6384
  135OSM     O314628   4.716   0.998   6.861  0.6812  0.6230 -0.4176
  135OSM    HO314629   4.713   1.038   6.774 -0.3707  0.3550 -0.5253
  135OSM    C4S14630   4.890   1.007   7.043  0.5197  0.5758  0.7473
  135OSM    H4S14631   4.965   0.932   7.071 -0.0606 -0.1973  0.2910
  135OSM    C5S14632   4.835   1.086   7.133 -0.4764 -0.1114  0.6883
  135OSM    H5S14633   4.762   1.161   7.098  0.8080  2.2695  2.8258
  135OSM    C6S14634   4.871   1.105   7.276 -0.0289 -0.0790  0.0063
  135OSM    H6S14635   4.777   1.116   7.334  0.6908  0.1428  1.1726
  135OSM    H6T14636   4.935   1.195   7.290 -1.1330  0.7192 -0.0213
  135OSM    C7S14637   4.950   0.991   7.354 -0.4729 -0.2868 -0.4685
  135OSM    H7S14638   5.041   0.973   7.292 -1.9201 -0.2930 -2.6971
  135OSM    H7T14639   4.890   0.898   7.367 -2.2289  0.6341 -1.5912
  135OSM    C8S14640   4.990   1.048   7.499 -0.0540 -0.5089 -0.1078
  135OSM    H8S14641   5.018   1.155   7.507  2.7174 -1.1265 -0.5331
  135OSM    H8T14642   5.078   0.992   7.538  0.4198  1.3769  1.7378
  135OSM    C9S14643   4.876   1.030   7.602  0.3258  0.0543 -0.0955
  135OSM    H9S14644   4.830   0.930   7.591  0.1318  0.1266  0.0538
  135OSM    H9T14645   4.803   1.112   7.583  2.3096  1.2393 -3.3675
  135OSM   C10S14646   4.938   1.057   7.744  0.6148 -0.1486 -0.7387
  135OSM   H10S14647   4.998   1.151   7.740 -0.8577  0.8148 -1.1752
  135OSM   H10T14648   5.008   0.976   7.771  0.4311  0.3288  1.3350
  135OSM   C11S14649   4.840   1.066   7.856 -0.0824 -0.7566 -0.3519
  135OSM   H11S14650   4.770   0.981   7.848  0.0082 -0.6939 -2.6830
  135OSM   H11T14651   4.774   1.153   7.834  0.6361  0.5376  2.2827
  135OSM   C12S14652   4.881   1.078   8.005 -0.7279  0.7036  0.5849
  135OSM   H12S14653   4.968   1.147   8.003  0.6549 -0.9679 -0.8309
  135OSM   H12T14654   4.909   0.976   8.040 -0.8922  0.3629 -0.2572
  135OSM   C13S14655   4.770   1.140   8.087  0.3134 -0.8044  0.7311
  135OSM   H13S14656   4.739   1.237   8.043 -1.7982 -1.0416  1.6001
  135OSM   H13T14657   4.820   1.160   8.185  2.5183 -1.5099 -0.1768
  135OSM   C14S14658   4.645   1.055   8.107  0.2475 -0.1266  0.0232
  135OSM   H14S14659   4.671   0.951   8.138  2.5119  0.2521 -0.4688
  135OSM   H14T14660   4.601   1.041   8.006 -0.2879 -2.1731  0.4853
  135OSM   C15S14661   4.534   1.104   8.207  0.0139  0.1553 -0.8519
  135OSM   H15S14662   4.450   1.033   8.192  1.2882 -1.3417 -1.1823
  135OSM   H15T14663   4.516   1.212   8.190  0.7422  0.1113 -2.0139
  135OSM   C16S14664   4.582   1.093   8.350 -0.5791 -0.4591 -0.4206
  135OSM   H16S14665   4.673   1.156   8.359 -0.7843 -0.2375  0.1850
  135OSM   H16T14666   4.618   0.990   8.370  1.2447  0.3976  0.9525
  135OSM   C17S14667   4.475   1.135   8.450 -0.0005 -0.6455 -0.4911
  135OSM   H17S14668   4.507   1.089   8.545  0.5112 -0.3326 -0.5065
  135OSM   H17T14669   4.382   1.082   8.419 -0.2730 -0.5635  0.1753
  135OSM   C18S14670   4.449   1.284   8.464  0.0597 -0.2778 -0.3586
  135OSM   H18S14671   4.376   1.293   8.547 -0.6109  1.5834 -1.1004
  135OSM   H18T14672   4.404   1.332   8.375  2.6008 -0.0594 -1.6215
  135OSM   H18U14673   4.538   1.344   8.495  0.3806 -1.5298  1.3008
  135OSM    C1F14674   5.173   1.191   6.824  0.1922 -1.0086 -0.7531
  135OSM     OF14675   5.139   1.301   6.780 -0.5971  0.0890  0.2664
  135OSM    C2F14676   5.319   1.163   6.851  0.1943  1.0317 -0.1792
  135OSM    H2F14677   5.369   1.185   6.754 -2.6356  0.4667 -1.9024
  135OSM    H2G14678   5.333   1.058   6.881  0.2984  1.5440  1.6471
  135OSM    C3F14679   5.366   1.240   6.970 -0.4043 -0.1381  0.7706
  135OSM    H3F14680   5.333   1.346   6.965  0.2156  0.0111 -0.9314
  135OSM    H3G14681   5.477   1.233   6.975 -0.2715 -0.6782 -1.8120
  135OSM    C4F14682   5.323   1.176   7.098  0.4388  0.3814 -0.1624
  135OSM    H4F14683   5.374   1.077   7.101 -0.0557  0.1456  1.0717
  135OSM    H4G14684   5.215   1.151   7.090  0.8249 -0.8976 -1.9993
  135OSM    C5F14685   5.367   1.254   7.223  0.1121 -0.2696  0.4010
  135OSM    H5F14686   5.338   1.361   7.220 -1.4381 -0.6530  0.7001
  135OSM    H5G14687   5.478   1.260   7.225  0.0929  0.0460  2.7148
  135OSM    C6F14688   5.336   1.181   7.360 -0.2161 -0.4171 -0.0344
  135OSM    H6F14689   5.377   1.078   7.357 -0.2520 -0.4562  0.8171
  135OSM    H6G14690   5.227   1.161   7.369 -0.4875 -0.5377 -2.6431
  135OSM    C7F14691   5.392   1.253   7.485 -0.3782 -0.1410 -0.2912
  135OSM    H7F14692   5.360   1.359   7.477 -0.7738 -0.1159  1.3401
  135OSM    H7G14693   5.503   1.245   7.494 -0.1305  1.3202 -1.6333
  135OSM    C8F14694   5.310   1.210   7.614 -0.6725 -0.2347  0.6988
  135OSM    H8F14695   5.205   1.216   7.578 -0.8125  0.5259  1.2102
  135OSM    H8G14696   5.323   1.285   7.696 -0.5390 -1.9635  2.3229
  135OSM    C9F14697   5.337   1.072   7.653  0.6879 -0.2037  0.8812
  135OSM    H9F14698   5.351   1.009   7.564 -2.6752  1.7162 -1.2199
  135OSM   C10F14699   5.329   1.035   7.780 -0.2295  0.1546 -0.4796
  135OSM   H10F14700   5.346   0.930   7.806  0.3352  0.4762  0.4847
  135OSM   C11F14701   5.285   1.122   7.896 -0.1682 -0.3735 -0.4952
  135OSM   H11F14702   5.215   1.053   7.948  0.0250 -0.6315 -0.5775
  135OSM   H11G14703   5.223   1.208   7.862  1.0412  0.6908 -0.0929
  135OSM   C12F14704   5.403   1.186   7.984  0.3655 -0.8282  0.3195
  135OSM   H12F14705   5.483   1.231   7.922  0.8157  1.2575  2.2735
  135OSM   H12G14706   5.449   1.106   8.047  1.4795  0.1334  0.7540
  135OSM   C13F14707   5.349   1.292   8.071  0.2281 -0.3966 -0.5970
  135OSM   H13F14708   5.277   1.231   8.129 -1.8951  0.3290 -2.3144
  135OSM   H13G14709   5.284   1.362   8.015 -1.1421 -1.4788 -0.4181
  135OSM   C14F14710   5.435   1.384   8.163  0.1414 -0.5028  0.0079
  135OSM   H14F14711   5.373   1.467   8.203  1.9376  1.4220 -0.9983
  135OSM   H14G14712   5.503   1.443   8.098  0.4852  0.9436  1.6090
  135OSM   C15F14713   5.513   1.305   8.264 -0.3319  0.1026 -0.5987
  135OSM   H15F14714   5.584   1.367   8.323 -0.1934  0.3019 -0.9725
  135OSM   H15G14715   5.568   1.230   8.203  0.8237  0.6663 -0.2702
  135OSM   C16F14716   5.423   1.239   8.375 -0.0617 -0.1388 -0.5190
  135OSM   H16F14717   5.363   1.154   8.335  0.2082 -0.4422 -0.2820
  135OSM   H16G14718   5.365   1.323   8.419  1.2848  0.2821  0.5142
  135OSM   C17F14719   5.487   1.171   8.500  0.5757  0.2103 -0.3283
  135OSM   H17F14720   5.583   1.221   8.524  1.7523 -0.7152 -2.7605
  135OSM   H17G14721   5.516   1.071   8.462  1.7508 -0.0825  1.2357
  135OSM   C18F14722   5.381   1.166   8.609 -0.2223  0.0386 -0.4218
  135OSM   H18F14723   5.299   1.098   8.577  0.1764  0.6950 -3.0830
  135OSM   H18G14724   5.339   1.266   8.633 -0.0236  0.2319 -0.8737
  135OSM   H18H14725   5.414   1.118   8.703 -0.3225  2.6893  1.0489
  136OSM      N14726   2.615   1.062   6.300 -0.9458 -0.3467  0.2146
  136OSM    C1514727   2.731   1.157   6.282  0.1795 -0.5004 -0.3556
  136OSM   H15A14728   2.768   1.200   6.373  1.0593 -2.0054  0.0321
  136OSM   H15B14729   2.712   1.232   6.206  3.7412  1.0312  0.0977
  136OSM   H15C14730   2.807   1.102   6.228 -1.3482 -0.9314 -2.2280
  136OSM    C1414731   2.559   1.022   6.171 -0.4002 -0.0843  1.2057
  136OSM   H14A14732   2.634   0.987   6.101  0.5913 -0.3318  2.3597
  136OSM   H14B14733   2.492   1.099   6.137 -1.8554 -1.4250  0.8661
  136OSM   H14C14734   2.500   0.933   6.188 -1.6310  0.8430  1.9668
  136OSM    C1314735   2.670   0.943   6.374 -0.2230  0.2281 -0.4295
  136OSM   H13A14736   2.728   0.978   6.458 -0.1500 -0.8026 -0.0357
  136OSM   H13B14737   2.751   0.896   6.319 -0.2402  0.6894 -0.8571
  136OSM   H13C14738   2.594   0.873   6.406  0.6497  0.3321  2.0363
  136OSM    C1214739   2.514   1.124   6.392 -0.3080 -0.6007 -0.5350
  136OSM   H12A14740   2.558   1.121   6.491 -1.2210 -1.9305 -0.1357
  136OSM   H12B14741   2.425   1.062   6.396  0.8572 -2.3591 -0.5037
  136OSM    C1114742   2.457   1.273   6.355 -0.7661 -0.7072  0.0433
  136OSM   H11A14743   2.543   1.342   6.342 -1.6513  0.6799  1.2153
  136OSM   H11B14744   2.392   1.315   6.435  1.7905  2.8929  0.4607
  136OSM      P14745   2.236   1.221   6.252 -0.2075  0.5537  0.1354
  136OSM    O1314746   2.164   1.242   6.124 -0.3329 -0.4950 -0.2962
  136OSM    O1414747   2.235   1.084   6.299 -0.7472  0.6995  0.3740
  136OSM    O1114748   2.173   1.322   6.361  0.2968 -0.1053  0.1376
  136OSM    O1214749   2.384   1.273   6.238 -0.2721 -0.2188  0.3096
  136OSM    C1S14750   2.080   1.274   6.460  0.2593  0.3676  0.4050
  136OSM    H1S14751   2.123   1.194   6.524 -1.0221  0.2617  1.1549
  136OSM    H1T14752   1.989   1.234   6.410  0.6419  0.3408 -0.2909
  136OSM     NF14753   1.950   1.340   6.660 -0.7788  0.0051  0.0748
  136OSM    HNF14754   1.851   1.348   6.666 -0.7853 -0.5210  0.8844
  136OSM    C2S14755   2.035   1.390   6.554 -0.0728 -0.1236  0.1751
  136OSM    H2S14756   2.128   1.428   6.600 -1.6544  1.7034  2.0767
  136OSM    C3S14757   1.961   1.499   6.469  0.2454  0.1634 -0.2561
  136OSM    H3S14758   1.878   1.450   6.415  0.7382 -5.0550  3.0288
  136OSM     O314759   2.050   1.554   6.375  0.5383  0.3118  0.7236
  136OSM    HO314760   2.122   1.492   6.368  2.4773  2.4976  0.1010
  136OSM    C4S14761   1.921   1.614   6.555  0.3834  1.1506 -0.5402
  136OSM    H4S14762   1.999   1.691   6.570  1.0396  0.5299 -0.7280
  136OSM    C5S14763   1.796   1.640   6.604  0.8208  0.8232  0.5325
  136OSM    H5S14764   1.711   1.576   6.577  1.6761  0.1736 -0.6863
  136OSM    C6S14765   1.764   1.756   6.694 -0.4930 -0.1585  0.5121
  136OSM    H6S14766   1.675   1.807   6.650  1.4964  0.4716 -3.1902
  136OSM    H6T14767   1.846   1.830   6.696 -2.4583  2.1581  0.2789
  136OSM    C7S14768   1.756   1.717   6.838 -0.2189 -0.1522  0.2372
  136OSM    H7S14769   1.844   1.659   6.875 -2.0446 -2.5510  1.1213
  136OSM    H7T14770   1.674   1.642   6.843  0.4488 -0.8269  2.0897
  136OSM    C8S14771   1.727   1.843   6.920 -0.4345  0.2158  0.2318
  136OSM    H8S14772   1.649   1.907   6.872 -1.3451 -0.2092  1.0979
  136OSM    H8T14773   1.824   1.894   6.908 -0.9415  0.9568 -0.8441
  136OSM    C9S14774   1.697   1.811   7.074 -0.1147  0.2764 -0.5450
  136OSM    H9S14775   1.607   1.748   7.062 -1.2271  1.7389 -0.1797
  136OSM    H9T14776   1.673   1.901   7.135 -1.1400 -2.5023  3.5689
  136OSM   C10S14777   1.806   1.733   7.147 -0.1304  0.3843 -0.2555
  136OSM   H10S14778   1.900   1.770   7.099 -0.1348  0.5129 -0.1660
  136OSM   H10T14779   1.791   1.624   7.129  0.5851  0.1035  0.7281
  136OSM   C11S14780   1.815   1.762   7.304  0.3250 -0.4416  0.0902
  136OSM   H11S14781   1.796   1.870   7.321  0.9985 -0.5979  2.0800
  136OSM   H11T14782   1.917   1.739   7.340  1.8056  3.6264 -0.9640
  136OSM   C12S14783   1.703   1.683   7.385  0.1296 -0.2704 -0.1148
  136OSM   H12S14784   1.718   1.578   7.353  2.7144  0.5606 -1.9393
  136OSM   H12T14785   1.601   1.718   7.359 -0.0558  0.4335  1.4122
  136OSM   C13S14786   1.713   1.697   7.537  0.1774 -0.0959 -0.2954
  136OSM   H13S14787   1.817   1.672   7.565 -0.1164 -1.7150 -0.5734
  136OSM   H13T14788   1.648   1.619   7.580 -0.4314  1.5735  2.0227
  136OSM   C14S14789   1.667   1.836   7.592 -0.1076 -0.2913 -0.0384
  136OSM   H14S14790   1.561   1.859   7.568 -0.4986  0.8085  2.4002
  136OSM   H14T14791   1.740   1.914   7.560  0.1866 -0.2398  0.7311
  136OSM   C15S14792   1.690   1.832   7.745  0.2886 -0.1641 -0.8839
  136OSM   H15S14793   1.799   1.847   7.755  0.4267  0.4917 -2.8413
  136OSM   H15T14794   1.649   1.736   7.783 -0.4585  0.5658  0.2126
  136OSM   C16S14795   1.625   1.948   7.831  0.2054 -0.1848 -0.9730
  136OSM   H16S14796   1.515   1.957   7.816 -0.2242 -1.2896  1.0636
  136OSM   H16T14797   1.672   2.041   7.794  0.8939 -0.2092 -0.1823
  136OSM   C17S14798   1.639   1.934   7.981  0.2784 -0.5666  0.1472
  136OSM   H17S14799   1.580   2.018   8.024  1.3237  2.0553 -3.1146
  136OSM   H17T14800   1.742   1.964   8.007 -0.3561  2.4647 -0.5126
  136OSM   C18S14801   1.599   1.805   8.043  0.3682  0.4323 -0.3403
  136OSM   H18S14802   1.517   1.759   7.983 -3.4932  3.3677  2.2296
  136OSM   H18T14803   1.565   1.809   8.149  0.3966 -2.9207 -0.1136
  136OSM   H18U14804   1.684   1.733   8.034 -0.2978 -1.0713  3.4853
  136OSM    C1F14805   1.998   1.279   6.763 -0.0049  0.7033 -0.0379
  136OSM     OF14806   2.118   1.251   6.776 -0.3223 -0.0991 -0.8340
  136OSM    C2F14807   1.907   1.240   6.872 -0.0908 -0.1253 -0.8857
  136OSM    H2F14808   1.897   1.130   6.875  0.9257 -0.2754  2.8506
  136OSM    H2G14809   1.802   1.278   6.863 -1.0259 -2.6138 -1.2417
  136OSM    C3F14810   1.968   1.279   7.007 -0.3911  0.1437 -0.6575
  136OSM    H3F14811   2.013   1.380   7.000 -0.6425  0.2502 -0.7480
  136OSM    H3G14812   2.053   1.212   7.030 -0.0690  0.6728 -0.2870
  136OSM    C4F14813   1.864   1.282   7.121  0.2863 -0.0541 -0.9781
  136OSM    H4F14814   1.835   1.176   7.131 -1.0326  0.4306  0.8650
  136OSM    H4G14815   1.770   1.331   7.089  0.0739 -1.5531 -2.8134
  136OSM    C5F14816   1.910   1.352   7.256 -0.0625  0.3869 -0.0330
  136OSM    H5F14817   1.829   1.414   7.300 -0.6020  1.7648 -2.6911
  136OSM    H5G14818   2.007   1.405   7.240  3.0006 -3.9211  2.1725
  136OSM    C6F14819   1.947   1.258   7.371  0.1429 -0.4471 -1.0546
  136OSM    H6F14820   2.030   1.186   7.354  0.2060 -1.4869  2.7905
  136OSM    H6G14821   1.858   1.200   7.406  0.2318 -0.7651 -1.3496
  136OSM    C7F14822   1.976   1.341   7.503 -0.3716 -0.2730  0.6422
  136OSM    H7F14823   1.911   1.428   7.526  1.1721  0.9395  0.5708
  136OSM    H7G14824   2.081   1.376   7.492  0.0743 -1.2937  1.4515
  136OSM    C8F14825   1.972   1.260   7.643 -0.2119  0.0710 -0.3382
  136OSM    H8F14826   1.876   1.287   7.692 -1.2773 -3.3156 -0.3087
  136OSM    H8G14827   2.056   1.297   7.705  0.0467 -0.6432 -0.2540
  136OSM    C9F14828   1.983   1.112   7.645 -0.2625  0.1639  0.3726
  136OSM    H9F14829   2.051   1.071   7.569 -0.9528  1.3416 -0.9459
  136OSM   C10F14830   1.914   1.023   7.718  0.4776 -0.1299  0.6687
  136OSM   H10F14831   1.917   0.916   7.691 -1.5190 -0.5299  1.7808
  136OSM   C11F14832   1.817   1.055   7.834 -0.0569 -0.3328 -0.6988
  136OSM   H11F14833   1.725   0.995   7.819  0.3553 -1.2748  0.3780
  136OSM   H11G14834   1.788   1.162   7.834 -0.4097 -0.4196  0.4334
  136OSM   C12F14835   1.887   1.044   7.979 -0.6658  0.0660 -0.4178
  136OSM   H12F14836   1.970   1.117   7.994  0.0737 -0.7787 -0.3295
  136OSM   H12G14837   1.941   0.947   7.987 -1.1415 -0.3880 -2.1651
  136OSM   C13F14838   1.787   1.057   8.091  0.8977  0.0683 -1.0304
  136OSM   H13F14839   1.707   0.983   8.071  2.6774 -2.2265 -0.0612
  136OSM   H13G14840   1.734   1.155   8.089 -0.0993 -0.4040 -4.7387
  136OSM   C14F14841   1.848   1.045   8.240 -0.2106  0.5434  0.1009
  136OSM   H14F14842   1.891   0.943   8.250 -2.2156 -0.3420  0.1425
  136OSM   H14G14843   1.755   1.039   8.300 -0.0087  0.1339  0.3774
  136OSM   C15F14844   1.938   1.162   8.286  0.1210  0.1970 -0.7482
  136OSM   H15F14845   1.887   1.258   8.263 -1.5243 -0.7437 -1.1827
  136OSM   H15G14846   2.033   1.147   8.230  0.4500 -1.6133  0.1932
  136OSM   C16F14847   1.971   1.153   8.442 -0.7037 -0.4389  0.4135
  136OSM   H16F14848   2.025   1.059   8.466 -0.5886 -0.5490 -0.2458
  136OSM   H16G14849   1.874   1.141   8.494 -0.0200 -0.0950  1.8136
  136OSM   C17F14850   2.051   1.266   8.491 -0.5551  0.1340 -0.2210
  136OSM   H17F14851   1.995   1.358   8.464  0.6534  0.3416 -2.2740
  136OSM   H17G14852   2.151   1.265   8.442 -1.8984  0.8668 -3.2508
  136OSM   C18F14853   2.050   1.276   8.642 -0.0936 -0.1254  0.0385
  136OSM   H18F14854   2.088   1.374   8.679  1.7328 -0.4332 -0.9346
  136OSM   H18G14855   2.120   1.205   8.691 -0.1438 -0.5292 -0.4732
  136OSM   H18H14856   1.952   1.253   8.690 -0.0288  0.0220  0.2435
  137OSM      N14857   5.585   0.520   6.353  0.8536  0.6351  0.4116
  137OSM    C1514858   5.731   0.524   6.396 -0.0996  0.5204  0.3457
  137OSM   H15A14859   5.793   0.494   6.313 -1.4018  0.6422 -0.7161
  137OSM   H15B14860   5.754   0.475   6.489 -1.2045 -2.7232 -0.9645
  137OSM   H15C14861   5.750   0.630   6.409 -2.7522  0.8909  1.8275
  137OSM    C1414862   5.507   0.611   6.449 -0.4221 -0.0903  0.1093
  137OSM   H14A14863   5.481   0.556   6.538 -0.9547  0.1081  0.0841
  137OSM   H14B14864   5.420   0.653   6.401 -0.6829 -0.6479  0.0801
  137OSM   H14C14865   5.577   0.691   6.466  0.5434 -0.3524 -2.2430
  137OSM    C1314866   5.577   0.569   6.210 -0.1299  0.2054  0.4397
  137OSM   H13A14867   5.481   0.549   6.166 -0.6542  2.2688  0.5473
  137OSM   H13B14868   5.645   0.520   6.143 -1.4537 -2.0230  0.6337
  137OSM   H13C14869   5.607   0.673   6.204 -1.5266  0.5880 -0.2879
  137OSM    C1214870   5.528   0.372   6.356  0.0814 -0.0223 -0.6501
  137OSM   H12A14871   5.591   0.312   6.294 -0.6231 -0.0548 -1.3488
  137OSM   H12B14872   5.435   0.368   6.302 -0.5691  0.5148  0.3842
  137OSM    C1114873   5.528   0.298   6.492  0.0190 -0.1073  0.8755
  137OSM   H11A14874   5.453   0.216   6.498  0.6443 -0.8359 -0.5909
  137OSM   H11B14875   5.487   0.369   6.567 -0.0135  1.5872 -0.6588
  137OSM      P14876   5.718   0.109   6.514  0.1622  0.1265  0.2446
  137OSM    O1314877   5.620   0.018   6.453 -0.0337  0.1536  0.0183
  137OSM    O1414878   5.852   0.112   6.443  0.0734 -0.8335  0.1801
  137OSM    O1114879   5.744   0.080   6.663 -0.0131 -0.1910  0.0345
  137OSM    O1214880   5.662   0.259   6.525  0.4747  0.3698 -0.1647
  137OSM    C1S14881   5.841   0.144   6.743  0.2504 -0.3112 -0.8216
  137OSM    H1S14882   5.826   0.254   6.742 -0.2075 -0.3740 -1.0806
  137OSM    H1T14883   5.942   0.116   6.705  0.6628  1.2679 -0.9362
  137OSM     NF14884   5.930   0.162   6.987  0.2470  0.5214  0.0078
  137OSM    HNF14885   6.003   0.103   7.019 -0.7785 -0.5629  0.4118
  137OSM    C2S14886   5.824   0.106   6.891  0.3719 -0.1157 -0.1790
  137OSM    H2S14887   5.726   0.152   6.915  0.7360  1.0985 -0.9106
  137OSM    C3S14888   5.811  -0.051   6.907 -0.0948  0.2551  0.3145
  137OSM    H3S14889   5.903  -0.097   6.866  0.6666  1.3072  0.7838
  137OSM     O314890   5.702  -0.118   6.837 -0.2673  0.1821 -0.5074
  137OSM    HO314891   5.689  -0.051   6.769  0.1686  0.6982 -0.0934
  137OSM    C4S14892   5.779  -0.082   7.047  0.2721 -0.4268 -0.7656
  137OSM    H4S14893   5.712  -0.010   7.097  1.0590  1.2989 -2.0673
  137OSM    C5S14894   5.845  -0.166   7.118 -0.4277 -0.2641  0.3270
  137OSM    H5S14895   5.930  -0.215   7.068 -0.3972  0.7512 -0.6704
  137OSM    C6S14896   5.822  -0.194   7.267  0.6243  0.4234  0.1343
  137OSM    H6S14897   5.797  -0.302   7.275  0.5046  0.5004  0.8999
  137OSM    H6T14898   5.733  -0.140   7.307  1.0518  0.5764  0.8966
  137OSM    C7S14899   5.947  -0.177   7.359  1.0318 -0.0148 -0.4946
  137OSM    H7S14900   6.009  -0.096   7.316  0.8263  0.2909 -0.2121
  137OSM    H7T14901   5.995  -0.277   7.350 -0.8475 -1.0803  0.4737
  137OSM    C8S14902   5.908  -0.150   7.503 -0.3783  0.0580 -0.4092
  137OSM    H8S14903   5.814  -0.092   7.508 -0.6242 -0.2756 -1.0103
  137OSM    H8T14904   5.979  -0.088   7.562 -0.5018 -2.7430  3.0435
  137OSM    C9S14905   5.903  -0.286   7.578 -0.6037 -0.2883 -0.4639
  137OSM    H9S14906   6.008  -0.322   7.575 -1.1177 -2.0803  0.8264
  137OSM    H9T14907   5.841  -0.354   7.516 -1.8722  0.5962 -0.1914
  137OSM   C10S14908   5.859  -0.280   7.720  0.2160 -0.7643 -0.5010
  137OSM   H10S14909   5.755  -0.242   7.727 -0.2017 -1.5635 -1.8737
  137OSM   H10T14910   5.923  -0.201   7.765 -0.3098 -0.2588 -0.6294
  137OSM   C11S14911   5.866  -0.406   7.803 -0.5978 -0.2005 -0.6713
  137OSM   H11S14912   5.974  -0.431   7.792  0.8410  4.6283 -0.0385
  137OSM   H11T14913   5.807  -0.492   7.765 -3.0317  1.0755 -0.0111
  137OSM   C12S14914   5.831  -0.397   7.952 -0.8821 -0.2206 -0.0414
  137OSM   H12S14915   5.721  -0.384   7.961 -0.6824  2.4021 -0.7910
  137OSM   H12T14916   5.880  -0.316   8.009  1.4013 -0.9954 -0.8175
  137OSM   C13S14917   5.889  -0.516   8.035  0.0241 -0.4003  0.3225
  137OSM   H13S14918   5.995  -0.522   8.002 -0.1599 -0.3436 -0.3035
  137OSM   H13T14919   5.839  -0.608   7.996  0.1324 -1.0134  1.6047
  137OSM   C14S14920   5.860  -0.503   8.184 -0.1744 -0.5130 -0.0690
  137OSM   H14S14921   5.756  -0.465   8.192  0.2018  1.5957 -3.3798
  137OSM   H14T14922   5.932  -0.426   8.221  1.0223 -1.2273 -0.8527
  137OSM   C15S14923   5.865  -0.633   8.260 -0.4987 -0.5876 -0.1925
  137OSM   H15S14924   5.969  -0.671   8.255 -0.6282 -1.0574  0.4511
  137OSM   H15T14925   5.807  -0.711   8.207  0.6262 -1.2675 -0.4539
  137OSM   C16S14926   5.811  -0.616   8.403  0.2946 -0.0116 -0.4152
  137OSM   H16S14927   5.700  -0.616   8.405  0.2270 -2.9729  0.0973
  137OSM   H16T14928   5.846  -0.518   8.442 -1.1656  0.0862  0.7259
  137OSM   C17S14929   5.863  -0.723   8.505  0.2090 -0.2105  0.2696
  137OSM   H17S14930   5.970  -0.736   8.477 -0.2496 -0.6492 -1.3946
  137OSM   H17T14931   5.814  -0.821   8.485  0.5159 -0.0773 -1.2433
  137OSM   C18S14932   5.850  -0.682   8.659 -0.3275  0.5220 -0.7528
  137OSM   H18S14933   5.906  -0.761   8.715 -0.1051  1.5913  0.5709
  137OSM   H18T14934   5.745  -0.670   8.692  0.1950 -0.0758  1.3071
  137OSM   H18U14935   5.908  -0.595   8.695 -1.4801  0.7133  0.6977
  137OSM    C1F14936   5.946   0.299   7.008 -0.0833  0.7850 -0.8164
  137OSM     OF14937   5.881   0.384   6.949  0.6597  0.2212 -0.0200
  137OSM    C2F14938   6.051   0.337   7.110  0.1562 -0.0863  0.3239
  137OSM    H2F14939   6.120   0.404   7.053  1.8995 -0.9022  1.3670
  137OSM    H2G14940   6.119   0.251   7.130 -0.5900 -0.9816 -0.8934
  137OSM    C3F14941   6.002   0.410   7.241  0.4618 -0.2882  0.9285
  137OSM    H3F14942   5.957   0.507   7.215  0.8148 -0.7752 -1.8590
  137OSM    H3G14943   6.093   0.423   7.304  0.1006  2.2866  0.9976
  137OSM    C4F14944   5.903   0.328   7.325  0.8749 -0.1067 -0.3406
  137OSM    H4F14945   5.826   0.295   7.251 -0.0610 -0.9290  0.9582
  137OSM    H4G14946   5.861   0.388   7.408  1.3842  1.0683 -0.9047
  137OSM    C5F14947   5.967   0.201   7.395  0.0525  0.2715 -0.2235
  137OSM    H5F14948   6.048   0.156   7.333  1.8670 -0.4789  2.5322
  137OSM    H5G14949   5.892   0.121   7.411  0.5796  0.3512  3.2693
  137OSM    C6F14950   6.020   0.238   7.531 -0.6645 -1.1648  0.3579
  137OSM    H6F14951   6.075   0.334   7.530 -0.8307 -1.0650  0.7017
  137OSM    H6G14952   6.108   0.173   7.547  1.0893  1.6181  3.0449
  137OSM    C7F14953   5.916   0.233   7.647  0.2735 -0.2168 -0.3244
  137OSM    H7F14954   5.871   0.131   7.657 -0.6113  0.2993  1.6036
  137OSM    H7G14955   5.839   0.309   7.621  0.7852  0.4451  0.0538
  137OSM    C8F14956   5.970   0.285   7.782 -0.3286  0.5413  0.3073
  137OSM    H8F14957   5.880   0.304   7.845 -0.8021  2.7003 -0.9295
  137OSM    H8G14958   6.020   0.384   7.782 -3.4636  2.2593  0.2381
  137OSM    C9F14959   6.058   0.181   7.852  0.2795 -0.3497  0.4458
  137OSM    H9F14960   6.166   0.177   7.829 -0.0975 -0.6535 -1.4156
  137OSM   C10F14961   6.014   0.088   7.939 -0.0380  0.0919  0.6120
  137OSM   H10F14962   6.094   0.022   7.977 -0.2995 -0.9545 -0.5944
  137OSM   C11F14963   5.874   0.069   7.990  0.1290  0.9245  0.5762
  137OSM   H11F14964   5.861  -0.039   8.013  0.1209  0.7898 -0.0395
  137OSM   H11G14965   5.796   0.105   7.920 -1.2236 -1.6256  0.6430
  137OSM   C12F14966   5.851   0.154   8.114  0.1061  0.0516  0.0606
  137OSM   H12F14967   5.865   0.260   8.084  0.3130  0.4488  1.4670
  137OSM   H12G14968   5.916   0.135   8.203 -0.5278 -1.4840  0.2241
  137OSM   C13F14969   5.707   0.165   8.162  0.2795 -0.5473 -0.2357
  137OSM   H13F14970   5.664   0.066   8.189 -0.7669  0.1356  0.6801
  137OSM   H13G14971   5.642   0.194   8.077  0.3957 -2.2145 -0.9302
  137OSM   C14F14972   5.677   0.268   8.269 -0.3252 -1.1870  0.1649
  137OSM   H14F14973   5.701   0.368   8.226 -1.4257  0.1185  2.3798
  137OSM   H14G14974   5.751   0.263   8.352 -1.9887  0.9776  1.9222
  137OSM   C15F14975   5.528   0.275   8.315  0.5424 -0.0002 -0.1196
  137OSM   H15F14976   5.471   0.275   8.220 -0.0049 -2.6836  0.1093
  137OSM   H15G14977   5.505   0.372   8.362 -1.2696  0.6882 -2.2875
  137OSM   C16F14978   5.466   0.153   8.389 -1.3517  0.3210  0.1998
  137OSM   H16F14979   5.518   0.058   8.363  0.9834  0.9817  2.1121
  137OSM   H16G14980   5.357   0.147   8.371 -1.1661 -0.1252 -0.8700
  137OSM   C17F14981   5.476   0.168   8.540  1.1191  0.3599 -0.3019
  137OSM   H17F14982   5.444   0.266   8.582 -1.0390  0.4233 -1.8727
  137OSM   H17G14983   5.584   0.166   8.562  1.1303  1.5928 -0.1628
  137OSM   C18F14984   5.400   0.059   8.608  0.9191 -0.1959  0.0421
  137OSM   H18F14985   5.391   0.070   8.718 -1.8557 -0.7971 -0.0537
  137OSM   H18G14986   5.427  -0.045   8.581  0.3703 -0.5152  0.6922
  137OSM   H18H14987   5.297   0.063   8.566  1.4630 -1.2628 -1.5270
  138OSM      N14988   0.205   2.618   5.695 -0.9002 -0.1669  0.3457
  138OSM    C1514989   0.105   2.625   5.581 -0.0466 -0.0175  0.5239
  138OSM   H15A14990   0.128   2.552   5.504 -0.0147 -0.2488  0.7534
  138OSM   H15B14991   0.098   2.726   5.545  0.4970 -0.2961 -0.4060
  138OSM   H15C14992   0.007   2.592   5.611 -0.3328  1.7843  1.6950
  138OSM    C1414993   0.262   2.481   5.705 -0.5268  0.1087 -0.4414
  138OSM   H14A14994   0.184   2.416   5.742 -0.0298 -1.2685 -1.7327
  138OSM   H14B14995   0.348   2.479   5.770  1.4448 -3.6068 -2.8802
  138OSM   H14C14996   0.291   2.439   5.610  0.7862 -2.9969  1.1984
  138OSM    C1314997   0.324   2.705   5.655 -0.7319 -0.1905  0.3337
  138OSM   H13A14998   0.356   2.661   5.562 -0.8369  0.7355 -0.1472
  138OSM   H13B14999   0.404   2.698   5.727 -1.5089 -1.7341  1.1103
  138OSM   H13C15000   0.301   2.809   5.638 -0.2461  0.0837  1.2607
  138OSM    C1215001   0.144   2.673   5.818 -0.4201  0.4977 -0.1144
  138OSM   H12A15002   0.090   2.594   5.869 -0.4361  0.2361 -0.5280
  138OSM   H12B15003   0.079   2.756   5.793  2.2279  2.1286 -2.0739
  138OSM    C1115004   0.236   2.729   5.938  0.5523  0.0801  0.4189
  138OSM   H11A15005   0.183   2.758   6.031  1.3539  0.6852  0.6978
  138OSM   H11B15006   0.280   2.822   5.894  1.6365 -0.8927 -0.6280
  138OSM      P15007   0.464   2.678   6.050  0.5132 -0.1557 -0.1311
  138OSM    O1315008   0.547   2.565   6.096 -0.5338 -0.8016  0.8698
  138OSM    O1415009   0.534   2.776   5.964 -0.2195 -0.0425 -0.5758
  138OSM    O1115010   0.397   2.758   6.177 -0.2283 -0.2292  0.7542
  138OSM    O1215011   0.330   2.628   5.977  0.2680  0.5815 -0.3335
  138OSM    C1S15012   0.317   2.695   6.278 -0.6582 -0.6223  0.2831
  138OSM    H1S15013   0.356   2.593   6.296 -0.7800 -0.5206  1.1393
  138OSM    H1T15014   0.211   2.703   6.244 -1.1364  1.5422  2.0513
  138OSM     NF15015   0.265   2.690   6.516 -0.1175  0.1550 -0.0325
  138OSM    HNF15016   0.167   2.692   6.534  0.3787  0.2154  3.3103
  138OSM    C2S15017   0.321   2.770   6.416  0.0437 -0.0036  0.8077
  138OSM    H2S15018   0.426   2.792   6.442  0.5117  1.0431 -1.6446
  138OSM    C3S15019   0.237   2.906   6.399 -0.0922 -0.0473 -0.3443
  138OSM    H3S15020   0.132   2.873   6.381  0.2840 -2.2804  1.0885
  138OSM     O315021   0.280   2.979   6.286  0.1624 -0.2683 -0.1260
  138OSM    HO315022   0.324   2.908   6.239 -0.7672 -1.4941  0.7713
  138OSM    C4S15023   0.253   2.987   6.518  0.1332 -0.7484 -0.0419
  138OSM    H4S15024   0.345   3.047   6.518  0.8323 -1.5859 -3.5993
  138OSM    C5S15025   0.169   2.996   6.627  0.2146 -0.4151  0.6862
  138OSM    H5S15026   0.077   2.937   6.614  0.5550 -0.4715 -1.9154
  138OSM    C6S15027   0.196   3.073   6.749  0.3517 -0.0522 -0.0932
  138OSM    H6S15028   0.127   3.159   6.751 -0.4613 -0.6755 -0.8353
  138OSM    H6T15029   0.303   3.102   6.758  0.8812 -1.0318 -2.4751
  138OSM    C7S15030   0.166   2.982   6.869 -0.2574 -0.2733 -0.0425
  138OSM    H7S15031   0.234   2.894   6.872 -0.0184 -0.0612  1.1397
  138OSM    H7T15032   0.061   2.947   6.876 -0.9565  1.4838 -1.1371
  138OSM    C8S15033   0.194   3.057   6.995  0.8847 -0.6292  0.5097
  138OSM    H8S15034   0.134   3.150   6.986  0.3652 -1.0400 -0.4040
  138OSM    H8T15035   0.303   3.078   6.993  0.7548  0.1401  1.0130
  138OSM    C9S15036   0.158   2.986   7.127 -0.1544  0.4120  0.2761
  138OSM    H9S15037   0.209   2.887   7.126  0.3710  0.6762 -0.1406
  138OSM    H9T15038   0.050   2.964   7.134  0.0050 -0.0987  1.2889
  138OSM   C10S15039   0.212   3.064   7.253 -0.4844 -0.5465  0.4989
  138OSM   H10S15040   0.176   3.169   7.254  1.4304  0.1626 -0.1354
  138OSM   H10T15041   0.322   3.075   7.252 -0.6461  1.3486  0.6770
  138OSM   C11S15042   0.161   2.994   7.378  0.0479  0.1959 -0.4233
  138OSM   H11S15043   0.215   2.897   7.368 -0.6903 -0.4677  1.4954
  138OSM   H11T15044   0.051   2.986   7.373 -0.1182  0.7641  1.4390
  138OSM   C12S15045   0.204   3.073   7.502 -1.1767  0.1178 -0.2640
  138OSM   H12S15046   0.175   3.179   7.487 -0.5404  0.4235  0.5814
  138OSM   H12T15047   0.313   3.079   7.522 -1.1500 -1.3901  0.2140
  138OSM   C13S15048   0.136   3.011   7.628 -0.5246 -0.7365  0.3980
  138OSM   H13S15049   0.164   2.905   7.644 -0.7494 -1.0946 -1.3794
  138OSM   H13T15050   0.025   3.012   7.624 -0.5326  0.6487  0.2926
  138OSM   C14S15051   0.175   3.096   7.749 -0.6399 -0.7623  0.8122
  138OSM   H14S15052   0.121   3.193   7.749 -0.7309 -0.8103  0.3216
  138OSM   H14T15053   0.282   3.121   7.731 -1.3137  0.9326 -1.3291
  138OSM   C15S15054   0.140   3.042   7.888 -0.0307  0.0054  0.3884
  138OSM   H15S15055   0.175   2.938   7.906  0.5063  0.4621  2.1848
  138OSM   H15T15056   0.031   3.043   7.911  0.0153 -0.4826  0.6410
  138OSM   C16S15057   0.193   3.136   7.997  0.3588  0.0175 -0.5348
  138OSM   H16S15058   0.155   3.239   7.979 -0.0806 -0.1179 -0.3914
  138OSM   H16T15059   0.304   3.146   7.990  0.7079 -3.4743 -2.5489
  138OSM   C17S15060   0.154   3.083   8.127  0.1497 -0.0962  0.5062
  138OSM   H17S15061   0.051   3.044   8.111 -0.0402  0.2645  0.8323
  138OSM   H17T15062   0.148   3.154   8.211  0.7623 -1.3999  1.6935
  138OSM   C18S15063   0.249   2.970   8.180 -0.6026  0.1110  0.4039
  138OSM   H18S15064   0.247   2.880   8.114 -0.7418  1.4279 -1.4759
  138OSM   H18T15065   0.213   2.942   8.281 -2.4134 -1.4350 -0.5889
  138OSM   H18U15066   0.353   3.003   8.201  0.2869 -1.1968 -1.6002
  138OSM    C1F15067   0.339   2.588   6.566 -0.8620 -0.0530  0.5263
  138OSM     OF15068   0.448   2.559   6.522 -0.3411 -0.2803 -0.0636
  138OSM    C2F15069   0.280   2.507   6.677 -0.5668  0.2631  0.3681
  138OSM    H2F15070   0.351   2.422   6.686 -0.3056  0.4806  0.3849
  138OSM    H2G15071   0.185   2.456   6.649 -1.1167  0.5011  1.6977
  138OSM    C3F15072   0.263   2.580   6.808  0.4141 -0.3947 -0.5095
  138OSM    H3F15073   0.183   2.657   6.816 -0.3787 -1.4045  2.0184
  138OSM    H3G15074   0.363   2.627   6.820 -0.2208  0.8233  0.1915
  138OSM    C4F15075   0.233   2.497   6.940  0.5172  0.4869  0.0254
  138OSM    H4F15076   0.306   2.414   6.946 -2.7127 -2.5382  0.2227
  138OSM    H4G15077   0.134   2.448   6.930  0.7917  0.1436 -1.2039
  138OSM    C5F15078   0.238   2.594   7.055 -0.2777  0.6790  0.3133
  138OSM    H5F15079   0.169   2.680   7.043  1.8057  2.6966  1.9704
  138OSM    H5G15080   0.345   2.625   7.058 -0.1277  0.2121 -0.0221
  138OSM    C6F15081   0.201   2.522   7.187  0.5228  0.2592  0.3799
  138OSM    H6F15082   0.259   2.431   7.214  1.3625  0.7514  0.2424
  138OSM    H6G15083   0.100   2.480   7.163 -0.1109  0.7029  2.1036
  138OSM    C7F15084   0.178   2.616   7.301  0.1325 -0.2049  0.1338
  138OSM    H7F15085   0.114   2.701   7.268 -0.5902 -0.4217  0.9348
  138OSM    H7G15086   0.270   2.662   7.342 -1.1913  4.1969 -1.2213
  138OSM    C8F15087   0.106   2.551   7.411 -0.2002  0.7741 -0.0571
  138OSM    H8F15088   0.167   2.462   7.439 -0.6962  0.3566 -0.3030
  138OSM    H8G15089   0.009   2.520   7.367  1.1473  0.0562 -2.7385
  138OSM    C9F15090   0.090   2.648   7.525  0.4604  0.7309 -0.0996
  138OSM    H9F15091   0.034   2.738   7.495 -2.1009 -1.1075 -1.2944
  138OSM   C10F15092   0.126   2.633   7.657 -0.4354 -0.0864  0.4364
  138OSM   H10F15093   0.102   2.711   7.730  2.2539  0.2220  1.1080
  138OSM   C11F15094   0.189   2.516   7.723  0.0603  0.9243  0.3395
  138OSM   H11F15095   0.277   2.481   7.663  0.9260 -1.1939  2.6656
  138OSM   H11G15096   0.114   2.437   7.740  0.0533  0.7829 -0.3203
  138OSM   C12F15097   0.247   2.561   7.857 -0.5873  0.2738  0.6640
  138OSM   H12F15098   0.291   2.662   7.841 -1.3134  0.5609  0.4294
  138OSM   H12G15099   0.331   2.498   7.893  0.6907  1.1427 -0.6721
  138OSM   C13F15100   0.151   2.558   7.975 -0.0136  0.0575  0.1669
  138OSM   H13F15101   0.050   2.591   7.943  0.3917  0.1503 -1.1139
  138OSM   H13G15102   0.183   2.619   8.062  1.6136  1.0553 -1.0569
  138OSM   C14F15103   0.119   2.412   8.014 -0.3875 -0.4296 -0.7315
  138OSM   H14F15104   0.209   2.376   8.068 -0.5365 -1.8694 -1.4059
  138OSM   H14G15105   0.097   2.342   7.931  1.7166  0.7961 -2.4421
  138OSM   C15F15106   0.004   2.390   8.108 -0.1855 -0.1856  0.0940
  138OSM   H15F15107  -0.013   2.283   8.134 -0.3903  0.0365  0.8852
  138OSM   H15G15108  -0.090   2.407   8.052 -0.5485  1.3538  1.1150
  138OSM   C16F15109   0.005   2.465   8.233 -0.0764  0.3026 -1.0221
  138OSM   H16F15110  -0.024   2.564   8.194  1.2085  0.4526 -1.6561
  138OSM   H16G15111   0.106   2.472   8.279 -1.0310  0.1421  1.2159
  138OSM   C17F15112  -0.094   2.419   8.347 -0.0018 -0.4758 -0.2982
  138OSM   H17F15113  -0.080   2.314   8.382 -3.3556 -0.3310  1.8503
  138OSM   H17G15114  -0.195   2.411   8.303 -0.4073  2.3540 -0.0792
  138OSM   C18F15115  -0.107   2.519   8.461 -0.1295 -0.5139 -0.8248
  138OSM   H18F15116  -0.153   2.465   8.547 -1.3277  0.6093 -0.7295
  138OSM   H18G15117  -0.178   2.604   8.449  0.1748 -0.0470  0.5114
  138OSM   H18H15118  -0.009   2.549   8.503 -1.1222  0.6341  0.7714
  139OSM      N15119   6.299   2.473   6.140 -0.1311 -0.5150  0.1463
  139OSM    C1515120   6.247   2.329   6.141 -0.1948 -0.3861  0.4540
  139OSM   H15A15121   6.219   2.311   6.039  2.0723  1.3536 -0.5882
  139OSM   H15B15122   6.162   2.322   6.207 -0.9751  0.9044 -0.3624
  139OSM   H15C15123   6.318   2.253   6.173  1.6239  1.0285 -0.0405
  139OSM    C1415124   6.199   2.566   6.083 -0.0956 -0.2997 -0.2063
  139OSM   H14A15125   6.154   2.532   5.991  0.0177 -0.8360 -0.0704
  139OSM   H14B15126   6.252   2.655   6.053 -0.0506 -0.3511 -0.2801
  139OSM   H14C15127   6.125   2.590   6.157 -0.7237  1.1579 -1.2755
  139OSM    C1315128   6.324   2.515   6.290  0.7521 -0.1965  0.3479
  139OSM   H13A15129   6.350   2.620   6.285 -0.0407 -0.0338 -0.6873
  139OSM   H13B15130   6.422   2.477   6.315  0.6299 -0.9409 -0.2778
  139OSM   H13C15131   6.239   2.485   6.349  0.1046  0.5631 -0.1767
  139OSM    C1215132   6.425   2.490   6.051  0.0473  0.2245  0.0299
  139OSM   H12A15133   6.402   2.458   5.950 -0.9523  2.1737 -0.4191
  139OSM   H12B15134   6.500   2.430   6.100 -0.8669 -0.5275  0.5321
  139OSM    C1115135   6.493   2.626   6.031 -0.1749 -1.1299 -0.3479
  139OSM   H11A15136   6.423   2.683   5.966 -0.0842 -0.8343 -0.1880
  139OSM   H11B15137   6.584   2.611   5.969  0.0590  0.0504 -0.3260
  139OSM      P15138   6.661   2.722   6.208 -0.5660  0.7328  0.4088
  139OSM    O1315139   6.727   2.586   6.231  0.0483 -0.1439 -0.0926
  139OSM    O1415140   6.734   2.818   6.119  0.5338 -0.2964  0.4086
  139OSM    O1115141   6.649   2.786   6.350  0.1318  0.1768 -0.2696
  139OSM    O1215142   6.518   2.690   6.159 -0.3025  0.3032  0.5539
  139OSM    C1S15143   6.543   2.860   6.405  0.6572 -0.1314 -0.0931
  139OSM    H1S15144   6.457   2.862   6.335 -0.3158 -0.2554  1.0692
  139OSM    H1T15145   6.580   2.964   6.420  1.8219 -0.5810  0.3283
  139OSM     NF15146   6.387   2.906   6.589 -0.4207 -0.0003  0.5349
  139OSM    HNF15147   6.411   2.974   6.658  2.2283  1.4169 -1.5856
  139OSM    C2S15148   6.487   2.810   6.543  0.0623 -0.5446  0.0973
  139OSM    H2S15149   6.442   2.710   6.524  1.8324 -1.7261  1.7309
  139OSM    C3S15150   6.602   2.798   6.645 -0.3585 -0.4046  0.8018
  139OSM    H3S15151   6.637   2.901   6.670  0.0476  0.2218 -2.0020
  139OSM     O315152   6.726   2.738   6.598  0.2222 -0.0570  0.0268
  139OSM    HO315153   6.715   2.736   6.502 -1.1657 -0.4084  0.1713
  139OSM    C4S15154   6.549   2.738   6.776 -0.6647  0.0863  0.5975
  139OSM    H4S15155   6.441   2.744   6.799 -0.8138  0.3568 -0.1284
  139OSM    C5S15156   6.629   2.703   6.881 -0.7940 -0.7421  0.6307
  139OSM    H5S15157   6.736   2.725   6.885 -0.4704 -2.2402  0.5251
  139OSM    C6S15158   6.561   2.653   7.003 -0.5048 -1.2456 -0.3503
  139OSM    H6S15159   6.616   2.558   7.022 -2.1258 -2.3563 -0.9499
  139OSM    H6T15160   6.456   2.631   6.974 -0.2334  0.4685 -2.9820
  139OSM    C7S15161   6.547   2.737   7.133 -0.1157 -0.5101  0.1460
  139OSM    H7S15162   6.468   2.815   7.124  0.0960 -0.1662  1.1475
  139OSM    H7T15163   6.643   2.790   7.145 -0.5254  0.8174 -1.9114
  139OSM    C8S15164   6.522   2.654   7.262  0.2949 -0.1081  0.3235
  139OSM    H8S15165   6.616   2.597   7.275  1.7479  1.9094 -0.7528
  139OSM    H8T15166   6.436   2.584   7.256  0.8098 -0.8944  1.7219
  139OSM    C9S15167   6.513   2.738   7.393 -0.0726 -0.4862  0.2503
  139OSM    H9S15168   6.424   2.804   7.392 -1.3076 -2.0867  0.4946
  139OSM    H9T15169   6.600   2.807   7.384 -0.2416 -0.2703  0.2615
  139OSM   C10S15170   6.505   2.663   7.524 -0.3686 -0.4880  0.5851
  139OSM   H10S15171   6.598   2.603   7.536 -0.1152 -0.4649 -0.9882
  139OSM   H10T15172   6.417   2.596   7.527 -0.8072 -0.0192 -0.7366
  139OSM   C11S15173   6.499   2.756   7.649  0.1954  0.1313  0.2653
  139OSM   H11S15174   6.411   2.824   7.640  2.8455  3.9395  0.8440
  139OSM   H11T15175   6.590   2.819   7.654 -0.1146  0.4941  2.0360
  139OSM   C12S15176   6.491   2.669   7.773 -0.0301 -0.4134 -0.5598
  139OSM   H12S15177   6.587   2.613   7.779  0.4078  0.4230  0.8187
  139OSM   H12T15178   6.404   2.600   7.779  0.4669 -0.9647  0.6721
  139OSM   C13S15179   6.485   2.760   7.896 -0.3462 -0.5949  0.0708
  139OSM   H13S15180   6.404   2.834   7.878 -0.7199 -0.8050  0.8782
  139OSM   H13T15181   6.583   2.812   7.901 -1.3240  1.2830  0.9138
  139OSM   C14S15182   6.461   2.683   8.025  0.0679 -0.3802  0.1600
  139OSM   H14S15183   6.544   2.610   8.022  1.0531  0.7215 -2.3327
  139OSM   H14T15184   6.366   2.625   8.025  0.5862 -1.2522 -0.2863
  139OSM   C15S15185   6.477   2.757   8.160  0.0768  0.4215  0.1303
  139OSM   H15S15186   6.475   2.676   8.236 -2.2812  0.3759  0.0988
  139OSM   H15T15187   6.390   2.826   8.162 -1.1506 -0.8809 -2.8696
  139OSM   C16S15188   6.610   2.831   8.180 -0.4606 -1.0814 -0.0438
  139OSM   H16S15189   6.623   2.912   8.104  0.4766 -0.9892  0.2068
  139OSM   H16T15190   6.697   2.768   8.153 -0.0111 -0.7637  0.6372
  139OSM   C17S15191   6.631   2.885   8.316 -0.2281 -0.5334 -0.7719
  139OSM   H17S15192   6.731   2.852   8.349  0.1949  1.3511 -0.0399
  139OSM   H17T15193   6.567   2.832   8.390  0.8856 -0.8821 -0.0414
  139OSM   C18S15194   6.611   3.035   8.343  0.1676 -0.4950  0.0892
  139OSM   H18S15195   6.684   3.098   8.288 -1.3645 -0.9427 -2.6340
  139OSM   H18T15196   6.628   3.042   8.453  0.9775  0.1445 -0.0658
  139OSM   H18U15197   6.509   3.069   8.318  0.0848 -1.0929 -0.4117
  139OSM    C1F15198   6.269   2.908   6.536  0.9910 -0.1031  0.3325
  139OSM     OF15199   6.228   2.824   6.456 -0.1027  0.8932 -0.3186
  139OSM    C2F15200   6.181   3.021   6.591 -0.1362 -0.3252 -0.0269
  139OSM    H2F15201   6.116   3.069   6.514  0.6420  2.9191  1.1479
  139OSM    H2G15202   6.245   3.102   6.631 -0.6339  0.0421  0.0457
  139OSM    C3F15203   6.107   2.956   6.707  0.4479 -0.0769 -0.0407
  139OSM    H3F15204   6.173   2.924   6.789 -1.6902 -2.6762  0.8089
  139OSM    H3G15205   6.039   2.874   6.676  0.1309 -0.1728  0.8705
  139OSM    C4F15206   6.010   3.069   6.766  0.1852 -0.4210 -0.1310
  139OSM    H4F15207   5.947   3.093   6.678 -3.0795 -3.5796  1.1507
  139OSM    H4G15208   6.078   3.153   6.793 -0.5735 -0.0003  0.5030
  139OSM    C5F15209   5.926   3.022   6.883  0.0299 -0.0323 -0.2967
  139OSM    H5F15210   5.988   2.953   6.945 -0.2135  0.4522  0.5058
  139OSM    H5G15211   5.828   2.982   6.849 -1.3477  2.8150  0.1084
  139OSM    C6F15212   5.886   3.138   6.974 -0.8727  0.1245  0.4864
  139OSM    H6F15213   5.828   3.208   6.910 -0.8294 -1.2785 -1.1349
  139OSM    H6G15214   5.977   3.191   7.012 -1.0694  1.8804 -1.3377
  139OSM    C7F15215   5.791   3.099   7.078  0.3191  0.4874  0.1037
  139OSM    H7F15216   5.838   3.008   7.120  0.6560  0.2705 -0.7098
  139OSM    H7G15217   5.693   3.074   7.032  0.6876  0.0862 -0.4802
  139OSM    C8F15218   5.771   3.205   7.183  0.6966  0.0072 -0.3432
  139OSM    H8F15219   5.726   3.294   7.133  0.8244 -0.6163 -1.6052
  139OSM    H8G15220   5.871   3.232   7.223  0.1354 -0.2722  1.2878
  139OSM    C9F15221   5.679   3.147   7.285  0.0900 -0.5888 -0.1277
  139OSM    H9F15222   5.578   3.114   7.259 -2.0989  1.2804  4.7582
  139OSM   C10F15223   5.721   3.112   7.406 -0.1583 -0.5557 -0.0168
  139OSM   H10F15224   5.648   3.087   7.484 -0.0459 -1.5635 -0.2301
  139OSM   C11F15225   5.862   3.120   7.450 -0.3211 -0.3023  0.6762
  139OSM   H11F15226   5.890   3.226   7.470 -1.3154  0.0374  0.3114
  139OSM   H11G15227   5.933   3.078   7.376  2.8193 -1.1974  3.8885
  139OSM   C12F15228   5.877   3.030   7.572 -0.0660 -0.1695 -0.3905
  139OSM   H12F15229   5.981   2.995   7.585  0.2676  1.0125  0.2956
  139OSM   H12G15230   5.843   2.927   7.549 -0.4045 -0.3902  1.0537
  139OSM   C13F15231   5.814   3.086   7.704 -0.2841 -0.7676  0.5159
  139OSM   H13F15232   5.704   3.068   7.699 -0.1061 -1.5938 -3.4848
  139OSM   H13G15233   5.825   3.196   7.690 -1.7801 -0.9458 -3.4973
  139OSM   C14F15234   5.883   3.045   7.833  0.9413 -0.2605  0.5532
  139OSM   H14F15235   5.991   3.069   7.818  0.6991  1.2609  1.0559
  139OSM   H14G15236   5.870   2.935   7.838 -1.0421 -0.0954 -0.1101
  139OSM   C15F15237   5.825   3.095   7.969  0.4057  0.3875  0.6251
  139OSM   H15F15238   5.715   3.079   7.975 -0.2787  4.1331  0.7362
  139OSM   H15G15239   5.839   3.206   7.968  2.5331  0.1576 -0.7427
  139OSM   C16F15240   5.891   3.034   8.092  0.3664  0.4411 -0.0638
  139OSM   H16F15241   5.895   2.924   8.072  0.8210  0.3991  0.2427
  139OSM   H16G15242   5.836   3.039   8.189 -1.3048  2.5706 -1.0415
  139OSM   C17F15243   6.036   3.094   8.119 -0.4701 -0.3142  0.3773
  139OSM   H17F15244   6.020   3.203   8.133  1.3875  0.6855 -3.5939
  139OSM   H17G15245   6.095   3.074   8.026 -0.4234 -2.9461  0.8825
  139OSM   C18F15246   6.103   3.035   8.241  0.0667 -0.9154  0.2391
  139OSM   H18F15247   6.061   3.084   8.332  0.5406  0.9676 -0.4968
  139OSM   H18G15248   6.214   3.039   8.245  0.0083  1.0953  1.8543
  139OSM   H18H15249   6.078   2.927   8.248  1.0371 -1.4236 -2.7327
  140OSM      N15250   6.619   6.125   6.186 -0.0555 -0.7996  0.9530
  140OSM    C1515251   6.599   6.268   6.222 -0.0709  0.0074  0.6692
  140OSM   H15A15252   6.628   6.294   6.322  2.2090  2.7232 -0.5504
  140OSM   H15B15253   6.497   6.301   6.210 -0.6439 -2.2257 -1.5851
  140OSM   H15C15254   6.671   6.328   6.167  0.3927 -1.2912 -0.1912
  140OSM    C1415255   6.619   6.134   6.034 -0.1126  0.2548  0.0906
  140OSM   H14A15256   6.675   6.214   5.989  0.1635 -1.8050 -3.6330
  140OSM   H14B15257   6.520   6.153   5.994  0.5633 -0.5246 -2.1210
  140OSM   H14C15258   6.643   6.041   5.985 -1.0764 -0.8034  1.5431
  140OSM    C1315259   6.752   6.086   6.242  0.0543  0.2481 -0.4685
  140OSM   H13A15260   6.786   5.984   6.239  0.7904  0.4417  0.5722
  140OSM   H13B15261   6.757   6.113   6.347  0.1030  1.9100 -0.8669
  140OSM   H13C15262   6.832   6.139   6.194  0.2582  0.3321 -0.0429
  140OSM    C1215263   6.504   6.044   6.233  0.3460 -0.0446 -0.1459
  140OSM   H12A15264   6.503   5.947   6.186  1.3483 -0.0174 -0.2646
  140OSM   H12B15265   6.413   6.089   6.197  0.4741 -0.5019 -1.0720
  140OSM    C1115266   6.493   6.027   6.389 -0.0452 -0.1579 -1.0997
  140OSM   H11A15267   6.584   5.974   6.423 -1.1454 -0.9230  0.8543
  140OSM   H11B15268   6.400   5.972   6.417 -0.0337  1.1747  1.9896
  140OSM      P15269   6.329   6.220   6.449  0.0317 -0.3409  0.0198
  140OSM    O1315270   6.346   6.366   6.452 -0.5375 -0.0316  0.5978
  140OSM    O1415271   6.256   6.153   6.342  0.4226 -1.2391  0.3618
  140OSM    O1115272   6.272   6.179   6.587 -0.3556 -0.0543  0.5523
  140OSM    O1215273   6.468   6.150   6.456 -0.2371 -0.0903 -0.4625
  140OSM    C1S15274   6.325   6.099   6.687 -0.2425  0.2389  0.2753
  140OSM    H1S15275   6.368   6.168   6.762  2.5394 -0.9073 -0.1634
  140OSM    H1T15276   6.390   6.021   6.642  0.7884  1.2961 -0.1164
  140OSM     NF15277   6.283   5.955   6.879  0.0051 -0.2446  0.0949
  140OSM    HNF15278   6.289   5.856   6.874 -0.2350 -0.3440  1.4267
  140OSM    C2S15279   6.210   6.027   6.771 -0.4744  0.0381  0.4250
  140OSM    H2S15280   6.140   6.107   6.803 -1.4617 -0.6237 -0.0280
  140OSM    C3S15281   6.115   5.937   6.684 -0.0043 -0.2454 -0.0564
  140OSM    H3S15282   6.177   5.867   6.625 -0.9259  0.7149 -2.2984
  140OSM     O315283   6.050   6.006   6.571 -0.4142 -0.2837 -0.0398
  140OSM    HO315284   6.116   6.069   6.539 -1.8210  1.9735  1.2778
  140OSM    C4S15285   6.005   5.872   6.762 -0.8802  0.3678 -0.4852
  140OSM    H4S15286   6.041   5.789   6.825 -1.4679  1.1500  0.9309
  140OSM    C5S15287   5.876   5.904   6.765  0.3138 -0.5515 -0.7784
  140OSM    H5S15288   5.840   5.990   6.705  0.4423  0.1830  0.1804
  140OSM    C6S15289   5.770   5.848   6.853 -0.1941  0.1000  0.4571
  140OSM    H6S15290   5.682   5.817   6.793  2.7898 -3.1316 -2.7572
  140OSM    H6T15291   5.741   5.930   6.922  1.0841  1.8941 -1.0385
  140OSM    C7S15292   5.803   5.722   6.942 -1.0760 -0.2794  0.7990
  140OSM    H7S15293   5.856   5.646   6.881 -0.1564 -0.0924  1.3487
  140OSM    H7T15294   5.714   5.667   6.977 -0.7913 -0.0892  1.8364
  140OSM    C8S15295   5.897   5.739   7.058 -0.4747  0.0520 -0.2124
  140OSM    H8S15296   5.845   5.823   7.108 -0.0584 -0.5193  1.2287
  140OSM    H8T15297   6.002   5.757   7.028  0.0219 -1.7757  0.2581
  140OSM    C9S15298   5.902   5.612   7.150  0.3304  0.3230 -0.2706
  140OSM    H9S15299   5.939   5.520   7.099  1.4018 -0.6827  2.1278
  140OSM    H9T15300   5.797   5.582   7.168  0.4986 -0.2502 -0.1902
  140OSM   C10S15301   5.980   5.638   7.279 -0.4359 -0.0879  0.4371
  140OSM   H10S15302   5.959   5.743   7.309 -2.2463 -0.2352 -0.1946
  140OSM   H10T15303   6.090   5.624   7.271 -0.4822 -0.1649 -0.1213
  140OSM   C11S15304   5.944   5.537   7.386  0.8353  0.3437  0.5610
  140OSM   H11S15305   5.931   5.434   7.346  2.5090 -1.1748  3.5985
  140OSM   H11T15306   5.840   5.565   7.414  0.8863 -1.3807  2.7763
  140OSM   C12S15307   6.045   5.547   7.500  0.0593  0.0894 -0.1039
  140OSM   H12S15308   6.045   5.655   7.528 -0.7785  0.5051 -1.5908
  140OSM   H12T15309   6.148   5.522   7.469  0.0975 -0.0187  0.1088
  140OSM   C13S15310   5.997   5.484   7.631 -0.2924 -0.6339  0.0520
  140OSM   H13S15311   5.978   5.375   7.625 -3.0400 -0.3484  1.9008
  140OSM   H13T15312   5.898   5.531   7.654  0.1721 -0.3806  1.6504
  140OSM   C14S15313   6.092   5.496   7.748  0.2591 -0.8351  0.1858
  140OSM   H14S15314   6.113   5.600   7.781  0.5863 -1.1937  1.1505
  140OSM   H14T15315   6.187   5.450   7.712 -0.6659 -1.8011 -1.0766
  140OSM   C15S15316   6.041   5.427   7.870 -0.5585  0.7162  0.2422
  140OSM   H15S15317   6.013   5.322   7.849  0.6930  0.8006 -2.2273
  140OSM   H15T15318   5.947   5.482   7.893  0.5330  2.6705  0.2252
  140OSM   C16S15319   6.141   5.431   7.986  0.6596  0.1373  0.3981
  140OSM   H16S15320   6.210   5.518   7.987  2.0887 -0.9640  0.5712
  140OSM   H16T15321   6.207   5.342   7.980  1.5886  0.7325  1.4318
  140OSM   C17S15322   6.065   5.418   8.118  0.0446  0.2305 -0.5208
  140OSM   H17S15323   5.987   5.339   8.114 -0.0099  0.1570  1.2368
  140OSM   H17T15324   6.006   5.509   8.142  0.7323  0.9961 -1.6716
  140OSM   C18S15325   6.158   5.388   8.242  0.0508  0.0082 -0.1846
  140OSM   H18S15326   6.105   5.383   8.340 -0.6516 -2.0635 -0.6218
  140OSM   H18T15327   6.239   5.464   8.235  0.8320 -0.7043  0.8035
  140OSM   H18U15328   6.206   5.288   8.234  0.4833  0.0489  1.4790
  140OSM    C1F15329   6.350   6.017   6.977  0.3822  0.5986 -0.3866
  140OSM     OF15330   6.354   6.139   6.989 -0.1451  0.1760  0.3976
  140OSM    C2F15331   6.430   5.924   7.063 -0.1464  0.8362  0.1706
  140OSM    H2F15332   6.511   5.990   7.100  0.0109  1.6406 -1.4931
  140OSM    H2G15333   6.468   5.847   6.992  0.7494  2.0388 -0.7182
  140OSM    C3F15334   6.348   5.868   7.181 -0.1280  0.2972 -0.0611
  140OSM    H3F15335   6.264   5.809   7.138 -0.6683  0.9244  0.1303
  140OSM    H3G15336   6.308   5.956   7.235  0.8668 -0.6377  2.3555
  140OSM    C4F15337   6.435   5.785   7.281  0.0707  0.2419 -0.3370
  140OSM    H4F15338   6.537   5.829   7.276  0.4428 -0.7258 -2.2047
  140OSM    H4G15339   6.450   5.682   7.243  0.3410  0.0761  0.2183
  140OSM    C5F15340   6.382   5.792   7.426  0.2648  0.7181 -0.7557
  140OSM    H5F15341   6.278   5.751   7.425  0.1074  0.9757  1.0968
  140OSM    H5G15342   6.386   5.899   7.455  0.1697 -0.2663  3.5822
  140OSM    C6F15343   6.470   5.734   7.542  0.5559 -0.1311  0.0564
  140OSM    H6F15344   6.570   5.774   7.515 -0.4027  2.5600  0.2053
  140OSM    H6G15345   6.474   5.624   7.531  1.4262 -0.3821  2.2589
  140OSM    C7F15346   6.425   5.780   7.682  0.8874  0.0396  0.5017
  140OSM    H7F15347   6.319   5.749   7.694  0.4972  0.1062 -2.2296
  140OSM    H7G15348   6.441   5.890   7.678  1.7785 -0.0875  0.2289
  140OSM    C8F15349   6.499   5.714   7.789 -0.5763  0.2455 -0.4480
  140OSM    H8F15350   6.483   5.604   7.785 -1.1272  0.2383  1.1623
  140OSM    H8G15351   6.461   5.753   7.886 -1.2922  0.9270 -0.9911
  140OSM    C9F15352   6.653   5.746   7.781 -0.6923 -0.0509  0.1088
  140OSM    H9F15353   6.692   5.789   7.688  2.2125  1.9847  2.0864
  140OSM   C10F15354   6.743   5.718   7.881  0.0414 -0.0374  0.0307
  140OSM   H10F15355   6.846   5.756   7.873  0.0084 -0.1619 -1.2662
  140OSM   C11F15356   6.711   5.661   8.015  0.8823  0.2620  0.5085
  140OSM   H11F15357   6.778   5.584   8.059  0.6258  0.7157  1.7241
  140OSM   H11G15358   6.608   5.619   8.017  0.4415  1.1586 -1.2053
  140OSM   C12F15359   6.703   5.777   8.110 -0.3939  0.0735 -1.2115
  140OSM   H12F15360   6.624   5.846   8.075 -2.7942 -2.3404 -0.8464
  140OSM   H12G15361   6.801   5.829   8.124  0.0636 -0.8779 -0.7805
  140OSM   C13F15362   6.662   5.728   8.254 -0.1190  0.0341  0.1515
  140OSM   H13F15363   6.757   5.695   8.304  0.8770  1.1834 -0.9175
  140OSM   H13G15364   6.607   5.632   8.248 -0.3781  0.0864  1.3585
  140OSM   C14F15365   6.575   5.830   8.332  0.3243  0.3484 -0.1288
  140OSM   H14F15366   6.522   5.788   8.420  0.7822 -0.5311 -0.2568
  140OSM   H14G15367   6.498   5.867   8.262 -0.0165  2.8793  1.4750
  140OSM   C15F15368   6.657   5.948   8.389  0.5996 -0.3637 -0.2521
  140OSM   H15F15369   6.595   6.020   8.446  0.7447 -1.2299  1.0292
  140OSM   H15G15370   6.714   6.002   8.310  0.7566 -0.1607 -0.0034
  140OSM   C16F15371   6.757   5.913   8.503 -0.6513 -0.4380  0.2609
  140OSM   H16F15372   6.816   5.823   8.474  0.8976  0.3183  0.9119
  140OSM   H16G15373   6.703   5.886   8.596  1.4382 -0.9481  1.3882
  140OSM   C17F15374   6.859   6.024   8.532  0.2355  0.5927  0.3847
  140OSM   H17F15375   6.812   6.124   8.548  0.8889  0.7134  1.6608
  140OSM   H17G15376   6.927   6.025   8.444 -0.7705  1.3172 -0.4189
  140OSM   C18F15377   6.954   5.992   8.652  1.1400  0.0462  1.2280
  140OSM   H18F15378   6.899   5.972   8.746 -0.6383 -2.3986 -0.2146
  140OSM   H18G15379   7.016   6.081   8.675  1.0698  0.2119  0.7932
  140OSM   H18H15380   7.019   5.905   8.630 -1.6338 -1.6115 -1.0723
  141OSM      N15381   4.968   6.425   6.072  0.0615  0.3082  0.8182
  141OSM    C1515382   4.866   6.328   6.109  0.2530  0.5764 -0.4972
  141OSM   H15A15383   4.816   6.284   6.024  0.3970  0.2976 -0.4359
  141OSM   H15B15384   4.799   6.380   6.177 -3.5281 -1.5613 -2.2531
  141OSM   H15C15385   4.910   6.241   6.156  0.2638 -0.1336 -1.7831
  141OSM    C1415386   5.045   6.360   5.969 -0.0828  0.9367  0.3445
  141OSM   H14A15387   5.098   6.271   6.001  0.8091  0.8239 -1.2933
  141OSM   H14B15388   5.127   6.420   5.932 -2.0290  3.7678  0.3621
  141OSM   H14C15389   4.993   6.330   5.879  1.0601  1.8049 -0.6377
  141OSM    C1315390   4.914   6.549   6.019 -0.2782  0.4467 -0.0809
  141OSM   H13A15391   4.995   6.607   5.978  0.7535  0.2826  1.6072
  141OSM   H13B15392   4.867   6.588   6.108 -0.8334 -1.7250  0.6405
  141OSM   H13C15393   4.844   6.539   5.937 -0.0560  1.1068 -0.3519
  141OSM    C1215394   5.055   6.450   6.186  0.6555  0.1314  0.2054
  141OSM   H12A15395   5.084   6.364   6.244  1.5531  1.8269  2.4000
  141OSM   H12B15396   4.998   6.506   6.258  1.3200  1.8920 -0.5754
  141OSM    C1115397   5.180   6.533   6.150  0.1627 -0.1352  0.0051
  141OSM   H11A15398   5.237   6.482   6.069  1.1070 -1.8458  1.6327
  141OSM   H11B15399   5.246   6.520   6.239  0.6000 -1.0208 -0.4382
  141OSM      P15400   5.119   6.778   6.221 -0.0118 -0.1833 -0.3722
  141OSM    O1315401   5.238   6.867   6.222  0.0013  0.5172  0.3661
  141OSM    O1415402   4.984   6.846   6.193 -1.0457 -0.0400  0.3513
  141OSM    O1115403   5.119   6.705   6.365  0.1071 -0.2551  0.4301
  141OSM    O1215404   5.154   6.670   6.112  0.6851  0.7291  0.2102
  141OSM    C1S15405   5.219   6.718   6.465  0.0004  0.4337 -0.2367
  141OSM    H1S15406   5.270   6.817   6.463 -0.9483  0.9256 -0.7703
  141OSM    H1T15407   5.293   6.636   6.455 -0.5183 -0.0090 -0.5019
  141OSM     NF15408   5.255   6.726   6.711 -0.2044 -0.2569  0.7680
  141OSM    HNF15409   5.266   6.653   6.777 -3.1114 -2.1613 -0.6146
  141OSM    C2S15410   5.151   6.709   6.609  0.2320 -0.1995  0.9226
  141OSM    H2S15411   5.073   6.789   6.604  0.9593  0.4415 -0.9533
  141OSM    C3S15412   5.079   6.576   6.625 -0.0619 -0.1319 -0.2340
  141OSM    H3S15413   5.154   6.494   6.628  1.6755  1.3984  0.1644
  141OSM     O315414   4.983   6.542   6.521 -0.8840  0.9899 -0.4035
  141OSM    HO315415   4.997   6.609   6.454 -0.7665 -0.2485 -1.6653
  141OSM    C4S15416   5.010   6.575   6.760 -0.0072 -0.0223 -0.1471
  141OSM    H4S15417   5.069   6.504   6.820 -0.0245 -0.5220 -0.7145
  141OSM    C5S15418   4.894   6.635   6.801 -0.4826  0.9845 -0.0189
  141OSM    H5S15419   4.840   6.695   6.726 -2.9664  2.4581  2.7474
  141OSM    C6S15420   4.831   6.633   6.938  0.3512  0.8218 -0.0942
  141OSM    H6S15421   4.742   6.566   6.936  1.4626 -0.7213 -1.9939
  141OSM    H6T15422   4.801   6.739   6.950  0.6772  0.7612  1.4659
  141OSM    C7S15423   4.918   6.598   7.052  0.0095  0.3191  0.2733
  141OSM    H7S15424   5.001   6.671   7.054  0.3247 -0.0038 -0.5500
  141OSM    H7T15425   4.955   6.493   7.046 -2.4519 -0.5653 -1.1207
  141OSM    C8S15426   4.842   6.597   7.185  0.1695  0.3577  0.3153
  141OSM    H8S15427   4.759   6.522   7.178 -1.0059  1.5751  0.7364
  141OSM    H8T15428   4.798   6.697   7.202  1.1784  1.0852 -1.1110
  141OSM    C9S15429   4.938   6.568   7.302 -0.1865 -0.4580  0.2279
  141OSM    H9S15430   5.013   6.650   7.306  1.0444 -1.5229 -0.4687
  141OSM    H9T15431   4.995   6.473   7.302 -0.4611 -0.6437  1.4889
  141OSM   C10S15432   4.866   6.575   7.441  0.4589  0.8303  0.0174
  141OSM   H10S15433   4.775   6.510   7.442  0.4619  0.8163  2.0484
  141OSM   H10T15434   4.824   6.676   7.459  0.8047  0.8779  0.5605
  141OSM   C11S15435   4.952   6.529   7.559  0.6180 -0.0598  0.1087
  141OSM   H11S15436   5.048   6.584   7.558 -0.5039  1.9945 -0.3068
  141OSM   H11T15437   4.986   6.423   7.556  2.8789  0.4277  3.7380
  141OSM   C12S15438   4.891   6.550   7.695  0.4495  0.0715  1.3562
  141OSM   H12S15439   4.797   6.491   7.691  0.9733 -0.7764  1.0866
  141OSM   H12T15440   4.856   6.654   7.712 -1.3721 -0.4515  1.0331
  141OSM   C13S15441   4.989   6.504   7.807  0.0252 -0.5049 -0.5472
  141OSM   H13S15442   5.070   6.579   7.795 -0.8688  0.8996  1.5852
  141OSM   H13T15443   5.020   6.398   7.797 -1.0084 -0.7589 -1.2034
  141OSM   C14S15444   4.946   6.524   7.951 -0.0004  0.4960  0.4798
  141OSM   H14S15445   4.860   6.457   7.972 -0.4804 -0.6408 -4.0529
  141OSM   H14T15446   4.903   6.626   7.962 -0.5756  0.2862  0.2361
  141OSM   C15S15447   5.046   6.496   8.064  0.5265 -0.5543 -0.2761
  141OSM   H15S15448   5.122   6.577   8.063 -2.0860  2.0607 -0.1697
  141OSM   H15T15449   5.089   6.394   8.060 -1.4293 -1.5190  1.1746
  141OSM   C16S15450   4.975   6.513   8.203 -0.3084  0.1039 -0.8950
  141OSM   H16S15451   4.905   6.429   8.220  1.1680 -1.3186 -1.5872
  141OSM   H16T15452   4.918   6.609   8.203 -1.5070 -0.5814 -0.3099
  141OSM   C17S15453   5.077   6.512   8.321  0.7568 -0.1092 -0.7178
  141OSM   H17S15454   5.165   6.450   8.293  0.7355 -0.7222  0.5064
  141OSM   H17T15455   5.025   6.466   8.407 -2.8620  0.7888 -2.2569
  141OSM   C18S15456   5.139   6.644   8.352 -0.5525  0.8025 -0.0673
  141OSM   H18S15457   5.068   6.719   8.391 -0.9199  1.3823 -1.7650
  141OSM   H18T15458   5.197   6.676   8.262  0.8611  1.2805  0.9861
  141OSM   H18U15459   5.212   6.616   8.430 -0.7461  1.2654  0.2789
  141OSM    C1F15460   5.315   6.840   6.727  0.3062  0.0923 -0.1786
  141OSM     OF15461   5.277   6.936   6.666 -1.0014 -0.0025 -0.4276
  141OSM    C2F15462   5.418   6.844   6.831  0.3667 -0.0166 -0.7261
  141OSM    H2F15463   5.498   6.909   6.789  2.0899 -2.4259 -1.3365
  141OSM    H2G15464   5.465   6.747   6.855 -0.9387 -0.2658  1.0173
  141OSM    C3F15465   5.358   6.907   6.963 -0.1346  0.4454 -0.3012
  141OSM    H3F15466   5.279   6.833   6.992 -0.9013  0.5327 -2.0399
  141OSM    H3G15467   5.317   7.008   6.943  0.0724  0.5035 -0.4333
  141OSM    C4F15468   5.466   6.931   7.065 -0.3220 -0.4087 -0.2149
  141OSM    H4F15469   5.505   7.033   7.043  0.0142 -0.4203  0.3139
  141OSM    H4G15470   5.554   6.865   7.048  1.3586  1.2742  1.4887
  141OSM    C5F15471   5.423   6.922   7.209 -0.1778 -0.2983 -0.3497
  141OSM    H5F15472   5.396   6.816   7.225  2.3880 -0.9108  0.3296
  141OSM    H5G15473   5.334   6.987   7.225  1.3420  2.2441 -1.5580
  141OSM    C6F15474   5.530   6.978   7.304  0.1879 -0.3374 -0.2702
  141OSM    H6F15475   5.568   7.076   7.268  0.2670  0.7817  2.6038
  141OSM    H6G15476   5.610   6.902   7.310  0.0147 -0.3854  2.9350
  141OSM    C7F15477   5.468   7.012   7.441  0.2626 -0.4534  0.5993
  141OSM    H7F15478   5.376   7.074   7.437 -0.3274 -1.2844  0.8059
  141OSM    H7G15479   5.547   7.068   7.494 -1.3623  1.5455  1.0520
  141OSM    C8F15480   5.433   6.886   7.526 -0.5882 -0.2919 -0.2068
  141OSM    H8F15481   5.357   6.822   7.475 -0.5331  0.0050 -0.6640
  141OSM    H8G15482   5.399   6.938   7.618  0.5177  2.0878 -1.0499
  141OSM    C9F15483   5.549   6.801   7.567 -0.6920  0.0857 -0.3512
  141OSM    H9F15484   5.605   6.762   7.481 -1.1234 -0.1315 -0.5320
  141OSM   C10F15485   5.594   6.779   7.694 -0.2865  0.5353  0.0453
  141OSM   H10F15486   5.682   6.715   7.711 -0.7163  0.0352  0.4626
  141OSM   C11F15487   5.533   6.824   7.832  0.1692 -0.1977  0.5727
  141OSM   H11F15488   5.498   6.929   7.828 -0.7127 -0.4881  0.3453
  141OSM   H11G15489   5.600   6.815   7.920  0.9787 -1.2926 -0.1389
  141OSM   C12F15490   5.408   6.736   7.860 -0.3157  0.2689 -0.4414
  141OSM   H12F15491   5.339   6.721   7.774 -1.2031 -2.3162  0.6231
  141OSM   H12G15492   5.356   6.802   7.934 -0.4563 -0.6151  0.2586
  141OSM   C13F15493   5.437   6.599   7.933  0.6418 -0.6654 -0.0873
  141OSM   H13F15494   5.511   6.555   7.864  1.7041  1.8027 -0.6237
  141OSM   H13G15495   5.342   6.542   7.926  0.2080 -0.0819  0.7674
  141OSM   C14F15496   5.470   6.606   8.078 -0.7551 -0.4029 -0.1751
  141OSM   H14F15497   5.396   6.669   8.133  0.1744  0.9929 -0.4538
  141OSM   H14G15498   5.574   6.641   8.096 -1.5636  1.0669  2.1601
  141OSM   C15F15499   5.469   6.470   8.141  0.0979  0.1901 -0.2705
  141OSM   H15F15500   5.561   6.418   8.105 -0.6548 -2.3888  1.2134
  141OSM   H15G15501   5.380   6.414   8.106  0.3615  0.8806 -2.1621
  141OSM   C16F15502   5.472   6.467   8.289  0.1639  0.3515 -0.7779
  141OSM   H16F15503   5.385   6.521   8.331 -2.1568 -1.4340 -2.9268
  141OSM   H16G15504   5.572   6.508   8.314  0.3021 -0.3458 -0.1590
  141OSM   C17F15505   5.466   6.323   8.341  0.0372  0.1475 -0.0223
  141OSM   H17F15506   5.524   6.253   8.277  0.9596  1.6639 -0.8952
  141OSM   H17G15507   5.365   6.277   8.331 -0.0809  0.7572 -1.8834
  141OSM   C18F15508   5.504   6.328   8.489  0.3665 -0.5319  0.1831
  141OSM   H18F15509   5.508   6.232   8.545  0.6861 -0.2650  0.6273
  141OSM   H18G15510   5.433   6.393   8.544 -1.0828 -1.4921 -0.4730
  141OSM   H18H15511   5.602   6.380   8.485  0.0591  0.0187 -0.3926
  142OSM      N15512   6.120   1.184   6.189  0.0204  0.3223  0.5773
  142OSM    C1515513   6.085   1.115   6.061 -0.0562  0.0514  0.2447
  142OSM   H15A15514   6.107   1.010   6.075  0.1285  0.2471  1.5543
  142OSM   H15B15515   6.140   1.150   5.975 -2.2228  0.4610 -1.0582
  142OSM   H15C15516   5.980   1.119   6.034  0.2163  0.0088 -0.8654
  142OSM    C1415517   6.029   1.138   6.294  0.9722  0.3248 -0.2876
  142OSM   H14A15518   6.050   1.175   6.393 -3.4699 -1.7375  1.6710
  142OSM   H14B15519   6.018   1.030   6.297  1.4182  0.3124  1.4679
  142OSM   H14C15520   5.936   1.184   6.266  0.7896 -0.2124 -0.5913
  142OSM    C1315521   6.264   1.143   6.229  0.4534  0.1207 -0.4066
  142OSM   H13A15522   6.255   1.050   6.284 -0.7104  0.7134  0.4417
  142OSM   H13B15523   6.313   1.211   6.297  0.1159 -1.7231  1.7921
  142OSM   H13C15524   6.326   1.128   6.141 -0.6117  0.0051 -1.1578
  142OSM    C1215525   6.124   1.336   6.178  0.1735  0.3477 -0.4663
  142OSM   H12A15526   6.194   1.354   6.098  2.1674 -1.5701  0.7426
  142OSM   H12B15527   6.165   1.377   6.269 -1.0887 -1.8597  1.1902
  142OSM    C1115528   5.995   1.412   6.147  0.1769  0.2776  0.8471
  142OSM   H11A15529   5.946   1.377   6.053 -1.2355 -1.3546  2.1236
  142OSM   H11B15530   6.029   1.517   6.140  1.1033 -0.0772 -0.2922
  142OSM      P15531   5.886   1.469   6.380 -0.1382  0.2948  0.2885
  142OSM    O1315532   6.016   1.488   6.444 -0.6801  0.2350  0.1344
  142OSM    O1415533   5.805   1.585   6.355  0.4283 -0.2557 -0.4962
  142OSM    O1115534   5.794   1.376   6.461  0.2339 -0.0263 -0.0361
  142OSM    O1215535   5.892   1.392   6.244 -0.0889 -0.4072  0.6911
  142OSM    C1S15536   5.833   1.370   6.601  0.5556 -0.4551 -0.1399
  142OSM    H1S15537   5.831   1.466   6.656  0.6590 -1.6366  2.0513
  142OSM    H1T15538   5.934   1.333   6.627  0.9532  2.0475  2.3482
  142OSM     NF15539   5.730   1.325   6.819 -0.1854 -0.0065  0.0766
  142OSM    HNF15540   5.774   1.259   6.880 -0.2562 -1.6512 -1.5634
  142OSM    C2S15541   5.735   1.283   6.683 -0.3521  0.1040 -0.1482
  142OSM    H2S15542   5.631   1.299   6.646 -0.3395  0.7710  0.0986
  142OSM    C3S15543   5.782   1.135   6.663  0.0467  0.0244  0.2420
  142OSM    H3S15544   5.883   1.129   6.709 -0.4426 -2.4355  1.1382
  142OSM     O315545   5.799   1.098   6.521  0.0017  0.0479  0.0496
  142OSM    HO315546   5.817   1.180   6.474  0.1164  1.9647  3.1356
  142OSM    C4S15547   5.703   1.032   6.731  0.7504 -0.1767  0.3305
  142OSM    H4S15548   5.722   1.033   6.839  2.0322  1.0565  0.1114
  142OSM    C5S15549   5.600   0.947   6.684 -0.1224  0.0855 -0.0171
  142OSM    H5S15550   5.578   0.954   6.576 -3.2606  1.6637  0.6167
  142OSM    C6S15551   5.522   0.854   6.776  0.0336 -0.0997 -0.2310
  142OSM    H6S15552   5.519   0.755   6.727  0.8859 -0.6568  0.7939
  142OSM    H6T15553   5.424   0.901   6.796 -0.1492 -0.6560  0.2103
  142OSM    C7S15554   5.569   0.826   6.921  0.1931  0.2052  0.3713
  142OSM    H7S15555   5.502   0.752   6.969  0.1246  0.2368  0.3232
  142OSM    H7T15556   5.576   0.918   6.984  3.7767 -0.3835  1.0616
  142OSM    C8S15557   5.704   0.749   6.921 -0.2281 -0.3297  0.2358
  142OSM    H8S15558   5.772   0.806   6.855 -1.1354  0.5677  0.0536
  142OSM    H8T15559   5.697   0.653   6.865 -1.0741 -0.3344  0.3250
  142OSM    C9S15560   5.766   0.749   7.066  0.0359 -0.1061  0.7925
  142OSM    H9S15561   5.746   0.844   7.120 -0.5519 -1.8580  3.8940
  142OSM    H9T15562   5.874   0.725   7.059 -0.4530 -2.0521 -1.0573
  142OSM   C10S15563   5.689   0.644   7.160 -0.7730  1.0034 -0.0933
  142OSM   H10S15564   5.703   0.539   7.129  0.8348  1.0824  0.2910
  142OSM   H10T15565   5.581   0.669   7.144 -1.3571  0.2962  2.3382
  142OSM   C11S15566   5.730   0.682   7.307 -0.4421 -0.9167 -0.1951
  142OSM   H11S15567   5.716   0.792   7.315 -2.1965 -1.0877 -0.5446
  142OSM   H11T15568   5.836   0.650   7.312 -0.4758 -1.2710 -1.4032
  142OSM   C12S15569   5.647   0.621   7.421  0.3521  0.2744 -0.1371
  142OSM   H12S15570   5.658   0.510   7.420  0.4955  0.2889 -1.0545
  142OSM   H12T15571   5.540   0.641   7.398  0.6606  3.0534  0.4435
  142OSM   C13S15572   5.676   0.659   7.565 -0.4853 -0.6991  0.3980
  142OSM   H13S15573   5.664   0.768   7.579 -0.1343 -0.5249 -0.5681
  142OSM   H13T15574   5.782   0.643   7.593 -0.3248 -0.2951  0.0200
  142OSM   C14S15575   5.577   0.599   7.664 -0.7332  0.1508  0.2402
  142OSM   H14S15576   5.589   0.488   7.660 -0.4716  0.1981 -0.3165
  142OSM   H14T15577   5.479   0.623   7.618 -0.1301  1.2072 -0.5175
  142OSM   C15S15578   5.606   0.644   7.810 -0.2332  0.5432  0.1504
  142OSM   H15S15579   5.523   0.623   7.881  1.2863  2.4310  2.6551
  142OSM   H15T15580   5.610   0.755   7.815 -0.5243  0.5494  0.2566
  142OSM   C16S15581   5.728   0.591   7.876 -0.6351 -0.1319 -0.3181
  142OSM   H16S15582   5.797   0.542   7.805 -0.8071 -0.4937 -0.2374
  142OSM   H16T15583   5.699   0.509   7.944  1.6562  0.0734  1.0128
  142OSM   C17S15584   5.793   0.685   7.972 -0.6617  0.0577 -0.2670
  142OSM   H17S15585   5.726   0.739   8.043 -0.8254 -0.7222  0.1926
  142OSM   H17T15586   5.852   0.757   7.912 -1.1372  0.7741  0.1057
  142OSM   C18S15587   5.899   0.610   8.050 -0.8605 -0.1073 -0.1154
  142OSM   H18S15588   5.992   0.603   7.989 -0.8074  1.0252 -0.1881
  142OSM   H18T15589   5.864   0.509   8.078  0.1541 -0.4113  0.1052
  142OSM   H18U15590   5.935   0.668   8.138  2.2500 -1.7625 -0.1505
  142OSM    C1F15591   5.655   1.434   6.859 -0.1723  0.1003  0.7299
  142OSM     OF15592   5.569   1.487   6.786 -0.2642 -0.0233 -0.2815
  142OSM    C2F15593   5.660   1.464   7.000  0.3070 -0.3329  0.8824
  142OSM    H2F15594   5.767   1.471   7.032  1.0109  0.5532 -1.3964
  142OSM    H2G15595   5.617   1.381   7.060  0.4744 -0.1709  1.2304
  142OSM    C3F15596   5.587   1.597   7.037 -0.4098 -0.0586  0.5594
  142OSM    H3F15597   5.482   1.583   7.003  0.3976 -2.0195 -1.3934
  142OSM    H3G15598   5.619   1.682   6.972 -3.9195 -0.3550 -1.7997
  142OSM    C4F15599   5.597   1.642   7.188 -0.1748  0.3823  0.6292
  142OSM    H4F15600   5.697   1.673   7.226  0.4997  1.4280 -1.8223
  142OSM    H4G15601   5.576   1.546   7.241 -0.1210  0.0932  0.1355
  142OSM    C5F15602   5.486   1.746   7.222 -0.2416  0.7904  0.2405
  142OSM    H5F15603   5.400   1.707   7.165 -0.0592 -1.5000  1.4380
  142OSM    H5G15604   5.506   1.842   7.170  1.1375 -1.5381 -3.9625
  142OSM    C6F15605   5.465   1.755   7.369 -0.4707 -0.5644  0.8084
  142OSM    H6F15606   5.558   1.784   7.423 -0.3448  1.5708 -0.4434
  142OSM    H6G15607   5.435   1.658   7.413  1.0651 -1.4130  0.0739
  142OSM    C7F15608   5.354   1.861   7.387  0.1950 -0.2245  0.4677
  142OSM    H7F15609   5.257   1.807   7.380 -1.5067  2.2437  2.9684
  142OSM    H7G15610   5.366   1.947   7.318  0.1546  0.7339  1.6183
  142OSM    C8F15611   5.371   1.932   7.524  0.6644  0.6342 -0.2974
  142OSM    H8F15612   5.301   2.018   7.528 -2.1077 -1.5294  0.0252
  142OSM    H8G15613   5.472   1.980   7.531  0.5195  0.9321 -0.2189
  142OSM    C9F15614   5.339   1.850   7.643  0.5969  0.6301  0.6633
  142OSM    H9F15615   5.234   1.818   7.651  1.4513 -2.5152  0.3645
  142OSM   C10F15616   5.414   1.805   7.742  0.6596  0.0824  0.8706
  142OSM   H10F15617   5.364   1.748   7.821 -0.2152 -1.1273 -0.5098
  142OSM   C11F15618   5.558   1.829   7.758 -0.8372  0.1131 -0.3968
  142OSM   H11F15619   5.569   1.935   7.789 -0.5419  0.0023 -0.1238
  142OSM   H11G15620   5.613   1.823   7.661  0.5889  0.7285  0.3499
  142OSM   C12F15621   5.631   1.736   7.855  0.3652  0.1925 -0.0554
  142OSM   H12F15622   5.741   1.739   7.840  0.6599 -0.2854  1.8093
  142OSM   H12G15623   5.605   1.631   7.830  2.5196 -1.5750  4.0480
  142OSM   C13F15624   5.612   1.757   8.004 -0.6354  0.3135 -0.5879
  142OSM   H13F15625   5.505   1.746   8.030 -0.3459 -2.4406 -0.2432
  142OSM   H13G15626   5.632   1.862   8.033 -2.1008  0.2983  0.5359
  142OSM   C14F15627   5.708   1.662   8.073  0.2663  0.2098  0.1675
  142OSM   H14F15628   5.815   1.680   8.051  0.2702  2.4203  1.7366
  142OSM   H14G15629   5.697   1.556   8.040  1.2181 -0.5140  2.0311
  142OSM   C15F15630   5.694   1.687   8.227 -0.1008  0.5352 -0.2390
  142OSM   H15F15631   5.585   1.688   8.248  0.0582 -0.9219  0.8238
  142OSM   H15G15632   5.740   1.785   8.248  0.2338 -0.0266  1.8644
  142OSM   C16F15633   5.760   1.588   8.313  0.1626  0.2456  0.1937
  142OSM   H16F15634   5.870   1.596   8.323  0.2364 -1.9625  2.1537
  142OSM   H16G15635   5.750   1.488   8.264  2.0721  0.2539 -0.2751
  142OSM   C17F15636   5.709   1.598   8.456  0.3773  0.4789  0.0437
  142OSM   H17F15637   5.601   1.578   8.441  0.5263 -1.3991  1.1544
  142OSM   H17G15638   5.735   1.698   8.498  0.3831  1.0272 -1.2183
  142OSM   C18F15639   5.766   1.486   8.551 -0.4753 -0.1988  0.4753
  142OSM   H18F15640   5.735   1.391   8.503  2.0212 -0.8658  0.0261
  142OSM   H18G15641   5.722   1.500   8.652 -0.0617  1.5437  0.4560
  142OSM   H18H15642   5.877   1.498   8.556 -0.5188  3.2725 -2.5064
  143OSM      N15643   0.990   3.891   6.045 -0.2644  0.0657 -0.2147
  143OSM    C1515644   1.024   3.900   5.899 -0.2348  0.2791  0.9054
  143OSM   H15A15645   1.130   3.890   5.883 -0.1591  0.8423  1.0517
  143OSM   H15B15646   0.990   3.993   5.855  2.8667  0.3775 -1.6306
  143OSM   H15C15647   0.988   3.815   5.842  1.2884  0.3612 -0.2274
  143OSM    C1415648   1.069   3.788   6.109 -0.1928  0.0532 -0.3110
  143OSM   H14A15649   1.046   3.693   6.061 -3.0041  0.6983 -0.3979
  143OSM   H14B15650   1.040   3.769   6.211  2.5089  1.9023  0.9281
  143OSM   H14C15651   1.176   3.806   6.103 -0.2195  0.4210  0.2443
  143OSM    C1315652   1.033   4.005   6.119  0.0556  0.1695 -0.4189
  143OSM   H13A15653   0.964   4.087   6.107 -1.3720 -0.8530  0.4577
  143OSM   H13B15654   1.133   4.033   6.089  0.1479  0.8553  0.4807
  143OSM   H13C15655   1.024   3.989   6.225 -1.2923  1.9457 -0.2188
  143OSM    C1215656   0.843   3.871   6.066 -0.0091  0.1988  0.3292
  143OSM   H12A15657   0.804   3.792   6.003  1.5300  1.5956 -2.6306
  143OSM   H12B15658   0.790   3.949   6.012  0.0549 -0.9130 -1.4328
  143OSM    C1115659   0.790   3.851   6.213  0.3570 -1.1361  0.5951
  143OSM   H11A15660   0.679   3.851   6.212  0.3282 -1.1394  1.9059
  143OSM   H11B15661   0.821   3.938   6.273 -0.3459  0.1375 -0.8266
  143OSM      P15662   0.778   3.579   6.247  0.2534  0.2709  0.1869
  143OSM    O1315663   0.678   3.580   6.142  0.2823  0.2534  0.2474
  143OSM    O1415664   0.896   3.491   6.229  0.0653  0.6865 -0.5254
  143OSM    O1115665   0.706   3.546   6.384 -0.5320 -0.0827  0.4610
  143OSM    O1215666   0.840   3.723   6.267 -0.0561 -0.4159  0.1924
  143OSM    C1S15667   0.743   3.629   6.504  0.7841 -0.0696  0.4296
  143OSM    H1S15668   0.687   3.725   6.501 -0.2674 -0.6560  0.7497
  143OSM    H1T15669   0.849   3.658   6.518  0.8912 -0.5386  0.6068
  143OSM     NF15670   0.748   3.638   6.758  0.3556 -0.1206  0.3044
  143OSM    HNF15671   0.820   3.603   6.818  0.0813 -1.4248 -0.0847
  143OSM    C2S15672   0.697   3.564   6.639  0.6881 -0.2556 -0.8437
  143OSM    H2S15673   0.586   3.575   6.636  0.6357 -0.1880  0.7668
  143OSM    C3S15674   0.725   3.412   6.642  0.1892 -0.0502 -0.3445
  143OSM    H3S15675   0.835   3.396   6.642  0.0849 -0.7904 -0.6315
  143OSM     O315676   0.687   3.340   6.526 -0.0818 -0.6681  0.3450
  143OSM    HO315677   0.682   3.399   6.451  2.1383 -1.5728 -0.6109
  143OSM    C4S15678   0.668   3.356   6.771  0.3388  0.7018 -0.2740
  143OSM    H4S15679   0.747   3.314   6.836  0.1741 -0.7882 -0.9826
  143OSM    C5S15680   0.533   3.343   6.815  0.0922  0.1824 -0.0059
  143OSM    H5S15681   0.457   3.355   6.736  0.5876 -0.5315 -0.6047
  143OSM    C6S15682   0.490   3.290   6.950 -0.0491 -0.3459  0.1401
  143OSM    H6S15683   0.477   3.180   6.943  0.7455 -0.3581 -1.7409
  143OSM    H6T15684   0.393   3.341   6.969  0.0123 -0.2461  0.1897
  143OSM    C7S15685   0.580   3.320   7.072  0.2324  0.0267 -0.5200
  143OSM    H7S15686   0.614   3.426   7.079  3.1688 -0.8550  0.0616
  143OSM    H7T15687   0.669   3.254   7.074 -0.1269 -0.4955  2.0320
  143OSM    C8S15688   0.497   3.297   7.207 -0.5260 -0.1539 -0.0819
  143OSM    H8S15689   0.466   3.191   7.217 -1.9270  0.2698  0.2601
  143OSM    H8T15690   0.397   3.344   7.197 -0.1628  0.2483 -2.6480
  143OSM    C9S15691   0.568   3.338   7.340  0.5486  0.3949  0.3936
  143OSM    H9S15692   0.579   3.446   7.315  0.3396  0.1635 -0.7396
  143OSM    H9T15693   0.664   3.283   7.345  0.1718 -0.5101 -1.4963
  143OSM   C10S15694   0.494   3.309   7.471  0.0626 -0.4360 -0.2152
  143OSM   H10S15695   0.491   3.198   7.479 -0.5981 -0.4502 -0.6459
  143OSM   H10T15696   0.391   3.349   7.472  0.6928  1.5167 -2.3254
  143OSM   C11S15697   0.573   3.375   7.588  0.0781 -0.2009  0.5487
  143OSM   H11S15698   0.584   3.485   7.577  0.5689 -0.2880  0.1839
  143OSM   H11T15699   0.673   3.327   7.577  0.2495  0.6958 -3.3511
  143OSM   C12S15700   0.507   3.329   7.717 -0.2532  0.1415  0.0788
  143OSM   H12S15701   0.490   3.219   7.720 -1.6359  0.3598  1.0597
  143OSM   H12T15702   0.415   3.391   7.714  0.1267  0.6692 -2.4908
  143OSM   C13S15703   0.588   3.364   7.840  0.1854 -0.7394  0.1574
  143OSM   H13S15704   0.610   3.473   7.834  1.4629 -1.0032 -0.3359
  143OSM   H13T15705   0.693   3.327   7.828  0.7031  0.7193  0.0138
  143OSM   C14S15706   0.513   3.314   7.963  0.0970 -0.0928 -0.4218
  143OSM   H14S15707   0.526   3.204   7.974  0.8174 -0.2023 -1.9797
  143OSM   H14T15708   0.405   3.336   7.962  0.1391  0.1259 -0.2235
  143OSM   C15S15709   0.555   3.384   8.093 -0.1884 -1.0309 -0.3592
  143OSM   H15S15710   0.535   3.493   8.101  0.1604 -1.0000  0.1306
  143OSM   H15T15711   0.664   3.364   8.096 -0.2245 -1.3343 -1.0416
  143OSM   C16S15712   0.494   3.324   8.221 -0.1897  0.6170 -0.4464
  143OSM   H16S15713   0.514   3.216   8.238  1.5650  1.1776  1.5196
  143OSM   H16T15714   0.384   3.334   8.210 -0.2258 -0.5803 -1.3364
  143OSM   C17S15715   0.530   3.395   8.347 -0.5605 -0.8489 -0.1380
  143OSM   H17S15716   0.500   3.502   8.351 -0.2373 -0.7651  0.0114
  143OSM   H17T15717   0.640   3.385   8.344 -0.5890 -1.1325 -0.2674
  143OSM   C18S15718   0.464   3.327   8.472  0.1597  0.1552  0.4868
  143OSM   H18S15719   0.356   3.352   8.477  0.4620  1.5846  0.2159
  143OSM   H18T15720   0.510   3.357   8.568  2.3503 -0.9934 -0.1290
  143OSM   H18U15721   0.491   3.221   8.452  2.2961  0.9056 -0.9486
  143OSM    C1F15722   0.698   3.758   6.781 -1.0540 -0.2997 -0.2211
  143OSM     OF15723   0.625   3.818   6.703  0.6770 -0.1590 -0.2153
  143OSM    C2F15724   0.743   3.822   6.902 -0.0188 -0.0451 -0.1333
  143OSM    H2F15725   0.783   3.921   6.868 -0.8127  0.3200 -0.0337
  143OSM    H2G15726   0.818   3.760   6.953 -1.5032 -1.4222  0.4491
  143OSM    C3F15727   0.636   3.858   7.005  0.3974 -0.3119  0.1267
  143OSM    H3F15728   0.557   3.782   7.024 -0.4878 -0.0325 -2.1367
  143OSM    H3G15729   0.583   3.935   6.945  2.7088 -0.6521 -2.5378
  143OSM    C4F15730   0.685   3.903   7.149  1.0161 -0.1871  1.2423
  143OSM    H4F15731   0.685   4.014   7.150  0.0800 -0.1228 -0.5139
  143OSM    H4G15732   0.790   3.871   7.164  1.0241 -0.3065  0.9454
  143OSM    C5F15733   0.600   3.848   7.264 -0.4141 -0.1665 -0.0531
  143OSM    H5F15734   0.597   3.740   7.291  0.2873  0.4940  3.1425
  143OSM    H5G15735   0.492   3.868   7.247 -1.0630 -1.7227  1.8420
  143OSM    C6F15736   0.645   3.927   7.396 -0.1826  0.1616  0.0200
  143OSM    H6F15737   0.656   4.034   7.366  0.4850  0.1172  0.0991
  143OSM    H6G15738   0.746   3.891   7.424 -0.4258 -2.6712 -2.3496
  143OSM    C7F15739   0.550   3.930   7.519 -0.4311  0.0899 -0.4904
  143OSM    H7F15740   0.560   3.837   7.579 -1.8495 -0.3181 -0.8449
  143OSM    H7G15741   0.447   3.945   7.478 -0.3092  2.2378 -0.1369
  143OSM    C8F15742   0.573   4.051   7.602 -0.9607 -0.0748  0.1250
  143OSM    H8F15743   0.569   4.143   7.540  0.1266 -0.5875 -0.7182
  143OSM    H8G15744   0.676   4.054   7.642 -0.4788 -2.5428 -0.7554
  143OSM    C9F15745   0.470   4.054   7.714  0.1424 -0.0339 -0.2262
  143OSM    H9F15746   0.397   4.136   7.707  1.5356  1.1626 -1.5058
  143OSM   C10F15747   0.482   3.985   7.831 -0.7602 -0.4190 -0.5300
  143OSM   H10F15748   0.400   3.988   7.904  0.9427 -1.3137  1.5146
  143OSM   C11F15749   0.587   3.881   7.874  0.1218 -0.3526  0.3707
  143OSM   H11F15750   0.663   3.933   7.936 -0.2109  0.5486  0.0431
  143OSM   H11G15751   0.639   3.837   7.786 -1.8696 -1.9527 -0.1039
  143OSM   C12F15752   0.520   3.760   7.948  0.0828  0.3009  0.1776
  143OSM   H12F15753   0.567   3.661   7.933 -1.9039 -0.8844  1.3277
  143OSM   H12G15754   0.419   3.749   7.902 -1.1868  1.1278  2.5301
  143OSM   C13F15755   0.487   3.781   8.098 -0.2010 -0.9099 -0.8511
  143OSM   H13F15756   0.424   3.699   8.137 -2.5008  1.0134 -0.3253
  143OSM   H13G15757   0.424   3.870   8.115 -0.2932 -0.7413 -1.9992
  143OSM   C14F15758   0.625   3.786   8.176  0.3904 -0.6701 -0.1582
  143OSM   H14F15759   0.695   3.855   8.125 -0.2479 -0.5249 -0.8604
  143OSM   H14G15760   0.673   3.686   8.177  0.2571 -0.7434  1.1785
  143OSM   C15F15761   0.608   3.830   8.324 -0.4868  0.1376 -0.1443
  143OSM   H15F15762   0.534   3.766   8.378 -0.6149  0.7469  0.4170
  143OSM   H15G15763   0.566   3.932   8.322  1.7039  1.0992  0.4545
  143OSM   C16F15764   0.747   3.839   8.387  0.3632  0.3070 -0.2472
  143OSM   H16F15765   0.809   3.913   8.333  0.0719  0.5055 -0.3060
  143OSM   H16G15766   0.797   3.740   8.376  1.4228  0.6543  1.0687
  143OSM   C17F15767   0.746   3.844   8.536 -0.5860  0.0434  0.0357
  143OSM   H17F15768   0.682   3.770   8.589 -1.8639  0.9249 -0.2446
  143OSM   H17G15769   0.711   3.947   8.560  1.9065  1.7568 -2.9543
  143OSM   C18F15770   0.891   3.821   8.585 -0.6654  0.1725 -0.4195
  143OSM   H18F15771   0.916   3.713   8.590  0.5516  0.5077  2.3006
  143OSM   H18G15772   0.912   3.871   8.682  0.3679  3.5048 -2.1760
  143OSM   H18H15773   0.953   3.885   8.518  0.0751  0.4653  0.5208
  144OSM      N15774   6.088   3.672   5.971  0.3958 -0.0760 -0.2578
  144OSM    C1515775   6.231   3.640   6.007  1.2896 -0.0777 -0.0734
  144OSM   H15A15776   6.226   3.626   6.114 -1.0229  0.6587 -0.0342
  144OSM   H15B15777   6.294   3.728   6.003  1.8920 -0.5316 -0.8988
  144OSM   H15C15778   6.282   3.560   5.955  2.5996  0.0291  0.9934
  144OSM    C1415779   6.049   3.798   6.046  0.8458  0.5418 -0.1387
  144OSM   H14A15780   6.023   3.770   6.147  2.4432  2.0980  0.7725
  144OSM   H14B15781   5.977   3.857   5.991  1.3492  1.1937 -0.1170
  144OSM   H14C15782   6.132   3.867   6.057 -0.0900  1.5720  0.6073
  144OSM    C1315783   6.088   3.702   5.821  0.0160  0.1724 -0.6373
  144OSM   H13A15784   5.996   3.747   5.787  1.4776  1.4001 -3.2263
  144OSM   H13B15785   6.103   3.611   5.766  1.2274  0.2316 -0.4230
  144OSM   H13C15786   6.174   3.763   5.798  1.3699 -0.4252  2.3355
  144OSM    C1215787   5.991   3.558   6.002 -0.9257  0.2153  0.1156
  144OSM   H12A15788   5.994   3.483   5.924 -1.0946  2.7149 -2.4417
  144OSM   H12B15789   5.893   3.601   5.992 -1.3437 -0.9151 -0.8606
  144OSM    C1115790   5.992   3.487   6.142 -0.0527 -0.5729 -0.1811
  144OSM   H11A15791   6.086   3.428   6.148  1.1921  1.2581 -0.5650
  144OSM   H11B15792   5.921   3.402   6.150 -0.0525 -0.5546  0.0349
  144OSM      P15793   5.867   3.619   6.342  0.2606  0.4347  0.3520
  144OSM    O1315794   5.895   3.754   6.394  0.9489  0.0169  0.2119
  144OSM    O1415795   5.749   3.589   6.262  0.3839  0.5543  0.1959
  144OSM    O1115796   5.882   3.516   6.471 -0.7008 -0.1576 -0.1675
  144OSM    O1215797   5.992   3.565   6.265  0.0626  0.1997  0.5631
  144OSM    C1S15798   5.783   3.520   6.569  0.1000 -0.1439 -0.2105
  144OSM    H1S15799   5.696   3.468   6.525  0.7915 -0.7105 -0.9203
  144OSM    H1T15800   5.743   3.622   6.589 -0.5142 -0.5727  0.8447
  144OSM     NF15801   5.701   3.453   6.786 -0.7310 -0.3021 -0.3180
  144OSM    HNF15802   5.661   3.530   6.836  3.6207  0.1449  3.0450
  144OSM    C2S15803   5.828   3.478   6.712 -0.0215  0.7347 -0.1705
  144OSM    H2S15804   5.892   3.387   6.703 -0.0958  0.5037  1.3972
  144OSM    C3S15805   5.924   3.584   6.773  0.2913 -0.3630  0.3169
  144OSM    H3S15806   5.873   3.682   6.772 -0.2505 -0.6361 -1.2792
  144OSM     O315807   6.035   3.614   6.682  0.5641  0.7260 -0.2875
  144OSM    HO315808   5.999   3.568   6.605 -0.9753 -0.5662  1.1251
  144OSM    C4S15809   5.963   3.561   6.923  0.3484 -0.3547  0.2575
  144OSM    H4S15810   5.899   3.598   7.004  0.4567  1.6133 -0.4959
  144OSM    C5S15811   6.077   3.494   6.949  0.1168  0.4158 -0.6101
  144OSM    H5S15812   6.130   3.455   6.861 -0.2566  0.8290 -1.0222
  144OSM    C6S15813   6.126   3.468   7.088  0.0939 -0.6364  0.2303
  144OSM    H6S15814   6.226   3.514   7.103 -0.6911  1.2089  0.0193
  144OSM    H6T15815   6.139   3.358   7.093  1.2447 -0.5692 -0.6990
  144OSM    C7S15816   6.036   3.505   7.209  0.0778 -0.1063 -0.2283
  144OSM    H7S15817   5.928   3.490   7.188 -0.2746  1.8403 -0.0132
  144OSM    H7T15818   6.037   3.616   7.204 -1.0337  0.0269  1.6178
  144OSM    C8S15819   6.073   3.463   7.350  0.5011  0.4596 -0.2574
  144OSM    H8S15820   6.179   3.481   7.375 -0.2114  2.8337  1.3882
  144OSM    H8T15821   6.065   3.352   7.353 -0.3817  0.4945  2.9429
  144OSM    C9S15822   5.988   3.524   7.471 -0.1798 -0.2400  0.4205
  144OSM    H9S15823   5.888   3.479   7.454  0.5619 -2.1109  0.8513
  144OSM    H9T15824   5.976   3.635   7.463  1.4984 -0.1570 -1.3504
  144OSM   C10S15825   6.041   3.488   7.614 -0.4960  0.3786  0.1460
  144OSM   H10S15826   6.147   3.517   7.626 -0.4082  0.4330 -0.7274
  144OSM   H10T15827   6.026   3.378   7.614  2.1466 -0.0437 -0.9645
  144OSM   C11S15828   5.950   3.540   7.731  0.5701 -0.0195  0.2265
  144OSM   H11S15829   5.846   3.510   7.708  1.1878 -1.1949 -1.2641
  144OSM   H11T15830   5.957   3.651   7.732 -0.8074  0.0988  2.0356
  144OSM   C12S15831   5.998   3.485   7.872  0.0455 -0.2170  0.3820
  144OSM   H12S15832   6.101   3.524   7.886  0.2683 -0.5257 -0.3572
  144OSM   H12T15833   6.019   3.376   7.878  3.9067  0.3743  0.4478
  144OSM   C13S15834   5.909   3.533   7.989  0.5394  1.2456  0.2493
  144OSM   H13S15835   5.813   3.476   7.981  0.8297  0.8800 -1.0086
  144OSM   H13T15836   5.870   3.635   7.973 -0.5451  0.9251  0.7536
  144OSM   C14S15837   5.971   3.537   8.125  0.2653 -0.2515 -0.4340
  144OSM   H14S15838   6.046   3.616   8.146  0.7434 -1.4631  3.0270
  144OSM   H14T15839   6.017   3.438   8.147  1.2046  0.0479 -0.9893
  144OSM   C15S15840   5.860   3.542   8.233  0.2784  0.4475 -0.7389
  144OSM   H15S15841   5.801   3.451   8.211 -0.7987  1.1236 -0.7598
  144OSM   H15T15842   5.795   3.632   8.219 -3.3467 -1.7814  0.5088
  144OSM   C16S15843   5.901   3.536   8.381 -0.7877  0.2498  0.1092
  144OSM   H16S15844   5.952   3.627   8.417  1.9503 -1.0545 -0.2207
  144OSM   H16T15845   5.977   3.456   8.394 -0.4493  0.4118 -0.8034
  144OSM   C17S15846   5.782   3.512   8.473 -0.4569  0.7326 -0.2849
  144OSM   H17S15847   5.807   3.505   8.581 -1.1540  0.5136 -0.1345
  144OSM   H17T15848   5.744   3.411   8.451 -0.1439  0.5337  0.0798
  144OSM   C18S15849   5.673   3.618   8.455 -0.7241 -0.1862 -0.4976
  144OSM   H18S15850   5.607   3.599   8.368 -1.3556  0.1704 -0.1112
  144OSM   H18T15851   5.724   3.715   8.435 -1.9316  0.6893  0.5106
  144OSM   H18U15852   5.605   3.635   8.542 -1.0744  0.7362 -0.9322
  144OSM    C1F15853   5.625   3.344   6.778  0.0676  0.3990 -0.0914
  144OSM     OF15854   5.655   3.253   6.702  0.2079  0.5372 -0.5744
  144OSM    C2F15855   5.502   3.341   6.866  0.0524  0.2839  0.2899
  144OSM    H2F15856   5.423   3.407   6.826  1.4726  2.2723  0.5897
  144OSM    H2G15857   5.540   3.379   6.964  0.0581  2.0506 -0.3624
  144OSM    C3F15858   5.448   3.194   6.893 -0.6096  0.0557 -0.1104
  144OSM    H3F15859   5.534   3.127   6.914  0.1160  0.6352 -1.1309
  144OSM    H3G15860   5.412   3.153   6.796  2.5761  0.7740 -1.7539
  144OSM    C4F15861   5.341   3.201   6.999 -0.3712 -0.1371  0.2747
  144OSM    H4F15862   5.253   3.256   6.958 -1.6225 -0.8663  1.8626
  144OSM    H4G15863   5.372   3.264   7.085 -1.6554 -0.0932  0.7340
  144OSM    C5F15864   5.288   3.068   7.057  0.0980 -0.0541  0.3951
  144OSM    H5F15865   5.359   3.025   7.132  0.1055 -0.3999  0.1916
  144OSM    H5G15866   5.283   2.999   6.971  0.1444  0.5057 -0.0655
  144OSM    C6F15867   5.145   3.076   7.129 -0.4774  0.1904  0.2450
  144OSM    H6F15868   5.113   2.973   7.154  1.3166 -0.1067  1.5538
  144OSM    H6G15869   5.078   3.117   7.051 -0.0665  1.6312  0.6239
  144OSM    C7F15870   5.139   3.174   7.244 -0.0275  0.1547  0.6109
  144OSM    H7F15871   5.031   3.190   7.266  0.3304  2.4196  0.9064
  144OSM    H7G15872   5.170   3.276   7.211  0.0201  0.0266  0.2493
  144OSM    C8F15873   5.212   3.133   7.366  0.2245 -0.8629  0.0674
  144OSM    H8F15874   5.219   3.214   7.442 -0.4735 -1.4796  0.8058
  144OSM    H8G15875   5.317   3.115   7.333  0.8410  2.9490 -0.5323
  144OSM    C9F15876   5.151   3.002   7.420 -0.3876  0.3569 -0.5259
  144OSM    H9F15877   5.192   2.914   7.368  0.5756  0.4631  0.0206
  144OSM   C10F15878   5.078   2.991   7.532  0.9514  0.1637 -0.3101
  144OSM   H10F15879   5.037   2.889   7.546 -0.3453  0.4127 -1.9686
  144OSM   C11F15880   5.023   3.099   7.622 -0.3667  0.1571 -0.2133
  144OSM   H11F15881   4.916   3.075   7.642 -0.1315 -0.1279  0.7398
  144OSM   H11G15882   5.024   3.199   7.573 -1.3257 -0.2612 -1.1529
  144OSM   C12F15883   5.100   3.110   7.751  0.0668 -0.1826  0.2161
  144OSM   H12F15884   5.071   3.192   7.820 -1.6589 -2.6391  2.5993
  144OSM   H12G15885   5.205   3.126   7.719 -1.0138  0.0847 -3.7695
  144OSM   C13F15886   5.100   2.989   7.840 -0.6838  0.1366  0.4524
  144OSM   H13F15887   5.156   2.906   7.791 -1.6798  0.6884 -1.7701
  144OSM   H13G15888   4.996   2.950   7.850 -0.8141  0.7115  1.3763
  144OSM   C14F15889   5.151   3.007   7.981 -0.0169 -0.1685 -0.2498
  144OSM   H14F15890   5.096   3.090   8.030 -3.3938 -3.2012  1.5884
  144OSM   H14G15891   5.261   3.014   7.999  0.7345 -1.4642 -3.5991
  144OSM   C15F15892   5.107   2.882   8.063  0.5887 -0.5118  0.0451
  144OSM   H15F15893   5.167   2.795   8.031  1.3210  0.1727 -0.4754
  144OSM   H15G15894   5.000   2.860   8.041  0.6421  0.5746 -1.5071
  144OSM   C16F15895   5.137   2.907   8.208  0.6076 -0.4461 -0.3928
  144OSM   H16F15896   5.082   2.996   8.246  0.8631 -0.8324  0.9484
  144OSM   H16G15897   5.247   2.924   8.216  0.8573 -0.9171 -2.3881
  144OSM   C17F15898   5.085   2.781   8.286  0.0082 -0.6454 -0.2255
  144OSM   H17F15899   5.134   2.690   8.245  2.0374 -0.7647  2.2202
  144OSM   H17G15900   4.976   2.765   8.282 -0.2132  0.7720 -0.3934
  144OSM   C18F15901   5.119   2.779   8.434  0.2576 -0.6438 -0.8537
  144OSM   H18F15902   5.082   2.684   8.477 -0.6949  0.3725  0.6822
  144OSM   H18G15903   5.064   2.863   8.482  1.4657 -0.8399  0.9751
  144OSM   H18H15904   5.229   2.793   8.449  0.0291 -0.5181  0.9471
  145SAPE     N15905   4.482   3.976  10.729 -0.0840 -0.1055  0.9208
  145SAPE   HN115906   4.413   4.037  10.680 -2.4647 -1.4668  2.4043
  145SAPE   HN215907   4.565   3.954  10.670 -0.9970 -0.5799 -0.2431
  145SAPE   HN315908   4.438   3.882  10.738 -0.9438  0.3560  1.6445
  145SAPE   C1215909   4.524   4.059  10.841  0.2552 -0.4805  0.0090
  145SAPE  H12A15910   4.553   3.994  10.926  0.8694  0.7734  0.7860
  145SAPE  H12B15911   4.431   4.116  10.861  1.1539  0.6669  1.0193
  145SAPE   C1115912   4.627   4.173  10.795  0.0527  0.5241 -0.6957
  145SAPE  H11A15913   4.670   4.224  10.884 -2.1724 -3.4972  3.0888
  145SAPE  H11B15914   4.567   4.247  10.737 -2.5729 -0.7081  0.2694
  145SAPE     P15915   4.849   4.196  10.651  0.1953 -0.1956 -0.0062
  145SAPE   O1315916   4.870   4.323  10.725 -0.1872  0.2278  0.4750
  145SAPE   O1415917   4.961   4.106  10.661 -0.2484  0.9543 -0.2623
  145SAPE   O1215918   4.728   4.113  10.715  0.1456 -0.0167 -0.4587
  145SAPE   O1115919   4.811   4.222  10.501 -0.1803 -0.2080  0.1592
  145SAPE    C115920   4.719   4.335  10.467 -0.1973  0.5269 -1.3962
  145SAPE    HA15921   4.622   4.318  10.519  1.3529 -1.8669  1.0023
  145SAPE    HB15922   4.756   4.430  10.513  0.9909  0.4595 -2.1837
  145SAPE    C215923   4.718   4.366  10.320 -0.0463  0.0319  0.3897
  145SAPE    HS15924   4.812   4.412  10.284 -1.0323  0.3767 -1.9649
  145SAPE   O2115925   4.606   4.456  10.287  0.3777 -0.0945 -0.5208
  145SAPE   C2115926   4.625   4.576  10.227 -0.3212 -0.8776 -0.6408
  145SAPE   O2215927   4.732   4.636  10.218  0.6216  0.3663 -0.2498
  145SAPE   C2215928   4.491   4.628  10.178  0.3511 -0.0213  0.4055
  145SAPE   H2R15929   4.488   4.582  10.077  1.4113 -0.1916  0.4457
  145SAPE   H2S15930   4.413   4.589  10.246  1.5174 -0.9039  1.2670
  145SAPE    C315931   4.689   4.235  10.245 -0.8703 -0.2072 -0.0417
  145SAPE    HX15932   4.597   4.193  10.291 -1.2429 -1.3678 -1.7336
  145SAPE    HY15933   4.769   4.158  10.246 -1.0405 -0.3858  0.9504
  145SAPE   O3115934   4.665   4.260  10.105 -0.7808  0.3196  0.2889
  145SAPE   C3115935   4.772   4.270  10.022 -0.2372 -0.2791 -0.6456
  145SAPE   O3215936   4.887   4.285  10.059  0.2817 -0.0310  0.2007
  145SAPE   C3215937   4.728   4.289   9.881 -1.1525 -0.2025 -0.0402
  145SAPE   H2X15938   4.678   4.388   9.886  1.6249  1.2219  2.7013
  145SAPE   H2Y15939   4.656   4.206   9.862 -2.1498  0.2628  1.5965
  145SAPE   C2315940   4.479   4.785  10.154  0.3088 -0.4756  0.2976
  145SAPE   H3R15941   4.573   4.831  10.118 -0.0119  0.4714  0.6475
  145SAPE   H3S15942   4.460   4.822  10.257 -1.9632  0.9700 -0.5582
  145SAPE   C2415943   4.357   4.825  10.065 -0.1034 -0.4416  1.1867
  145SAPE   H4R15944   4.269   4.774  10.110 -1.5148  0.7407 -0.0759
  145SAPE   H4S15945   4.388   4.792   9.964 -0.8976  0.1356  0.7348
  145SAPE   C2515946   4.334   4.972  10.079 -0.2089  0.1479  0.6837
  145SAPE   H5R15947   4.332   5.012  10.182 -0.7496  0.5442  0.5225
  145SAPE   C2615948   4.315   5.065   9.987  0.2928 -0.1483  1.1880
  145SAPE   H6R15949   4.302   5.170  10.015 -0.1503  0.3383 -0.6785
  145SAPE   C2715950   4.316   5.047   9.834 -0.4137  0.1369  0.2606
  145SAPE   H7R15951   4.404   4.985   9.807  0.9325  2.3617 -0.7467
  145SAPE   H7S15952   4.328   5.148   9.790  2.0836 -0.9414 -1.7192
  145SAPE   C2815953   4.181   4.984   9.783  0.4146 -0.9369 -0.3311
  145SAPE   H8R15954   4.168   4.877   9.804  2.5770 -1.3191 -0.6225
  145SAPE   C2915955   4.085   5.043   9.708  0.1242 -0.3523  0.2608
  145SAPE   H9R15956   3.998   4.981   9.684  0.9775 -1.3460 -0.3621
  145SAPE  C21015957   4.087   5.187   9.656  0.0119  0.5252 -0.1845
  145SAPE  H10R15958   4.031   5.195   9.560 -0.8408 -2.0930  0.0224
  145SAPE  H10S15959   4.190   5.221   9.634  1.3956 -2.9675  0.3414
  145SAPE  C21115960   4.032   5.291   9.749  0.1582 -0.1191  0.1920
  145SAPE  H11R15961   4.075   5.283   9.850  2.6106  0.4355 -0.7498
  145SAPE  C21215962   3.933   5.387   9.726 -0.4558 -0.1935 -0.1861
  145SAPE  H12R15963   3.914   5.458   9.807 -0.6577 -0.6842  0.2072
  145SAPE  C21315964   3.847   5.415   9.598  0.0202  0.3192 -0.1173
  145SAPE  H13R15965   3.765   5.485   9.621  0.5388  1.2372 -0.9940
  145SAPE  H13S15966   3.784   5.330   9.564  0.1985  0.9821 -2.2238
  145SAPE  C21415967   3.938   5.456   9.485 -0.5764 -0.4427  0.1269
  145SAPE  H14R15968   3.990   5.552   9.491  0.3480 -0.2920 -5.1200
  145SAPE  C21515969   3.975   5.387   9.373 -0.3171  0.3554 -1.0833
  145SAPE  H15R15970   4.037   5.443   9.300 -2.6476  0.3563 -3.1964
  145SAPE  C21615971   3.937   5.252   9.325  0.5644  0.5783  0.1954
  145SAPE  H16R15972   3.858   5.208   9.391 -1.0495 -0.0013 -2.0038
  145SAPE  H16S15973   4.018   5.176   9.328 -0.7249 -0.8377  0.4729
  145SAPE  C21715974   3.875   5.241   9.187 -0.2919  0.2805 -0.2420
  145SAPE  H17R15975   3.833   5.138   9.179 -0.5117  0.4189 -0.9169
  145SAPE  H17S15976   3.949   5.251   9.105  0.6128  1.2407  0.6558
  145SAPE  C21815977   3.747   5.331   9.176 -0.4804 -0.1034 -0.2541
  145SAPE  H18R15978   3.773   5.439   9.187  1.2233 -0.6815  1.9717
  145SAPE  H18S15979   3.671   5.293   9.247  0.0093 -1.4027 -0.4067
  145SAPE  C21915980   3.695   5.326   9.038  0.7143 -0.4687  1.1404
  145SAPE  H19R15981   3.690   5.219   9.006 -2.1456  0.4876 -2.2528
  145SAPE  H19S15982   3.771   5.376   8.975  2.6409 -1.9037  2.2346
  145SAPE  C22015983   3.559   5.391   9.026 -0.1260 -0.0607  0.6907
  145SAPE  H20R15984   3.537   5.433   8.925 -1.3434  1.5355  1.5833
  145SAPE  H20S15985   3.553   5.489   9.078  2.0125  0.7767 -0.5162
  145SAPE  H20T15986   3.475   5.325   9.056 -1.5778  1.5084  0.2645
  145SAPE   C3315987   4.855   4.294   9.781 -0.3300 -0.0249 -0.0377
  145SAPE   H3X15988   4.901   4.193   9.775  0.5543  0.4153 -0.9617
  145SAPE   H3Y15989   4.931   4.359   9.831 -1.4561 -0.2468  2.0648
  145SAPE   C3415990   4.813   4.344   9.646 -0.3361 -0.1841  0.5229
  145SAPE   H4X15991   4.908   4.361   9.592 -0.2186 -1.2954  0.3626
  145SAPE   H4Y15992   4.757   4.439   9.665  1.3843  1.1305 -0.6580
  145SAPE   C3515993   4.716   4.241   9.566  0.0062  0.2730 -0.3235
  145SAPE   H5X15994   4.626   4.213   9.625  0.3366 -1.0747 -0.4271
  145SAPE   H5Y15995   4.782   4.153   9.550  0.5212  0.7015 -0.5834
  145SAPE   C3615996   4.676   4.293   9.421 -0.0578 -0.0366 -0.2489
  145SAPE   H6X15997   4.763   4.351   9.384 -0.7196  1.8076  0.9180
  145SAPE   H6Y15998   4.596   4.370   9.430  1.3939  1.5779 -0.5332
  145SAPE   C3715999   4.634   4.186   9.322  0.4324 -0.8162  0.1276
  145SAPE   H7X16000   4.566   4.112   9.370 -0.1909  1.0336  2.2963
  145SAPE   H7Y16001   4.727   4.131   9.297  1.6265  1.3421 -0.4163
  145SAPE   C3816002   4.572   4.242   9.191 -0.5936  0.5467 -0.4630
  145SAPE   H8X16003   4.477   4.287   9.228 -0.4641  1.1198 -0.8108
  145SAPE   H8Y16004   4.551   4.152   9.129 -0.6028  0.9547 -1.0665
  145SAPE   C3916005   4.655   4.336   9.104  0.2884 -0.0936  0.2872
  145SAPE   H9X16006   4.753   4.285   9.092 -0.7378 -1.6611 -2.4374
  145SAPE   H9Y16007   4.657   4.436   9.152  1.9364  2.8724 -5.1113
  145SAPE  C31016008   4.597   4.371   8.971 -0.3391  0.3970  0.1919
  145SAPE  H10X16009   4.656   4.453   8.926  0.1425 -0.0392  0.0098
  145SAPE  H10Y16010   4.496   4.413   8.990  0.8246  3.0640  0.8526
  145SAPE  C31116011   4.600   4.252   8.870  0.2961 -0.4671 -0.3674
  145SAPE  H11X16012   4.554   4.161   8.913  2.7160 -1.9357 -0.7169
  145SAPE  H11Y16013   4.703   4.213   8.854  0.2092  0.3560 -3.6687
  145SAPE  C31216014   4.538   4.286   8.732 -0.3616  0.2062 -0.1814
  145SAPE  H12X16015   4.435   4.326   8.741 -0.9126 -0.5082 -2.5260
  145SAPE  H12Y16016   4.537   4.190   8.676  1.9369  1.2689 -2.2101
  145SAPE  C31316017   4.614   4.392   8.640  0.2676 -0.1985 -0.4744
  145SAPE  H13X16018   4.723   4.376   8.655  0.2379  1.3251  1.9752
  145SAPE  H13Y16019   4.598   4.496   8.676  0.5341 -0.3033 -0.0436
  145SAPE  C31416020   4.586   4.378   8.485  0.3095 -0.1483 -0.2723
  145SAPE  H14X16021   4.658   4.443   8.430 -2.1546  1.9546 -1.2386
  145SAPE  H14Y16022   4.487   4.414   8.448  0.1824 -2.0785 -2.0084
  145SAPE  C31516023   4.609   4.238   8.418  0.1850  0.0722 -0.2002
  145SAPE  H15X16024   4.520   4.177   8.445  0.5500  0.6710  2.7053
  145SAPE  H15Y16025   4.701   4.184   8.447  0.4383  0.0007 -1.1155
  145SAPE  C31616026   4.599   4.228   8.260 -0.3223 -0.4407  0.5662
  145SAPE  H16X16027   4.501   4.258   8.218  0.2594  0.3471 -0.2726
  145SAPE  H16Y16028   4.620   4.124   8.227 -0.1856 -0.5184  0.8907
  145SAPE  C31716029   4.706   4.319   8.195 -0.2349  0.0104 -0.1449
  145SAPE  H17X16030   4.806   4.282   8.228  0.6809  1.3085 -1.3366
  145SAPE  H17Y16031   4.705   4.418   8.245  0.2178 -0.2139  0.3165
  145SAPE  C31816032   4.697   4.334   8.042  0.0923  0.3701  0.0154
  145SAPE  H18X16033   4.590   4.332   8.013 -0.6282  0.1953  2.4348
  145SAPE  H18Y16034   4.743   4.245   7.993 -1.9591  0.0527 -1.4485
  145SAPE  H18Z16035   4.749   4.424   8.003  0.9039 -1.1916 -2.7521
  146SAPE     N16036   3.862   6.340  10.690  0.7476  0.1726 -0.2094
  146SAPE   HN116037   3.801   6.424  10.690 -0.5931 -0.7264 -1.5422
  146SAPE   HN216038   3.878   6.314  10.590 -0.0254 -0.0191 -0.2902
  146SAPE   HN316039   3.802   6.264  10.728 -2.9149  1.6618 -2.4252
  146SAPE   C1216040   3.989   6.353  10.768 -0.0083 -0.0160 -0.7851
  146SAPE  H12A16041   4.053   6.265  10.746  1.2798  0.6465  0.1064
  146SAPE  H12B16042   3.958   6.345  10.874 -0.6510 -1.9111 -1.0829
  146SAPE   C1116043   4.069   6.479  10.736  0.8017  0.1609  0.3247
  146SAPE  H11A16044   4.006   6.569  10.758 -1.3110 -1.2030  0.1182
  146SAPE  H11B16045   4.078   6.479  10.625 -2.1605 -1.1202 -0.0195
  146SAPE     P16046   4.316   6.576  10.775  0.1021  0.3072  0.1319
  146SAPE   O1316047   4.318   6.702  10.856  0.4379 -0.1973  0.1389
  146SAPE   O1416048   4.436   6.497  10.777  0.3228  0.3237  0.4008
  146SAPE   O1216049   4.185   6.490  10.814 -0.0285  0.3359 -0.5481
  146SAPE   O1116050   4.288   6.626  10.628 -0.4559  0.3484  0.2016
  146SAPE    C116051   4.335   6.566  10.507  0.2216  0.3227  0.0245
  146SAPE    HA16052   4.440   6.603  10.499 -1.0910  4.0276 -2.5465
  146SAPE    HB16053   4.327   6.455  10.501  0.8749  0.3172 -0.9440
  146SAPE    C216054   4.263   6.618  10.386 -0.4217 -0.0306  0.2182
  146SAPE    HS16055   4.267   6.729  10.389 -1.0847  0.0361 -0.8638
  146SAPE   O2116056   4.127   6.578  10.397  0.6174  0.2275  0.0182
  146SAPE   C2116057   4.033   6.655  10.351  0.6443  0.4719 -0.6937
  146SAPE   O2216058   4.047   6.762  10.297 -0.0813  0.6596 -0.4445
  146SAPE   C2216059   3.892   6.607  10.379 -0.7637 -0.6531 -0.0945
  146SAPE   H2R16060   3.869   6.646  10.480  0.6392 -1.6170  0.6221
  146SAPE   H2S16061   3.834   6.666  10.304  0.3026  0.7272  0.1231
  146SAPE    C316062   4.329   6.567  10.253  0.0042  0.8016  0.0035
  146SAPE    HX16063   4.346   6.458  10.270  4.2682  0.8898 -2.2348
  146SAPE    HY16064   4.431   6.610  10.243  0.3182 -0.0498 -0.5847
  146SAPE   O3116065   4.245   6.601  10.140  0.1855  0.1984  0.1882
  146SAPE   C3116066   4.271   6.722  10.085 -0.7063  0.4716 -0.0264
  146SAPE   O3216067   4.367   6.792  10.113 -0.3651  0.1149  0.3723
  146SAPE   C3216068   4.152   6.763   9.997 -0.7646 -0.1477 -0.5790
  146SAPE   H2X16069   4.156   6.874   9.994  1.0565 -0.0247  2.3343
  146SAPE   H2Y16070   4.057   6.757  10.055 -0.5970 -0.3244 -0.3167
  146SAPE   C2316071   3.874   6.462  10.353 -0.1355  0.2152  0.0454
  146SAPE   H3R16072   3.919   6.395  10.430 -1.1116 -0.3956  0.1046
  146SAPE   H3S16073   3.919   6.429  10.256 -0.9923 -0.9272  0.0149
  146SAPE   C2416074   3.734   6.414  10.341 -0.1079 -0.0703  0.3444
  146SAPE   H4R16075   3.684   6.477  10.264 -0.4478 -2.0205 -1.1061
  146SAPE   H4S16076   3.666   6.417  10.429  0.6273  0.9598  0.9033
  146SAPE   C2516077   3.729   6.274  10.289 -0.1356 -0.2743  0.1218
  146SAPE   H5R16078   3.771   6.196  10.354 -1.2530  0.0921  1.3459
  146SAPE   C2616079   3.691   6.234  10.166 -0.0759  0.1493 -0.1955
  146SAPE   H6R16080   3.696   6.126  10.145 -1.7798 -0.0307  0.2319
  146SAPE   C2716081   3.638   6.321  10.055  0.0580 -0.4025  0.0197
  146SAPE   H7R16082   3.722   6.357   9.991  1.1566  3.1761  3.0956
  146SAPE   H7S16083   3.603   6.420  10.093 -1.1397 -0.4878 -0.8037
  146SAPE   C2816084   3.526   6.263   9.977 -0.1568 -0.3158  0.1000
  146SAPE   H8R16085   3.433   6.315  10.004  0.7899  0.9981  1.0269
  146SAPE   C2916086   3.520   6.167   9.884 -0.0214 -0.3017 -0.1133
  146SAPE   H9R16087   3.425   6.136   9.839 -0.2442 -1.6776  1.2112
  146SAPE  C21016088   3.638   6.099   9.831 -0.8040 -0.3264  0.3371
  146SAPE  H10R16089   3.726   6.112   9.898 -0.8620 -0.1649  0.3818
  146SAPE  H10S16090   3.672   6.147   9.737 -1.2176  1.5970  1.1317
  146SAPE  C21116091   3.617   5.950   9.818  0.0002 -0.1922  0.7971
  146SAPE  H11R16092   3.519   5.910   9.847 -0.1535  1.4295  2.7016
  146SAPE  C21216093   3.709   5.865   9.776  0.5861 -0.4044 -1.0049
  146SAPE  H12R16094   3.690   5.756   9.775 -0.2687 -0.2925  0.3389
  146SAPE  C21316095   3.848   5.911   9.738 -0.4324  0.3045 -0.0616
  146SAPE  H13R16096   3.867   6.006   9.792 -1.5506  0.7245 -0.3854
  146SAPE  H13S16097   3.855   5.943   9.632  0.4051  3.4785  0.8499
  146SAPE  C21416098   3.957   5.809   9.781 -0.8151  0.4669 -0.5723
  146SAPE  H14R16099   4.002   5.738   9.710  0.5773  1.3743 -0.6183
  146SAPE  C21516100   3.991   5.789   9.909 -0.3956 -0.1830 -0.9930
  146SAPE  H15R16101   4.054   5.700   9.924 -1.8471 -1.0768  0.0078
  146SAPE  C21616102   3.948   5.867  10.034 -0.5819  0.4914 -0.3786
  146SAPE  H16R16103   3.855   5.924  10.012  1.0602  3.8744  0.6699
  146SAPE  H16S16104   4.023   5.943  10.065  2.1800 -1.3477 -2.0987
  146SAPE  C21716105   3.915   5.766  10.148  0.3026 -0.7646  0.6532
  146SAPE  H17R16106   3.887   5.835  10.230 -0.8764  0.5155 -0.7574
  146SAPE  H17S16107   4.006   5.709  10.175  1.9803  1.0629 -0.7744
  146SAPE  C21816108   3.798   5.663  10.114  0.0510 -0.3430 -0.0207
  146SAPE  H18R16109   3.827   5.579  10.046  0.4552 -0.9975  0.9331
  146SAPE  H18S16110   3.717   5.723  10.068  0.9508  1.6072  0.7959
  146SAPE  C21916111   3.750   5.584  10.240 -0.3437  0.5483 -0.3188
  146SAPE  H19R16112   3.653   5.534  10.219  0.7995 -1.3466 -1.4110
  146SAPE  H19S16113   3.740   5.663  10.317 -2.0902 -1.6862  1.9183
  146SAPE  C22016114   3.863   5.487  10.278 -0.6374  0.0797  0.4416
  146SAPE  H20R16115   3.825   5.398  10.334  0.1952  0.3148  1.3947
  146SAPE  H20S16116   3.931   5.538  10.350  1.2506 -0.1698 -1.0856
  146SAPE  H20T16117   3.909   5.446  10.186  1.6545  1.2645  1.0023
  146SAPE   C3316118   4.123   6.705   9.860  0.1998  0.3355  0.0831
  146SAPE   H3X16119   4.156   6.599   9.867  1.9776  0.9206  1.5569
  146SAPE   H3Y16120   4.195   6.756   9.792 -0.3198  4.4316  2.3168
  146SAPE   C3416121   3.979   6.729   9.809  0.3122 -0.1716  0.6717
  146SAPE   H4X16122   3.941   6.833   9.820 -1.4997 -0.8414  1.2969
  146SAPE   H4Y16123   3.915   6.675   9.883 -0.1094 -0.3507  0.1831
  146SAPE   C3516124   3.944   6.687   9.664 -0.5910 -0.5708 -0.0288
  146SAPE   H5X16125   3.836   6.700   9.642 -0.3577 -1.1341 -1.5999
  146SAPE   H5Y16126   3.966   6.578   9.660  0.1444 -0.3816 -1.5321
  146SAPE   C3616127   4.028   6.771   9.557  0.3956  0.1585 -0.1674
  146SAPE   H6X16128   4.130   6.728   9.560  0.7570  0.9028 -1.2900
  146SAPE   H6Y16129   4.030   6.879   9.581  1.2895 -0.1474  1.2674
  146SAPE   C3716130   3.977   6.756   9.415 -0.0484  0.4386  0.0178
  146SAPE   H7X16131   4.030   6.835   9.358  0.5090  0.0685  0.0197
  146SAPE   H7Y16132   3.868   6.781   9.412 -0.0723  0.3927  0.4109
  146SAPE   C3816133   4.000   6.615   9.352  0.1768 -0.6529 -0.5536
  146SAPE   H8X16134   3.953   6.533   9.411  2.4987 -1.7166 -0.0722
  146SAPE   H8Y16135   4.108   6.588   9.352  0.2291 -0.4439 -1.0569
  146SAPE   C3916136   3.947   6.606   9.208 -0.5769 -0.1676 -0.3414
  146SAPE   H9X16137   3.989   6.682   9.139  0.9818 -0.1731  0.5592
  146SAPE   H9Y16138   3.837   6.614   9.221 -0.5821  4.1404 -1.6294
  146SAPE  C31016139   3.976   6.464   9.164 -0.8650  0.4367  0.1484
  146SAPE  H10X16140   3.923   6.434   9.071 -0.3169 -0.5761  0.1405
  146SAPE  H10Y16141   3.930   6.399   9.242 -1.0583 -0.8866 -1.0267
  146SAPE  C31116142   4.122   6.418   9.144 -0.4406  0.5554 -0.4692
  146SAPE  H11X16143   4.185   6.445   9.231  0.8883  1.3559 -1.6230
  146SAPE  H11Y16144   4.155   6.471   9.051 -2.5341 -1.3752 -2.4288
  146SAPE  C31216145   4.140   6.268   9.120 -0.1291  0.2991 -0.4117
  146SAPE  H12X16146   4.076   6.208   9.189  1.0275 -1.3050 -0.6740
  146SAPE  H12Y16147   4.244   6.233   9.138  0.1419  0.8418 -0.8584
  146SAPE  C31316148   4.099   6.239   8.977 -0.0839  0.3763  0.1873
  146SAPE  H13X16149   4.022   6.304   8.932  1.4474  1.8864 -0.3689
  146SAPE  H13Y16150   4.043   6.143   8.980 -1.1939  0.9919 -0.2465
  146SAPE  C31416151   4.216   6.227   8.883  0.5969 -0.0693 -1.0066
  146SAPE  H14X16152   4.300   6.170   8.928  2.8184  3.1366 -0.7260
  146SAPE  H14Y16153   4.268   6.325   8.869 -0.3852  0.5548 -0.4456
  146SAPE  C31516154   4.178   6.176   8.744  0.6807 -0.5518 -0.0883
  146SAPE  H15X16155   4.120   6.252   8.687  0.5619  1.4705  2.5720
  146SAPE  H15Y16156   4.109   6.088   8.750 -0.3692  0.2721  0.2084
  146SAPE  C31616157   4.294   6.135   8.656  0.2452 -0.1482  0.3655
  146SAPE  H16X16158   4.372   6.214   8.663 -0.5493  0.5172  3.7666
  146SAPE  H16Y16159   4.262   6.140   8.550 -0.8086  2.0963  0.7307
  146SAPE  C31716160   4.367   6.012   8.693 -0.9272 -0.1979 -0.2750
  146SAPE  H17X16161   4.297   5.925   8.699 -1.9902  0.4875 -2.0238
  146SAPE  H17Y16162   4.407   6.030   8.795 -0.1626 -0.5586 -0.5063
  146SAPE  C31816163   4.491   5.998   8.597  0.3400  0.0608  0.2842
  146SAPE  H18X16164   4.465   6.030   8.494  1.6936 -1.9804 -0.7688
  146SAPE  H18Y16165   4.521   5.891   8.594 -0.5107 -0.2036  0.9279
  146SAPE  H18Z16166   4.577   6.062   8.625  0.5913 -0.3675  0.5141
  147SAPE     N16167   6.006   1.807  11.231 -0.3471 -0.3463  0.5766
  147SAPE   HN116168   5.922   1.806  11.170 -0.6591 -0.8317  1.0018
  147SAPE   HN216169   5.974   1.771  11.324  2.2231 -2.1070  0.8749
  147SAPE   HN316170   6.030   1.908  11.240  1.6314 -0.6628 -0.6424
  147SAPE   C1216171   6.118   1.735  11.169  0.7344 -0.3697 -0.3075
  147SAPE  H12A16172   6.089   1.648  11.105 -0.7098  0.5977 -1.0390
  147SAPE  H12B16173   6.185   1.698  11.250  1.6360  1.4815 -0.1762
  147SAPE   C1116174   6.215   1.819  11.086  0.6042 -0.3571 -0.4042
  147SAPE  H11A16175   6.274   1.751  11.021  0.9224  1.0084 -1.6038
  147SAPE  H11B16176   6.279   1.876  11.157 -0.6204  1.2955 -0.5756
  147SAPE     P16177   6.065   1.877  10.868  0.2650 -0.3058  0.2288
  147SAPE   O1316178   5.945   1.803  10.902 -0.3207  0.3850 -0.7256
  147SAPE   O1416179   6.046   2.006  10.792 -0.2476  0.2083 -0.3781
  147SAPE   O1216180   6.144   1.913  11.003  0.0581  0.4167  0.4753
  147SAPE   O1116181   6.164   1.788  10.795  0.1798 -0.0746  0.4309
  147SAPE    C116182   6.284   1.839  10.730  0.3935 -0.2087 -0.0814
  147SAPE    HA16183   6.335   1.927  10.774  0.6620  0.4822 -1.6989
  147SAPE    HB16184   6.369   1.769  10.716  2.2059  1.9683 -0.5464
  147SAPE    C216185   6.250   1.887  10.591 -0.5026 -0.2446  0.2535
  147SAPE    HS16186   6.147   1.929  10.596 -0.2197  0.5007 -0.0610
  147SAPE   O2116187   6.271   1.772  10.509 -0.1935 -0.0883  0.5419
  147SAPE   C2116188   6.178   1.757  10.414 -0.3944 -0.3536 -0.4475
  147SAPE   O2216189   6.084   1.828  10.399  0.3968 -0.6254  0.0926
  147SAPE   C2216190   6.213   1.626  10.339  0.0470 -0.0202  0.6167
  147SAPE   H2R16191   6.282   1.654  10.256 -2.3840  0.7661 -1.2421
  147SAPE   H2S16192   6.268   1.552  10.401  1.1608  0.0900 -0.1942
  147SAPE    C316193   6.344   1.989  10.535  0.6933  0.2029  0.4284
  147SAPE    HX16194   6.443   1.940  10.539  0.0814 -1.2973 -1.3506
  147SAPE    HY16195   6.330   2.082  10.595  0.1695  4.0312 -4.8653
  147SAPE   O3116196   6.309   2.022  10.397 -0.1310 -0.6251 -0.0913
  147SAPE   C3116197   6.368   2.124  10.353 -0.6071  0.4610 -0.0740
  147SAPE   O3216198   6.435   2.203  10.409 -0.2440 -0.0093  0.4182
  147SAPE   C3216199   6.357   2.113  10.199 -0.7232 -0.8083 -0.4299
  147SAPE   H2X16200   6.255   2.078  10.173 -0.5876 -1.9672  0.5097
  147SAPE   H2Y16201   6.436   2.042  10.166  0.3251  0.7649 -1.4451
  147SAPE   C2316202   6.092   1.556  10.283  0.2329  0.1484 -0.2772
  147SAPE   H3R16203   6.026   1.626  10.227  1.1089  0.8566 -0.4342
  147SAPE   H3S16204   6.027   1.512  10.362  0.2122 -0.2347 -0.5046
  147SAPE   C2416205   6.140   1.442  10.196 -0.4712 -0.7426  0.2599
  147SAPE   H4R16206   6.187   1.372  10.268 -0.9595 -0.8515  0.4745
  147SAPE   H4S16207   6.211   1.488  10.124 -0.6323 -1.7338 -0.5435
  147SAPE   C2516208   6.033   1.370  10.122 -0.1427 -0.3166 -0.0059
  147SAPE   H5R16209   5.983   1.297  10.187  0.1618  2.0480  3.1373
  147SAPE   C2616210   5.999   1.382   9.994 -0.0640 -0.5347 -0.0251
  147SAPE   H6R16211   5.921   1.312   9.960 -0.2910 -0.7997  0.9864
  147SAPE   C2716212   6.047   1.481   9.888 -0.2080  0.1814  0.2588
  147SAPE   H7R16213   6.124   1.433   9.824 -0.3098  2.6481 -1.8749
  147SAPE   H7S16214   6.097   1.565   9.940 -0.2138 -0.4403  1.2824
  147SAPE   C2816215   5.915   1.530   9.827 -0.2635  0.1859 -0.3186
  147SAPE   H8R16216   5.888   1.629   9.868  0.2757  0.2224 -0.0282
  147SAPE   C2916217   5.850   1.473   9.720 -0.1904 -0.6750 -0.0388
  147SAPE   H9R16218   5.756   1.517   9.684 -0.7946 -1.7135  0.2572
  147SAPE  C21016219   5.890   1.345   9.648  0.1549 -0.1559  0.0544
  147SAPE  H10R16220   5.833   1.257   9.685  1.1246 -1.7814 -2.0887
  147SAPE  H10S16221   5.994   1.307   9.657  0.2015 -0.2613 -0.8651
  147SAPE  C21116222   5.846   1.359   9.503 -0.4642  0.1192  0.5918
  147SAPE  H11R16223   5.737   1.347   9.492 -0.2419 -2.2936  0.5116
  147SAPE  C21216224   5.918   1.395   9.396 -0.3068  0.1827 -0.3043
  147SAPE  H12R16225   5.870   1.410   9.299 -0.0299 -0.4287 -0.5442
  147SAPE  C21316226   6.063   1.421   9.400 -0.7966  0.2353  0.5214
  147SAPE  H13R16227   6.113   1.372   9.313 -1.2178  0.9278 -0.1223
  147SAPE  H13S16228   6.109   1.381   9.493  0.6552 -0.6014 -0.4974
  147SAPE  C21416229   6.085   1.570   9.401 -0.8732  0.1797 -0.4093
  147SAPE  H14R16230   6.068   1.611   9.501  0.7634  2.7796 -1.0981
  147SAPE  C21516231   6.119   1.648   9.292 -0.0262 -0.2232 -0.5117
  147SAPE  H15R16232   6.127   1.757   9.305  0.2497  0.0472 -2.6143
  147SAPE  C21616233   6.145   1.594   9.150 -0.1265 -1.2649 -1.0245
  147SAPE  H16R16234   6.108   1.490   9.142 -1.1630 -1.1542  1.4790
  147SAPE  H16S16235   6.255   1.609   9.142 -0.3161  0.5264 -0.6945
  147SAPE  C21716236   6.092   1.669   9.031  0.7793 -0.4477  0.2267
  147SAPE  H17R16237   6.126   1.632   8.932  0.2548  2.2603 -1.0896
  147SAPE  H17S16238   6.105   1.780   9.033  0.8147 -0.4393 -0.3587
  147SAPE  C21816239   5.938   1.654   9.017  0.1844  0.6146 -0.5249
  147SAPE  H18R16240   5.906   1.717   9.102  0.1265  1.4669 -1.1671
  147SAPE  H18S16241   5.911   1.547   9.035  0.0724  0.8681  0.9083
  147SAPE  C21916242   5.889   1.701   8.879  0.2919  1.3529 -1.0232
  147SAPE  H19R16243   5.915   1.631   8.797  0.4080 -1.8221  1.5320
  147SAPE  H19S16244   5.946   1.795   8.860  2.1257  0.2025 -1.4165
  147SAPE  C22016245   5.737   1.731   8.878 -0.0062 -0.4209 -0.4981
  147SAPE  H20R16246   5.711   1.788   8.970  1.4730  0.2310 -0.4541
  147SAPE  H20S16247   5.681   1.636   8.865  0.1198 -0.7240  0.9811
  147SAPE  H20T16248   5.726   1.792   8.786  1.2168  0.5996  0.0122
  147SAPE   C3316249   6.400   2.234  10.107  0.2558 -0.1624 -0.1249
  147SAPE   H3X16250   6.509   2.252  10.113  0.0249  0.8762  3.0492
  147SAPE   H3Y16251   6.359   2.334  10.135  0.6479  0.1522 -0.6513
  147SAPE   C3416252   6.372   2.195   9.964  0.1218  0.1322  1.0895
  147SAPE   H4X16253   6.261   2.199   9.954  0.3257  2.1186 -1.3533
  147SAPE   H4Y16254   6.401   2.093   9.932  0.3044  0.9062 -1.4090
  147SAPE   C3516255   6.422   2.293   9.855 -0.5988 -0.5106  0.1550
  147SAPE   H5X16256   6.528   2.320   9.875  0.1392 -2.4923 -0.8659
  147SAPE   H5Y16257   6.362   2.386   9.868  0.3516  0.1359 -0.0180
  147SAPE   C3616258   6.407   2.235   9.715 -0.5483 -0.5232 -0.3782
  147SAPE   H6X16259   6.303   2.207   9.692 -0.7158  0.0783 -0.3824
  147SAPE   H6Y16260   6.464   2.141   9.702  3.6028  2.0048 -2.6277
  147SAPE   C3716261   6.459   2.338   9.611 -0.0389 -0.4585  0.6918
  147SAPE   H7X16262   6.567   2.362   9.620  0.0147  0.2978 -1.4052
  147SAPE   H7Y16263   6.396   2.430   9.619 -0.4963 -0.2458 -3.2174
  147SAPE   C3816264   6.442   2.300   9.463 -0.6710 -0.3041  0.4911
  147SAPE   H8X16265   6.342   2.253   9.460  0.0421 -1.9240  0.9277
  147SAPE   H8Y16266   6.508   2.211   9.450 -0.6486 -0.0706 -1.1958
  147SAPE   C3916267   6.493   2.396   9.359 -0.1814  0.3386 -0.2967
  147SAPE   H9X16268   6.604   2.395   9.359 -0.1731 -1.5954 -0.9949
  147SAPE   H9Y16269   6.468   2.502   9.383  1.0576  0.3138  1.2462
  147SAPE  C31016270   6.433   2.369   9.216  0.2994 -0.2014 -0.4633
  147SAPE  H10X16271   6.323   2.380   9.206  0.3673 -0.7365 -2.0948
  147SAPE  H10Y16272   6.441   2.259   9.206 -2.0637 -0.7656  2.4975
  147SAPE  C31116273   6.500   2.449   9.096  0.1863  0.1811 -0.3194
  147SAPE  H11X16274   6.608   2.462   9.116 -0.0836  1.3368  0.4823
  147SAPE  H11Y16275   6.463   2.553   9.101  2.0571  0.9916 -1.7455
  147SAPE  C31216276   6.483   2.396   8.952 -0.3372 -0.0039  0.4349
  147SAPE  H12X16277   6.376   2.364   8.945 -0.4142  0.2637  0.3648
  147SAPE  H12Y16278   6.534   2.299   8.963 -0.1427 -0.0644 -0.9139
  147SAPE  C31316279   6.543   2.483   8.840  0.4735  0.0095  0.4034
  147SAPE  H13X16280   6.491   2.466   8.744 -0.2720  0.1740  0.7680
  147SAPE  H13Y16281   6.651   2.459   8.837  0.3029 -0.8229  0.7181
  147SAPE  C31416282   6.518   2.633   8.855 -0.5312  0.7573  0.4530
  147SAPE  H14X16283   6.570   2.683   8.771 -3.3446  0.1725 -1.7822
  147SAPE  H14Y16284   6.563   2.673   8.948  0.1189 -1.4719  1.1643
  147SAPE  C31516285   6.371   2.658   8.853 -1.1964 -0.5439 -0.1032
  147SAPE  H15X16286   6.340   2.610   8.948  1.6866 -2.3883  0.0266
  147SAPE  H15Y16287   6.327   2.603   8.767  0.6111 -0.7302 -0.9591
  147SAPE  C31616288   6.333   2.807   8.825 -0.7556 -0.2348 -0.3424
  147SAPE  H16X16289   6.414   2.878   8.851 -1.7694  0.7544  0.2118
  147SAPE  H16Y16290   6.260   2.831   8.905 -0.6350  0.7981 -0.5323
  147SAPE  C31716291   6.299   2.839   8.680  0.7851 -0.1208  0.5353
  147SAPE  H17X16292   6.265   2.944   8.670  0.7029 -0.2038 -0.1002
  147SAPE  H17Y16293   6.219   2.765   8.657  1.5934 -1.2910  1.3506
  147SAPE  C31816294   6.408   2.819   8.580  0.2683  0.0244  0.6448
  147SAPE  H18X16295   6.367   2.798   8.479  0.2274  0.9939  0.4500
  147SAPE  H18Y16296   6.464   2.724   8.593  0.5805 -0.1489 -1.6644
  147SAPE  H18Z16297   6.488   2.896   8.580  1.0494 -0.7495  1.8401
  148SAPE     N16298   0.660   2.325  10.873  0.0542  0.3253 -0.6487
  148SAPE   HN116299   0.599   2.372  10.942  0.8172 -0.4381  0.5773
  148SAPE   HN216300   0.691   2.393  10.800 -1.0618  0.7455 -0.7416
  148SAPE   HN316301   0.613   2.247  10.824 -0.6672  1.2411 -1.4682
  148SAPE   C1216302   0.785   2.286  10.943  0.3874 -0.6315 -0.5003
  148SAPE  H12A16303   0.760   2.208  11.018  3.8010 -1.1932  0.1887
  148SAPE  H12B16304   0.829   2.369  11.002  2.3081  0.1690 -2.8828
  148SAPE   C1116305   0.891   2.222  10.843  0.3332  0.6545 -0.0115
  148SAPE  H11A16306   0.841   2.130  10.805 -0.8055  0.2166  2.4002
  148SAPE  H11B16307   0.984   2.200  10.900 -0.5673 -1.1275  0.8735
  148SAPE     P16308   0.910   2.287  10.586  0.2272  0.1068 -0.1625
  148SAPE   O1316309   0.922   2.422  10.525 -0.6168  0.4438 -0.5061
  148SAPE   O1416310   1.007   2.187  10.540  0.2043  0.1704 -0.5013
  148SAPE   O1216311   0.927   2.316  10.737 -0.0389 -0.4597 -0.5540
  148SAPE   O1116312   0.758   2.241  10.587 -0.2242  0.4361  0.6155
  148SAPE    C116313   0.720   2.115  10.520 -0.0572  0.2188  0.5641
  148SAPE    HA16314   0.796   2.034  10.532 -2.3794 -2.4223 -1.0495
  148SAPE    HB16315   0.624   2.079  10.562 -1.2579  2.7797  0.2038
  148SAPE    C216316   0.707   2.128  10.366 -0.2430 -0.3579 -0.2917
  148SAPE    HS16317   0.645   2.045  10.324  0.3662 -0.9513 -0.0322
  148SAPE   O2116318   0.831   2.126  10.299 -0.8640  0.4939  0.2090
  148SAPE   C2116319   0.904   2.019  10.297 -0.0114 -0.4100 -0.7298
  148SAPE   O2216320   0.875   1.910  10.348  0.0541 -0.5248 -0.0485
  148SAPE   C2216321   1.033   2.042  10.220 -0.0753 -0.1105  0.6276
  148SAPE   H2R16322   1.020   2.116  10.139  0.1358 -1.3842 -0.5986
  148SAPE   H2S16323   1.104   2.090  10.291 -2.3524  1.1566  2.1596
  148SAPE    C316324   0.639   2.257  10.328  0.6547 -0.5257 -0.3244
  148SAPE    HX16325   0.703   2.345  10.350  0.6832 -1.4241  3.9507
  148SAPE    HY16326   0.552   2.266  10.396  0.4481 -0.8045 -0.5487
  148SAPE   O3116327   0.590   2.269  10.187 -0.1446  0.5080  0.3615
  148SAPE   C3116328   0.481   2.201  10.158  0.5347  0.2279  0.5775
  148SAPE   O3216329   0.432   2.114  10.228  0.1696  0.2159  0.3220
  148SAPE   C3216330   0.423   2.247  10.035 -0.1172 -0.4741  0.1654
  148SAPE   H2X16331   0.385   2.351  10.045 -2.2930 -1.0858 -1.0482
  148SAPE   H2Y16332   0.333   2.185  10.014 -0.1791 -0.0575 -0.8609
  148SAPE   C2316333   1.096   1.909  10.173 -0.1606  0.1625  0.6785
  148SAPE   H3R16334   1.105   1.842  10.261  0.5330 -1.0653 -0.3045
  148SAPE   H3S16335   1.198   1.931  10.136 -1.1220  3.2557 -0.4646
  148SAPE   C2416336   1.005   1.835  10.076 -0.3397 -0.1093 -0.3790
  148SAPE   H4R16337   0.930   1.770  10.127  0.3088  0.4917  1.4083
  148SAPE   H4S16338   1.074   1.756  10.039  3.6990  1.8933  2.1489
  148SAPE   C2516339   0.960   1.910   9.954 -0.0754  0.0691 -0.6752
  148SAPE   H5R16340   1.037   1.973   9.907 -0.0949 -0.0054 -0.8061
  148SAPE   C2616341   0.836   1.922   9.904 -0.2031  0.8217  0.3357
  148SAPE   H6R16342   0.825   1.993   9.821  1.0838  0.6086 -0.0393
  148SAPE   C2716343   0.715   1.843   9.953 -0.1897 -0.4102 -0.3359
  148SAPE   H7R16344   0.705   1.842  10.064  1.2001 -0.0767 -0.1965
  148SAPE   H7S16345   0.720   1.737   9.923 -2.0930  0.0036 -2.3284
  148SAPE   C2816346   0.581   1.899   9.904  0.3030  0.4330  0.1719
  148SAPE   H8R16347   0.521   1.958   9.974 -0.4367 -0.0870 -0.0213
  148SAPE   C2916348   0.536   1.887   9.776  0.5372 -0.5139  0.2740
  148SAPE   H9R16349   0.439   1.931   9.745 -1.6397 -2.4888  3.6397
  148SAPE  C21016350   0.617   1.816   9.670 -0.1257 -0.5656 -0.2776
  148SAPE  H10R16351   0.722   1.834   9.700  0.2033 -0.5918 -1.4071
  148SAPE  H10S16352   0.614   1.885   9.583  1.4650  3.9858  2.8502
  148SAPE  C21116353   0.596   1.668   9.657  0.0554  0.3212 -0.3518
  148SAPE  H11R16354   0.568   1.619   9.750 -0.7145  3.9968  1.5553
  148SAPE  C21216355   0.598   1.586   9.548 -0.1719  0.0855  0.4027
  148SAPE  H12R16356   0.589   1.477   9.557 -1.7323  0.1052 -0.5239
  148SAPE  C21316357   0.638   1.632   9.405 -0.0145 -0.6215  0.1428
  148SAPE  H13R16358   0.617   1.740   9.395  0.6760 -0.5034 -0.0929
  148SAPE  H13S16359   0.563   1.586   9.338 -0.0318  1.5857 -1.4365
  148SAPE  C21416360   0.786   1.601   9.360 -0.1554  0.3652  0.5871
  148SAPE  H14R16361   0.811   1.494   9.358  0.4529  0.4904  1.0866
  148SAPE  C21516362   0.874   1.693   9.310 -0.5953  0.8968 -0.1320
  148SAPE  H15R16363   0.972   1.665   9.269 -2.2712 -1.1737 -3.0385
  148SAPE  C21616364   0.843   1.841   9.290 -0.7928  0.1224  0.3717
  148SAPE  H16R16365   0.890   1.904   9.368 -2.2329  0.2213  1.2050
  148SAPE  H16S16366   0.735   1.864   9.307 -0.7577 -1.4611  3.5178
  148SAPE  C21716367   0.872   1.901   9.151  0.1800 -0.3716  0.1331
  148SAPE  H17R16368   0.981   1.911   9.130  0.8573 -2.8329  1.9573
  148SAPE  H17S16369   0.822   1.999   9.165  0.4237 -0.0729 -1.0449
  148SAPE  C21816370   0.801   1.841   9.029 -0.0861 -0.1344 -0.4781
  148SAPE  H18R16371   0.793   1.923   8.955 -1.5971 -1.8817 -2.3711
  148SAPE  H18S16372   0.697   1.805   9.046  0.6764 -1.4728  1.8187
  148SAPE  C21916373   0.879   1.724   8.964 -0.0747  1.0751  0.0297
  148SAPE  H19R16374   0.880   1.640   9.036  1.3860  3.5408  3.1739
  148SAPE  H19S16375   0.985   1.758   8.966 -0.0454  1.0814 -1.1553
  148SAPE  C22016376   0.829   1.685   8.826  0.1421  0.0140 -0.5642
  148SAPE  H20R16377   0.720   1.665   8.822  0.2540 -0.7056 -0.1887
  148SAPE  H20S16378   0.875   1.590   8.789 -1.0198 -0.3892 -1.0057
  148SAPE  H20T16379   0.839   1.768   8.753  0.3991 -0.9517 -1.6558
  148SAPE   C3316380   0.516   2.254   9.915  0.0902 -0.4363 -0.1870
  148SAPE   H3X16381   0.581   2.164   9.911  2.8912  1.4147  0.6487
  148SAPE   H3Y16382   0.590   2.337   9.921 -2.1420  1.8206 -1.8415
  148SAPE   C3416383   0.437   2.278   9.787  0.4597  0.5398  0.2467
  148SAPE   H4X16384   0.393   2.379   9.803  0.0944  0.2554  1.0561
  148SAPE   H4Y16385   0.352   2.207   9.777 -1.7251  3.2693 -2.5934
  148SAPE   C3516386   0.526   2.263   9.661 -0.3723 -0.5196 -0.2114
  148SAPE   H5X16387   0.566   2.161   9.644  1.8819  0.0615  1.2064
  148SAPE   H5Y16388   0.617   2.325   9.678 -0.5662 -0.6182  1.3156
  148SAPE   C3616389   0.461   2.304   9.529  0.5955 -0.5342 -0.0675
  148SAPE   H6X16390   0.443   2.413   9.522 -0.3244 -0.6848 -0.1228
  148SAPE   H6Y16391   0.361   2.258   9.516  0.0035  1.0577 -1.4562
  148SAPE   C3716392   0.549   2.263   9.413 -0.2430 -0.3585 -0.3980
  148SAPE   H7X16393   0.578   2.156   9.428  0.7099 -0.0460  0.0895
  148SAPE   H7Y16394   0.639   2.327   9.408 -0.0719 -0.4514  1.0306
  148SAPE   C3816395   0.473   2.285   9.277 -0.3751  0.5458  0.3238
  148SAPE   H8X16396   0.420   2.383   9.275  0.5723  1.0730  0.5687
  148SAPE   H8Y16397   0.395   2.207   9.272  2.1030 -2.0194 -0.6106
  148SAPE   C3916398   0.571   2.251   9.165  0.0061  0.4055 -0.2568
  148SAPE   H9X16399   0.603   2.147   9.188  1.1259  1.1249  1.6810
  148SAPE   H9Y16400   0.660   2.317   9.173 -0.6802  1.6960 -2.5785
  148SAPE  C31016401   0.516   2.246   9.021 -0.0739  0.9203  1.0086
  148SAPE  H10X16402   0.490   2.345   8.979 -0.0798  0.1586 -0.8417
  148SAPE  H10Y16403   0.420   2.190   9.020  1.2838 -1.5484 -0.3322
  148SAPE  C31116404   0.617   2.179   8.928  0.2230  0.1899  0.1762
  148SAPE  H11X16405   0.622   2.071   8.952  2.5543  0.0441 -0.7190
  148SAPE  H11Y16406   0.724   2.209   8.930 -0.2260  1.8779  0.7107
  148SAPE  C31216407   0.552   2.171   8.786 -1.0351  0.4401 -0.0929
  148SAPE  H12X16408   0.441   2.172   8.788 -1.0660 -0.1534 -0.8823
  148SAPE  H12Y16409   0.581   2.079   8.731 -2.6659  0.3488 -0.8592
  148SAPE  C31316410   0.603   2.282   8.683  0.2238 -0.4083  0.2492
  148SAPE  H13X16411   0.714   2.274   8.688  0.2398 -2.8969 -2.1013
  148SAPE  H13Y16412   0.572   2.384   8.715  1.2435 -0.6210  2.0601
  148SAPE  C31416413   0.554   2.255   8.544 -0.8047  0.4793 -0.1643
  148SAPE  H14X16414   0.443   2.250   8.541 -0.8943  2.3011 -2.3032
  148SAPE  H14Y16415   0.590   2.151   8.523  0.9672  0.1597  3.6795
  148SAPE  C31516416   0.619   2.358   8.444 -0.7844  0.4268  0.3004
  148SAPE  H15X16417   0.728   2.335   8.451 -0.7907 -0.5018 -1.9452
  148SAPE  H15Y16418   0.594   2.459   8.482 -1.7914  0.6357 -0.8523
  148SAPE  C31616419   0.569   2.353   8.302  0.3427  0.5609 -0.6784
  148SAPE  H16X16420   0.552   2.251   8.261 -0.4545 -0.4070  1.8880
  148SAPE  H16Y16421   0.646   2.385   8.228  0.8601 -2.3575 -1.4982
  148SAPE  C31716422   0.445   2.450   8.295  0.1017  0.6129 -0.5664
  148SAPE  H17X16423   0.373   2.411   8.370  0.7808  0.1544 -0.1432
  148SAPE  H17Y16424   0.400   2.418   8.198  1.0985 -0.5854 -0.6565
  148SAPE  C31816425   0.469   2.600   8.311 -1.1252 -0.0420  0.2787
  148SAPE  H18X16426   0.399   2.646   8.384  0.8652  2.6849  0.6245
  148SAPE  H18Y16427   0.456   2.644   8.210  3.2372  0.1456 -0.3657
  148SAPE  H18Z16428   0.572   2.627   8.342 -1.0021 -1.1739  0.9480
  149SAPE     N16429   1.868   6.119  10.653  0.1177  0.2393 -0.5934
  149SAPE   HN116430   1.848   6.221  10.651  1.6903  0.6261  1.0681
  149SAPE   HN216431   1.963   6.114  10.610 -0.1999 -0.3764 -1.2388
  149SAPE   HN316432   1.801   6.062  10.597  1.7194  0.4441 -2.8874
  149SAPE   C1216433   1.877   6.080  10.798  0.3446 -0.2469 -0.5129
  149SAPE  H12A16434   1.926   5.980  10.806 -0.5890 -0.7360 -0.7126
  149SAPE  H12B16435   1.776   6.091  10.843  0.8989 -0.8729  0.9684
  149SAPE   C1116436   1.967   6.182  10.873 -0.4757  0.1441 -0.4798
  149SAPE  H11A16437   2.069   6.139  10.871 -0.5491 -0.2145  1.3463
  149SAPE  H11B16438   1.955   6.180  10.984 -0.2261  3.2735 -0.2919
  149SAPE     P16439   2.062   6.428  10.845 -0.1366 -0.2050 -0.5677
  149SAPE   O1316440   2.054   6.530  10.737 -0.5019  0.4638  0.0144
  149SAPE   O1416441   2.041   6.476  10.981  0.1643 -0.3360  0.0681
  149SAPE   O1216442   1.951   6.314  10.815 -0.0776 -0.7300  0.0924
  149SAPE   O1116443   2.197   6.348  10.827  0.0404  0.3030 -0.3508
  149SAPE    C116444   2.322   6.414  10.846  0.0014  0.0561  0.1361
  149SAPE    HA16445   2.325   6.510  10.791  0.8136  0.9159  1.6314
  149SAPE    HB16446   2.342   6.423  10.955 -2.8846  1.4193  0.6524
  149SAPE    C216447   2.432   6.319  10.796  0.4978  0.2433  0.4370
  149SAPE    HS16448   2.528   6.372  10.819  0.3562  2.0900 -2.6975
  149SAPE   O2116449   2.419   6.291  10.652  0.4799 -0.1193 -0.0313
  149SAPE   C2116450   2.450   6.395  10.576 -0.6152  0.5634  0.0284
  149SAPE   O2216451   2.520   6.490  10.611 -0.1634 -0.0678  0.4485
  149SAPE   C2216452   2.404   6.357  10.435  0.5082 -0.2032 -0.0008
  149SAPE   H2R16453   2.433   6.251  10.416  1.8079  0.7499 -4.3683
  149SAPE   H2S16454   2.295   6.373  10.444  0.5683 -0.4601  1.3379
  149SAPE    C316455   2.442   6.183  10.867 -0.7501  0.0860 -0.2313
  149SAPE    HX16456   2.342   6.135  10.866 -0.3471 -0.8310  1.0191
  149SAPE    HY16457   2.453   6.193  10.977 -2.0301  0.3244 -0.1093
  149SAPE   O3116458   2.548   6.100  10.811 -0.2581  0.4334 -0.1498
  149SAPE   C3116459   2.506   6.015  10.716  0.3214  0.0075 -0.0733
  149SAPE   O3216460   2.390   5.992  10.679 -0.0933  0.0851  0.2502
  149SAPE   C3216461   2.634   5.935  10.668 -0.3338 -0.7044  0.0493
  149SAPE   H2X16462   2.611   5.830  10.697  2.1126 -1.3464 -0.1115
  149SAPE   H2Y16463   2.728   5.966  10.719  1.5542 -2.6716 -2.0341
  149SAPE   C2316464   2.481   6.446  10.335 -0.2159 -0.2092  0.5304
  149SAPE   H3R16465   2.591   6.442  10.349 -0.1115 -2.4676 -0.5590
  149SAPE   H3S16466   2.442   6.547  10.364 -0.3358 -0.3103  0.7280
  149SAPE   C2416467   2.430   6.427  10.189 -0.7829  0.1269 -0.2969
  149SAPE   H4R16468   2.474   6.509  10.128  0.1204 -1.5519 -2.0215
  149SAPE   H4S16469   2.320   6.438  10.175 -0.7685  0.4562 -0.1602
  149SAPE   C2516470   2.475   6.289  10.139 -0.5999 -0.1094  0.2845
  149SAPE   H5R16471   2.455   6.206  10.209  0.1307  0.1778  0.8465
  149SAPE   C2616472   2.531   6.262  10.019  0.2960  0.5188  0.0696
  149SAPE   H6R16473   2.558   6.158   9.995 -0.4362  1.0150 -3.4656
  149SAPE   C2716474   2.579   6.367   9.919  0.1466  0.0091 -0.2213
  149SAPE   H7R16475   2.587   6.469   9.963  2.1746 -0.3532  0.3383
  149SAPE   H7S16476   2.502   6.382   9.840  0.5422  1.3074 -0.3853
  149SAPE   C2816477   2.712   6.335   9.858 -0.4736  0.5897 -0.6996
  149SAPE   H8R16478   2.791   6.298   9.925 -1.0583 -0.5094 -0.5963
  149SAPE   C2916479   2.738   6.356   9.726 -0.0101 -0.0997  0.4154
  149SAPE   H9R16480   2.840   6.327   9.695 -0.3741 -1.7405  0.6339
  149SAPE  C21016481   2.654   6.399   9.607 -0.2241  0.3729 -0.1035
  149SAPE  H10R16482   2.547   6.384   9.632  0.3994 -0.2266  2.5402
  149SAPE  H10S16483   2.673   6.328   9.524 -2.7738 -1.6887  0.9369
  149SAPE  C21116484   2.687   6.544   9.572 -0.1858 -0.3036  0.0974
  149SAPE  H11R16485   2.676   6.613   9.657  0.7134 -2.1221  1.7715
  149SAPE  C21216486   2.718   6.599   9.459 -0.2547  0.4377  0.9591
  149SAPE  H12R16487   2.735   6.707   9.445 -1.3967  0.4441 -0.6192
  149SAPE  C21316488   2.706   6.524   9.326 -0.1917  0.1648  0.3450
  149SAPE  H13R16489   2.632   6.441   9.332 -3.6110  3.0711  1.3267
  149SAPE  H13S16490   2.805   6.489   9.289  0.0575  1.6418 -0.4355
  149SAPE  C21416491   2.643   6.621   9.226 -0.9521  0.4944  0.4425
  149SAPE  H14R16492   2.545   6.659   9.257 -0.6853  0.1881  1.7238
  149SAPE  C21516493   2.707   6.671   9.119 -0.2623 -0.0873  0.2806
  149SAPE  H15R16494   2.654   6.751   9.066  1.2616 -0.1229 -1.3927
  149SAPE  C21616495   2.845   6.629   9.065  0.7772 -1.0240 -0.3128
  149SAPE  H16R16496   2.917   6.619   9.148 -1.0511  1.7425  1.7820
  149SAPE  H16S16497   2.875   6.719   9.007  2.0718  1.3523  3.6705
  149SAPE  C21716498   2.847   6.523   8.953 -0.7085 -0.1445  0.0183
  149SAPE  H17R16499   2.948   6.522   8.907 -0.1484  2.1667  1.0505
  149SAPE  H17S16500   2.769   6.545   8.877  0.4327 -3.8623 -2.4682
  149SAPE  C21816501   2.831   6.387   9.019 -0.1469 -0.0973  0.4784
  149SAPE  H18R16502   2.736   6.377   9.076  0.2594  2.5873  1.7854
  149SAPE  H18S16503   2.903   6.361   9.100 -0.1976 -0.0461  0.5402
  149SAPE  C21916504   2.845   6.271   8.914 -0.1412  0.2090  0.9059
  149SAPE  H19R16505   2.837   6.171   8.961 -1.4287 -0.0728  0.1510
  149SAPE  H19S16506   2.952   6.270   8.885 -0.4807  1.0138 -0.4929
  149SAPE  C22016507   2.765   6.280   8.793  1.0647  0.1859  0.9341
  149SAPE  H20R16508   2.658   6.255   8.814  0.9530  0.4736  0.7088
  149SAPE  H20S16509   2.805   6.209   8.718 -0.3937  0.9074 -0.5863
  149SAPE  H20T16510   2.767   6.378   8.741 -1.1272  0.0749  0.5540
  149SAPE   C3316511   2.665   5.947  10.516 -0.9220 -0.6500 -0.6736
  149SAPE   H3X16512   2.569   5.967  10.462 -0.8287  1.7145 -0.1001
  149SAPE   H3Y16513   2.722   5.863  10.472  1.4723  1.2466 -1.3780
  149SAPE   C3416514   2.753   6.079  10.484 -0.1332  0.7121 -0.3307
  149SAPE   H4X16515   2.847   6.062  10.540 -0.9295 -1.7193  0.3875
  149SAPE   H4Y16516   2.712   6.164  10.543  0.2171  0.1294  0.7767
  149SAPE   C3516517   2.758   6.107  10.336  1.2133  0.3400 -0.2230
  149SAPE   H5X16518   2.661   6.158  10.323  1.9321  2.2854  1.5400
  149SAPE   H5Y16519   2.766   6.018  10.270  1.0524  0.8290 -0.9126
  149SAPE   C3616520   2.858   6.223  10.300 -0.8823 -0.3434  0.5845
  149SAPE   H6X16521   2.863   6.308  10.371 -1.0906  2.8999 -2.9469
  149SAPE   H6Y16522   2.837   6.269  10.201  1.5122  0.2631  0.2982
  149SAPE   C3716523   2.995   6.155  10.294  0.6256 -0.1161  0.2087
  149SAPE   H7X16524   2.979   6.077  10.217 -2.7479 -0.7592  1.3835
  149SAPE   H7Y16525   3.025   6.102  10.387 -0.3985 -1.5567 -0.2444
  149SAPE   C3816526   3.111   6.253  10.258  0.0815  0.9584 -0.1320
  149SAPE   H8X16527   3.208   6.201  10.273 -0.3613  0.2436  0.3416
  149SAPE   H8Y16528   3.106   6.334  10.335 -1.8781  0.0531  0.7575
  149SAPE   C3916529   3.101   6.308  10.114 -0.1680  0.2456  0.1351
  149SAPE   H9X16530   3.179   6.386  10.106  1.1365 -0.9035  1.1640
  149SAPE   H9Y16531   3.007   6.362  10.088 -0.4061 -0.1159  0.2283
  149SAPE  C31016532   3.126   6.202  10.004  0.8480 -0.2449 -0.1301
  149SAPE  H10X16533   3.045   6.126  10.011 -0.3151  1.0523  1.4272
  149SAPE  H10Y16534   3.223   6.155  10.030  1.6462  0.9670 -0.8395
  149SAPE  C31116535   3.129   6.277   9.870 -0.7561  0.2369  0.1036
  149SAPE  H11X16536   3.216   6.345   9.865 -0.6397  0.3354  2.4209
  149SAPE  H11Y16537   3.047   6.351   9.858 -0.2122  0.5685 -1.7835
  149SAPE  C31216538   3.122   6.189   9.744 -0.1822 -0.2794  0.2786
  149SAPE  H12X16539   3.022   6.147   9.721  0.1854 -0.2735 -1.4606
  149SAPE  H12Y16540   3.189   6.100   9.744 -0.5150 -0.5461 -0.9067
  149SAPE  C31316541   3.153   6.262   9.612  0.8465  0.0880 -0.1129
  149SAPE  H13X16542   3.250   6.315   9.624  0.7261  0.2896 -0.0393
  149SAPE  H13Y16543   3.063   6.323   9.590 -1.4354 -2.0917  2.3689
  149SAPE  C31416544   3.181   6.158   9.502  0.2151  0.4526 -0.1013
  149SAPE  H14X16545   3.101   6.082   9.512  0.1738  0.4173 -0.6704
  149SAPE  H14Y16546   3.271   6.097   9.523  0.1250 -0.1311 -1.3075
  149SAPE  C31516547   3.186   6.212   9.360 -0.4351  0.1801  0.8660
  149SAPE  H15X16548   3.266   6.289   9.360 -0.7438  0.5289 -0.8044
  149SAPE  H15Y16549   3.090   6.265   9.339 -1.2070 -0.5932  2.2621
  149SAPE  C31616550   3.195   6.100   9.261 -0.3591 -0.1876 -0.8014
  149SAPE  H16X16551   3.122   6.023   9.293  0.8513 -0.3050  2.0465
  149SAPE  H16Y16552   3.303   6.072   9.259  0.7666  3.5175 -2.3977
  149SAPE  C31716553   3.158   6.158   9.119 -0.1875 -0.8133 -0.2524
  149SAPE  H17X16554   3.223   6.246   9.102 -2.8256  1.9950  2.7138
  149SAPE  H17Y16555   3.053   6.194   9.124 -0.1281 -0.7976  1.1787
  149SAPE  C31816556   3.174   6.055   9.009  0.5932 -0.2774 -0.1300
  149SAPE  H18X16557   3.116   5.965   9.039  0.9638 -0.1883  0.8984
  149SAPE  H18Y16558   3.283   6.039   8.992  0.5122 -1.5707  0.5136
  149SAPE  H18Z16559   3.134   6.094   8.913 -1.3425  4.0822  2.1526
  150SAPE     N16560   3.446   6.275  11.200  0.0559  0.3185 -0.1104
  150SAPE   HN116561   3.465   6.368  11.158 -0.5931  0.0344 -1.0819
  150SAPE   HN216562   3.429   6.299  11.299  0.0006  1.8938 -0.4722
  150SAPE   HN316563   3.535   6.222  11.201  0.6766  1.2399 -1.7116
  150SAPE   C1216564   3.348   6.187  11.128  0.2222  0.2915  0.3245
  150SAPE  H12A16565   3.257   6.247  11.106  1.3481  2.0902  0.3367
  150SAPE  H12B16566   3.318   6.106  11.197  1.4329  0.5903  1.2339
  150SAPE   C1116567   3.392   6.122  10.995  0.4066  1.0231  0.2186
  150SAPE  H11A16568   3.422   6.196  10.919  1.1251 -0.6291 -1.1750
  150SAPE  H11B16569   3.305   6.065  10.955  1.1516 -0.3770  0.5248
  150SAPE     P16570   3.535   5.908  10.956  0.1022 -0.1329  0.2149
  150SAPE   O1316571   3.671   5.925  10.902  0.3372 -0.4813  0.4398
  150SAPE   O1416572   3.508   5.790  11.038 -0.4572 -0.3701  0.0643
  150SAPE   O1216573   3.497   6.036  11.033  0.3611  0.5057 -0.6122
  150SAPE   O1116574   3.430   5.905  10.840  0.2562  0.6273  0.7120
  150SAPE    C116575   3.403   5.790  10.764  0.9367  0.5032  0.1361
  150SAPE    HA16576   3.390   5.700  10.828 -2.1025  0.9665  0.3302
  150SAPE    HB16577   3.299   5.806  10.727  1.3095  2.6830 -0.1246
  150SAPE    C216578   3.492   5.772  10.644 -0.5221 -0.1032  0.0355
  150SAPE    HS16579   3.594   5.803  10.676 -2.2153  2.8302  3.3348
  150SAPE   O2116580   3.443   5.870  10.547 -0.3157 -0.4680  0.7207
  150SAPE   C2116581   3.527   5.893  10.436  0.2312 -0.3492  1.1689
  150SAPE   O2216582   3.633   5.841  10.415 -0.3158 -0.0649  0.1956
  150SAPE   C2216583   3.452   6.000  10.350  0.7643  0.6650  0.3084
  150SAPE   H2R16584   3.348   6.011  10.387  0.1790 -0.4189 -0.9245
  150SAPE   H2S16585   3.507   6.096  10.353 -0.1081  1.5268 -4.3954
  150SAPE    C316586   3.509   5.628  10.590  0.0412  0.4124 -0.1856
  150SAPE    HX16587   3.544   5.565  10.675 -0.5261  1.8810  1.1833
  150SAPE    HY16588   3.589   5.623  10.514 -1.5646 -3.6394 -1.9537
  150SAPE   O3116589   3.387   5.576  10.535  0.4034 -0.3082 -0.0278
  150SAPE   C3116590   3.301   5.524  10.618  0.7136  0.7934  0.2689
  150SAPE   O3216591   3.328   5.485  10.729 -0.2800 -0.1533  0.0150
  150SAPE   C3216592   3.154   5.532  10.569 -1.0304  0.6363 -0.5647
  150SAPE   H2X16593   3.087   5.475  10.636 -1.2822  0.4116 -1.0049
  150SAPE   H2Y16594   3.150   5.482  10.470 -0.0803 -2.3837  0.8339
  150SAPE   C2316595   3.462   5.967  10.197 -0.1924 -0.1644 -0.7841
  150SAPE   H3R16596   3.549   5.905  10.169 -1.1070 -0.7914 -2.3290
  150SAPE   H3S16597   3.471   6.064  10.144  2.1365 -0.5823 -1.2507
  150SAPE   C2416598   3.330   5.889  10.153  1.0224  0.0395  0.7381
  150SAPE   H4R16599   3.309   5.902  10.045  0.2865 -0.8788  0.7580
  150SAPE   H4S16600   3.251   5.945  10.209 -0.8839  0.0310 -1.7984
  150SAPE   C2516601   3.328   5.742  10.194 -0.0064 -0.1313  0.3119
  150SAPE   H5R16602   3.312   5.727  10.302  0.9073 -0.2324  0.4400
  150SAPE   C2616603   3.344   5.633  10.120  0.1151  0.2218  0.2159
  150SAPE   H6R16604   3.332   5.535  10.169 -2.4991  0.5515  0.4095
  150SAPE   C2716605   3.386   5.642   9.974 -0.0229 -0.2694  0.3341
  150SAPE   H7R16606   3.428   5.738   9.937  1.8866 -0.8925  0.7297
  150SAPE   H7S16607   3.296   5.616   9.914  0.5683 -2.6874  0.3762
  150SAPE   C2816608   3.484   5.538   9.947  0.2211  0.3801 -0.0876
  150SAPE   H8R16609   3.538   5.493  10.031 -0.8343 -1.1081 -0.1656
  150SAPE   C2916610   3.509   5.489   9.817  0.0377  0.1900 -0.1633
  150SAPE   H9R16611   3.582   5.407   9.819 -1.9861 -1.6890  1.1579
  150SAPE  C21016612   3.445   5.534   9.691  0.0388  0.3613  0.9186
  150SAPE  H10R16613   3.449   5.645   9.693  2.7100  0.3671  0.2313
  150SAPE  H10S16614   3.340   5.498   9.698  0.8301 -2.6639 -0.9591
  150SAPE  C21116615   3.508   5.489   9.560 -0.5182  0.1614  0.2134
  150SAPE  H11R16616   3.572   5.564   9.513 -0.7298 -0.2078 -0.7008
  150SAPE  C21216617   3.479   5.377   9.483  0.4710  0.4381 -0.1238
  150SAPE  H12R16618   3.523   5.389   9.383 -0.0721 -1.5173 -0.6215
  150SAPE  C21316619   3.373   5.269   9.525  0.2008  0.1684 -0.3078
  150SAPE  H13R16620   3.306   5.319   9.598 -2.9792 -2.4128 -1.2479
  150SAPE  H13S16621   3.423   5.192   9.587 -0.4610  0.9721  1.2903
  150SAPE  C21416622   3.279   5.210   9.424 -0.3240 -0.8587 -0.2121
  150SAPE  H14R16623   3.185   5.264   9.439  0.8017  0.3308  3.9838
  150SAPE  C21516624   3.318   5.123   9.332  0.1721 -0.3087 -0.6264
  150SAPE  H15R16625   3.238   5.078   9.272  0.4092 -3.2080  1.0599
  150SAPE  C21616626   3.453   5.068   9.304  0.3542 -0.1894 -0.6422
  150SAPE  H16R16627   3.527   5.126   9.363 -0.0463 -0.4934  0.1644
  150SAPE  H16S16628   3.495   5.073   9.201 -0.5494 -1.3616 -1.0759
  150SAPE  C21716629   3.460   4.920   9.332 -0.1755 -0.3585 -0.0733
  150SAPE  H17R16630   3.437   4.892   9.437  2.0040  0.6534  0.7540
  150SAPE  H17S16631   3.563   4.880   9.318  0.0100  0.2307 -0.4672
  150SAPE  C21816632   3.369   4.829   9.238  0.3857  0.3893 -1.2645
  150SAPE  H18R16633   3.266   4.869   9.251 -0.5150 -1.8336 -0.9749
  150SAPE  H18S16634   3.357   4.724   9.274 -0.0357 -0.0485 -2.6113
  150SAPE  C21916635   3.397   4.827   9.083 -0.6202 -0.1595  0.0160
  150SAPE  H19R16636   3.368   4.922   9.032 -0.5201 -0.2162 -0.1459
  150SAPE  H19S16637   3.334   4.745   9.043 -0.1605 -2.3704  3.4057
  150SAPE  C22016638   3.540   4.789   9.030 -0.1122 -0.3464 -0.1433
  150SAPE  H20R16639   3.562   4.680   9.026 -0.3376 -0.3753 -0.7021
  150SAPE  H20S16640   3.614   4.840   9.095 -0.7488  0.7363 -0.2598
  150SAPE  H20T16641   3.552   4.827   8.927 -0.0867 -1.1422 -0.4473
  150SAPE   C3316642   3.108   5.681  10.567  0.1108  0.0992 -0.1382
  150SAPE   H3X16643   3.180   5.749  10.518  0.4795 -0.9050 -1.0239
  150SAPE   H3Y16644   3.101   5.707  10.675 -3.1930 -0.4059 -0.1136
  150SAPE   C3416645   2.977   5.711  10.498 -0.3992  0.1986  0.2462
  150SAPE   H4X16646   2.928   5.806  10.529 -1.0377  0.1112 -0.4779
  150SAPE   H4Y16647   2.899   5.637  10.525 -0.7088  0.0783 -0.9336
  150SAPE   C3516648   2.992   5.706  10.341 -0.1836 -0.5444  0.2869
  150SAPE   H5X16649   3.069   5.628  10.323  1.4133  1.0404 -0.0413
  150SAPE   H5Y16650   3.033   5.802  10.305  1.2081 -1.4937 -0.7589
  150SAPE   C3616651   2.867   5.684  10.263 -0.4682 -0.1471  0.4906
  150SAPE   H6X16652   2.796   5.769  10.271 -1.0743 -0.6796  0.9669
  150SAPE   H6Y16653   2.812   5.594  10.299 -0.3409 -1.2192 -1.7876
  150SAPE   C3716654   2.886   5.665  10.108 -0.6133  0.1858 -0.5754
  150SAPE   H7X16655   2.797   5.629  10.053 -0.3965 -2.0630  0.4605
  150SAPE   H7Y16656   2.941   5.569  10.103 -2.4693 -0.9819  0.5900
  150SAPE   C3816657   2.954   5.774  10.025  0.1567 -0.2680  0.1239
  150SAPE   H8X16658   3.053   5.804  10.065  0.2611  0.7437 -0.8257
  150SAPE   H8Y16659   2.888   5.863  10.038 -0.4408 -0.6559 -0.1968
  150SAPE   C3916660   2.968   5.738   9.877  0.1563 -0.0340 -0.0795
  150SAPE   H9X16661   2.867   5.743   9.829 -0.2196  0.1795  0.7148
  150SAPE   H9Y16662   3.015   5.637   9.874  2.0014  0.7104  1.6412
  150SAPE  C31016663   3.054   5.827   9.787  0.3429 -0.3530 -0.3489
  150SAPE  H10X16664   3.136   5.860   9.854  0.3734  2.6540 -1.6910
  150SAPE  H10Y16665   3.007   5.923   9.758 -1.0626 -1.1939 -0.9692
  150SAPE  C31116666   3.102   5.756   9.660  0.1654  0.0544 -0.4468
  150SAPE  H11X16667   3.119   5.649   9.685  1.5266  0.2504 -0.4714
  150SAPE  H11Y16668   3.203   5.796   9.637  0.0647  0.2694 -0.5234
  150SAPE  C31216669   3.007   5.773   9.539 -0.1621  1.2050 -0.2978
  150SAPE  H12X16670   3.004   5.878   9.503 -0.1276  0.8482 -1.3810
  150SAPE  H12Y16671   2.907   5.743   9.577  1.5108 -1.8973  2.1213
  150SAPE  C31316672   3.039   5.672   9.426 -0.6044  0.4602 -0.6077
  150SAPE  H13X16673   2.963   5.696   9.349 -2.9764 -2.2542  0.7170
  150SAPE  H13Y16674   3.025   5.565   9.452  1.1594  0.6635  1.5412
  150SAPE  C31416675   3.172   5.705   9.356 -0.2003  0.1413 -0.6114
  150SAPE  H14X16676   3.261   5.666   9.409  1.1842  1.4052 -1.8789
  150SAPE  H14Y16677   3.196   5.814   9.360  1.2535 -0.1988  0.9191
  150SAPE  C31516678   3.175   5.659   9.212 -0.5787  0.2678  0.2677
  150SAPE  H15X16679   3.078   5.688   9.167 -0.7894 -0.9288 -0.0827
  150SAPE  H15Y16680   3.189   5.549   9.209  1.9247  0.5318 -0.6899
  150SAPE  C31616681   3.294   5.722   9.133  0.3630  0.0326 -0.4409
  150SAPE  H16X16682   3.384   5.675   9.179 -0.7988 -0.3707  1.5211
  150SAPE  H16Y16683   3.285   5.829   9.159 -1.6904 -0.3812  0.7053
  150SAPE  C31716684   3.282   5.727   8.976  0.1274  0.3050  0.0819
  150SAPE  H17X16685   3.194   5.785   8.941  0.7337  0.5579 -1.0644
  150SAPE  H17Y16686   3.280   5.620   8.946  2.7368  0.3415 -0.4301
  150SAPE  C31816687   3.408   5.775   8.911  0.0181  0.5116 -0.4653
  150SAPE  H18X16688   3.394   5.762   8.801 -1.5904  0.6112 -0.2960
  150SAPE  H18Y16689   3.501   5.725   8.944 -0.5741 -0.4738 -0.2384
  150SAPE  H18Z16690   3.405   5.885   8.930 -0.2954  0.1061  2.2431
  151SAPE     N16691   2.228   1.408  10.557 -0.5455  0.8363 -0.1451
  151SAPE   HN116692   2.230   1.354  10.646 -2.8614 -0.5883 -0.8585
  151SAPE   HN216693   2.237   1.330  10.490  0.5597 -0.5695  1.5401
  151SAPE   HN316694   2.315   1.463  10.547 -0.0400  0.1017  0.1339
  151SAPE   C1216695   2.104   1.492  10.546  0.5184 -0.1460  0.7700
  151SAPE  H12A16696   2.058   1.518  10.643 -1.3816  1.2203 -0.4455
  151SAPE  H12B16697   2.024   1.445  10.484  2.6081 -1.3509 -1.1913
  151SAPE   C1116698   2.145   1.625  10.481  0.6357  0.5218  0.2925
  151SAPE  H11A16699   2.179   1.615  10.376 -2.5219 -0.2465 -0.7864
  151SAPE  H11B16700   2.232   1.659  10.540  0.7437 -2.1168  1.8145
  151SAPE     P16701   1.984   1.808  10.377  0.0693  0.3417  0.5674
  151SAPE   O1316702   1.876   1.733  10.314 -0.5676 -0.1150 -0.0061
  151SAPE   O1416703   1.949   1.938  10.437  0.3363 -0.4359  0.2608
  151SAPE   O1216704   2.040   1.722  10.495  0.8008  0.9341  0.0284
  151SAPE   O1116705   2.102   1.828  10.263  0.1164 -0.5460 -0.2843
  151SAPE    C116706   2.092   1.785  10.129 -0.8573  0.2726 -0.0358
  151SAPE    HA16707   2.154   1.693  10.121 -0.9421  0.1267  0.9064
  151SAPE    HB16708   1.987   1.753  10.111 -0.3779 -3.5478  2.7170
  151SAPE    C216709   2.115   1.901  10.033 -0.5500 -0.3644  0.5433
  151SAPE    HS16710   2.209   1.952  10.065 -0.7462  1.4564 -1.5209
  151SAPE   O2116711   2.012   2.003  10.028  0.1795  0.2247  0.0103
  151SAPE   C2116712   2.056   2.131  10.047  0.1566  0.7836 -0.2216
  151SAPE   O2216713   2.170   2.169  10.060  0.1240 -0.0035  0.4874
  151SAPE   C2216714   1.926   2.216  10.049 -0.1397  0.5252  0.1219
  151SAPE   H2R16715   1.864   2.175   9.967  0.0592 -0.0174  0.2336
  151SAPE   H2S16716   1.855   2.196  10.133  1.1833  2.4933  1.7915
  151SAPE    C316717   2.130   1.851   9.883 -0.3979 -0.3129  0.3239
  151SAPE    HX16718   2.225   1.793   9.875 -1.0138 -1.2590 -0.3068
  151SAPE    HY16719   2.138   1.937   9.814 -1.6318  0.9141  1.6380
  151SAPE   O3116720   2.020   1.765   9.848 -0.1877  0.0889 -0.2324
  151SAPE   C3116721   2.049   1.632   9.831  0.5948 -0.0955  0.1298
  151SAPE   O3216722   2.158   1.580   9.842  0.0002 -0.1746 -0.2816
  151SAPE   C3216723   1.921   1.557   9.782 -0.1025  0.3114 -0.5323
  151SAPE   H2X16724   1.844   1.560   9.862  0.4308  3.4559  0.0063
  151SAPE   H2Y16725   1.950   1.452   9.759 -0.9950 -0.0150 -0.2116
  151SAPE   C2316726   1.940   2.375  10.021 -0.2830  0.2366 -0.6034
  151SAPE   H3R16727   2.031   2.406  10.077  0.4533  1.9821 -2.6010
  151SAPE   H3S16728   1.863   2.430  10.079  0.1659 -1.4580  1.7296
  151SAPE   C2416729   1.938   2.419   9.874  0.4084  0.0719  0.8774
  151SAPE   H4R16730   1.923   2.528   9.862  1.8758  0.2634  0.6071
  151SAPE   H4S16731   1.848   2.366   9.836  0.8585  1.3388 -2.2668
  151SAPE   C2516732   2.062   2.359   9.811  0.1024  0.5508  0.5130
  151SAPE   H5R16733   2.157   2.386   9.858  2.3389 -0.9417 -2.7188
  151SAPE   C2616734   2.067   2.264   9.716 -0.4487 -0.7863 -0.2322
  151SAPE   H6R16735   2.164   2.232   9.677  0.6229  0.7977  1.0329
  151SAPE   C2716736   1.952   2.200   9.648  0.6639  0.2811  0.4216
  151SAPE   H7R16737   1.956   2.211   9.537  0.6639 -2.5763  0.0537
  151SAPE   H7S16738   1.848   2.234   9.664 -0.0113 -1.0917 -0.7879
  151SAPE   C2816739   1.962   2.053   9.675 -0.2785 -0.3984 -0.0026
  151SAPE   H8R16740   1.933   2.026   9.777  1.6941 -0.2497  0.6477
  151SAPE   C2916741   1.993   1.951   9.587 -0.6262 -0.6081 -0.1540
  151SAPE   H9R16742   2.008   1.850   9.628  2.6246 -0.2026 -0.1025
  151SAPE  C21016743   2.023   1.975   9.441 -0.2582 -0.2736 -0.5201
  151SAPE  H10R16744   2.112   2.041   9.436 -0.7983  0.3966 -1.6733
  151SAPE  H10S16745   1.941   2.027   9.388  1.3151  1.3225 -1.4859
  151SAPE  C21116746   2.066   1.853   9.367 -0.4213  0.9988  0.1947
  151SAPE  H11R16747   2.088   1.769   9.435 -1.3204  2.1236  1.9416
  151SAPE  C21216748   2.077   1.839   9.236 -0.4618  0.4363 -0.5232
  151SAPE  H12R16749   2.089   1.740   9.189  1.3640  0.4884 -0.2468
  151SAPE  C21316750   2.063   1.943   9.137  0.2791 -0.7123  0.4421
  151SAPE  H13R16751   2.159   1.975   9.090  0.3448 -0.5488  0.6833
  151SAPE  H13S16752   2.018   2.031   9.189  0.9027 -0.0282 -0.1368
  151SAPE  C21416753   1.949   1.916   9.048 -0.0503 -0.1171  0.4865
  151SAPE  H14R16754   1.861   1.870   9.094 -1.2396 -1.1991 -2.6312
  151SAPE  C21516755   1.933   1.962   8.926  0.2712  0.1034  0.2665
  151SAPE  H15R16756   1.842   1.936   8.870 -0.7775  4.4407 -0.4801
  151SAPE  C21616757   2.025   2.052   8.846  0.2528 -0.3619 -0.8239
  151SAPE  H16R16758   2.087   1.992   8.776  0.7213  0.8473 -1.4761
  151SAPE  H16S16759   2.103   2.097   8.911 -0.6591  1.4084 -0.9089
  151SAPE  C21716760   1.962   2.159   8.762  0.1333 -0.0635 -0.2136
  151SAPE  H17R16761   2.043   2.234   8.750  0.7240 -1.0112 -2.6992
  151SAPE  H17S16762   1.873   2.196   8.818  0.9025  0.2737  0.8141
  151SAPE  C21816763   1.927   2.112   8.627 -0.1906 -0.1547 -0.2462
  151SAPE  H18R16764   1.861   2.024   8.635  1.5431 -1.3296  2.4664
  151SAPE  H18S16765   2.022   2.075   8.582 -0.9028  0.6310 -2.5761
  151SAPE  C21916766   1.903   2.227   8.519  0.3111 -0.6446 -0.1431
  151SAPE  H19R16767   1.976   2.305   8.551 -1.5932  1.1237  0.1377
  151SAPE  H19S16768   1.801   2.270   8.528 -1.0244 -3.9490  2.6314
  151SAPE  C22016769   1.931   2.162   8.378 -0.2176 -0.3485  0.0338
  151SAPE  H20R16770   2.018   2.094   8.385 -0.4784 -0.9167 -1.7879
  151SAPE  H20S16771   1.956   2.248   8.312 -0.5347  0.5301  1.0251
  151SAPE  H20T16772   1.841   2.111   8.339 -1.2451  2.3204 -1.4088
  151SAPE   C3316773   1.855   1.611   9.657  0.3774  0.6118 -0.7321
  151SAPE   H3X16774   1.848   1.721   9.652 -1.1448  0.7078  1.7392
  151SAPE   H3Y16775   1.751   1.572   9.655  1.0987 -1.4568 -1.6926
  151SAPE   C3416776   1.917   1.547   9.535 -0.2718 -0.2082  0.0485
  151SAPE   H4X16777   1.938   1.438   9.542  1.2515 -0.2380 -3.2207
  151SAPE   H4Y16778   2.018   1.585   9.510 -0.5381 -0.5695 -1.6832
  151SAPE   C3516779   1.824   1.556   9.412  0.7055 -0.5982  0.2253
  151SAPE   H5X16780   1.820   1.665   9.389  0.8522 -0.5247  0.5405
  151SAPE   H5Y16781   1.732   1.505   9.448 -0.0891 -0.2236 -1.2240
  151SAPE   C3616782   1.863   1.476   9.292  0.3270 -0.1700  0.5922
  151SAPE   H6X16783   1.858   1.366   9.310  0.7257 -0.4856 -1.0578
  151SAPE   H6Y16784   1.968   1.496   9.262  0.0480 -0.6886 -0.7652
  151SAPE   C3716785   1.761   1.503   9.179 -0.4626 -0.5443 -0.2848
  151SAPE   H7X16786   1.761   1.607   9.141  0.9397 -0.5498 -0.3544
  151SAPE   H7Y16787   1.665   1.486   9.231 -2.8222  2.2615 -3.3316
  151SAPE   C3816788   1.784   1.422   9.054  0.3184  0.1007 -0.1066
  151SAPE   H8X16789   1.705   1.420   8.976 -0.1608 -1.3293  0.3902
  151SAPE   H8Y16790   1.792   1.317   9.088  2.2259  0.2473 -0.0059
  151SAPE   C3916791   1.905   1.439   8.966 -0.3850 -0.6276 -0.3385
  151SAPE   H9X16792   1.920   1.342   8.913 -0.1327  0.2357 -1.9033
  151SAPE   H9Y16793   1.991   1.454   9.035  0.8168 -0.8944 -1.7194
  151SAPE  C31016794   1.909   1.564   8.870  0.3355 -0.1717 -0.1623
  151SAPE  H10X16795   1.999   1.580   8.806  0.6286 -0.0911  0.2713
  151SAPE  H10Y16796   1.896   1.646   8.943 -0.1320 -0.2960 -0.1053
  151SAPE  C31116797   1.783   1.559   8.775  0.7734  0.0993  0.4806
  151SAPE  H11X16798   1.687   1.578   8.827 -0.2440  0.6149 -1.4992
  151SAPE  H11Y16799   1.765   1.462   8.724 -1.2443  0.1618  0.9804
  151SAPE  C31216800   1.783   1.670   8.669 -0.6940 -0.1428  0.3160
  151SAPE  H12X16801   1.817   1.763   8.719  1.9951  0.4044 -2.2463
  151SAPE  H12Y16802   1.682   1.688   8.625 -0.3060 -2.1112 -1.5236
  151SAPE  C31316803   1.879   1.631   8.554  0.2277 -0.3178  0.2500
  151SAPE  H13X16804   1.846   1.529   8.524  3.9523 -1.5652 -0.1164
  151SAPE  H13Y16805   1.985   1.634   8.588  0.1429  2.0073  0.4780
  151SAPE  C31416806   1.847   1.713   8.435 -0.2426  0.1996  0.3431
  151SAPE  H14X16807   1.856   1.819   8.469  1.3309 -0.6562  2.8133
  151SAPE  H14Y16808   1.744   1.692   8.401 -0.6758 -0.8045  2.1411
  151SAPE  C31516809   1.942   1.695   8.307 -0.2736  1.3608 -0.3511
  151SAPE  H15X16810   2.052   1.684   8.316 -0.5677 -2.2015  0.6122
  151SAPE  H15Y16811   1.920   1.774   8.233  1.8362  0.7349 -1.7556
  151SAPE  C31616812   1.906   1.567   8.224  0.1340 -0.2142  0.1929
  151SAPE  H16X16813   1.797   1.583   8.208 -0.0641 -0.4822  1.1768
  151SAPE  H16Y16814   1.922   1.480   8.292 -1.3962  0.7458  1.8844
  151SAPE  C31716815   1.983   1.552   8.090  0.2149  0.3425 -0.2992
  151SAPE  H17X16816   2.085   1.524   8.126 -0.2342 -1.4949 -0.3634
  151SAPE  H17Y16817   1.992   1.653   8.043  2.3263  1.0867  1.4905
  151SAPE  C31816818   1.918   1.443   8.004 -0.3288 -0.2568 -0.3101
  151SAPE  H18X16819   1.862   1.368   8.063  1.3729 -0.0685  1.6881
  151SAPE  H18Y16820   1.999   1.386   7.954 -0.1275  1.2392 -1.7676
  151SAPE  H18Z16821   1.864   1.495   7.923  1.4534  1.4530 -0.4689
  152SAPE     N16822   4.964   1.806  10.753 -1.6244 -0.0552  0.4204
  152SAPE   HN116823   5.033   1.728  10.762 -2.4366 -0.6363  2.0280
  152SAPE   HN216824   5.026   1.885  10.779 -2.6168  0.3818  1.5236
  152SAPE   HN316825   4.899   1.794  10.833  0.1781 -0.4214  1.8928
  152SAPE   C1216826   4.898   1.817  10.615 -0.6118  0.0308 -0.3650
  152SAPE  H12A16827   4.948   1.907  10.572  0.6158  0.2020  1.2977
  152SAPE  H12B16828   4.791   1.844  10.633 -0.5812 -1.2581  2.1753
  152SAPE   C1116829   4.916   1.688  10.536 -0.3535  0.5715  0.3485
  152SAPE  H11A16830   5.025   1.674  10.522 -0.2582  1.4807  0.0928
  152SAPE  H11B16831   4.863   1.709  10.441 -0.5384  1.2106  0.5873
  152SAPE     P16832   4.697   1.558  10.583 -0.3242 -0.3468  0.3122
  152SAPE   O1316833   4.644   1.449  10.667  0.3120 -0.0097 -0.1861
  152SAPE   O1416834   4.633   1.693  10.588  0.3006  0.0120 -0.2524
  152SAPE   O1216835   4.858   1.574  10.605 -0.2181  0.6086 -0.0612
  152SAPE   O1116836   4.694   1.507  10.434 -0.6744  0.0930  0.2786
  152SAPE    C116837   4.745   1.378  10.409 -0.3277 -0.1956 -0.0707
  152SAPE    HA16838   4.854   1.370  10.393 -0.5291  1.0758 -2.7208
  152SAPE    HB16839   4.721   1.302  10.486  0.4964 -0.7778 -0.3732
  152SAPE    C216840   4.673   1.318  10.286 -0.0884  0.4593  0.1010
  152SAPE    HS16841   4.704   1.212  10.279 -1.8884 -0.0196 -1.4234
  152SAPE   O2116842   4.707   1.397  10.164  0.2987 -0.6828  0.2669
  152SAPE   C2116843   4.833   1.375  10.133 -0.1500  0.1586  1.1292
  152SAPE   O2216844   4.911   1.296  10.179  0.0098  0.2064 -0.1585
  152SAPE   C2216845   4.883   1.471  10.021 -0.5229  0.2459  0.0759
  152SAPE   H2R16846   4.798   1.483   9.951  1.0860  0.8521 -1.8695
  152SAPE   H2S16847   4.924   1.566  10.062  0.5269  2.1525 -4.7008
  152SAPE    C316848   4.517   1.307  10.295  0.9070 -0.0823  0.1599
  152SAPE    HX16849   4.464   1.403  10.312 -2.4890 -2.0880  2.0194
  152SAPE    HY16850   4.486   1.244  10.382  0.3177 -0.8291 -0.5744
  152SAPE   O3116851   4.457   1.235  10.187  0.3539 -0.3461  0.0226
  152SAPE   C3116852   4.414   1.317  10.093  0.0579 -0.5365  0.1607
  152SAPE   O3216853   4.401   1.437  10.089 -0.5636 -0.1081  0.2769
  152SAPE   C3216854   4.392   1.233   9.967 -1.1727 -0.2677 -0.7052
  152SAPE   H2X16855   4.289   1.251   9.930 -0.9202  0.1061 -1.2409
  152SAPE   H2Y16856   4.408   1.127   9.999  0.0901  0.4369  1.1694
  152SAPE   C2316857   5.005   1.410   9.939 -0.0034 -0.2291 -0.6012
  152SAPE   H3R16858   5.085   1.398  10.015 -0.8357  1.1425  0.5421
  152SAPE   H3S16859   5.044   1.495   9.879 -1.6946  0.3472 -0.9580
  152SAPE   C2416860   4.972   1.286   9.859  0.0136 -0.0395 -0.4907
  152SAPE   H4R16861   4.865   1.288   9.831 -0.1409  0.1310  0.0939
  152SAPE   H4S16862   4.991   1.201   9.928  3.1089  0.8888 -0.0184
  152SAPE   C2516863   5.077   1.268   9.746  0.6616  0.1908 -0.2147
  152SAPE   H5R16864   5.178   1.248   9.786  1.3627 -0.8869 -2.3175
  152SAPE   C2616865   5.067   1.295   9.612  0.8690  0.4929  0.5768
  152SAPE   H6R16866   5.161   1.294   9.555 -0.3029  0.4025 -1.4446
  152SAPE   C2716867   4.949   1.343   9.529 -0.1506  0.3364  0.0751
  152SAPE   H7R16868   4.955   1.453   9.521  0.7953  0.2895 -0.0426
  152SAPE   H7S16869   4.851   1.326   9.578 -0.2377  0.9373  0.1124
  152SAPE   C2816870   4.916   1.286   9.393  0.4338  0.3404  0.3147
  152SAPE   H8R16871   4.820   1.232   9.389  0.8488 -0.7400  2.7926
  152SAPE   C2916872   4.976   1.309   9.279 -0.3764 -0.0114 -0.2888
  152SAPE   H9R16873   4.934   1.262   9.189 -3.0515  0.5647  0.5641
  152SAPE  C21016874   5.105   1.383   9.262  0.6061  0.9852 -0.5725
  152SAPE  H10R16875   5.168   1.359   9.350 -0.0514  2.4683  0.3392
  152SAPE  H10S16876   5.080   1.491   9.269  1.2253  1.0447  1.0571
  152SAPE  C21116877   5.170   1.333   9.133  0.8195 -0.8317  0.1235
  152SAPE  H11R16878   5.231   1.242   9.140  1.3077 -0.4405  1.2049
  152SAPE  C21216879   5.185   1.408   9.026  0.4120  0.2922  0.1511
  152SAPE  H12R16880   5.247   1.363   8.947 -0.7536 -2.0026  0.4759
  152SAPE  C21316881   5.145   1.545   8.988 -0.1706 -0.0218  0.9002
  152SAPE  H13R16882   5.193   1.618   9.057 -0.6231  0.9030  0.2562
  152SAPE  H13S16883   5.037   1.555   9.009 -0.6981 -1.4614 -0.8997
  152SAPE  C21416884   5.176   1.591   8.850 -0.3221 -0.1241 -0.2102
  152SAPE  H14R16885   5.276   1.565   8.811 -0.7166 -1.9562 -0.0855
  152SAPE  C21516886   5.097   1.660   8.770 -1.2085  0.7738  0.9599
  152SAPE  H15R16887   5.138   1.672   8.669 -1.0604  1.4260  1.0953
  152SAPE  C21616888   4.960   1.717   8.798 -0.0363 -0.0171  0.9263
  152SAPE  H16R16889   4.959   1.828   8.793 -0.5151 -0.0576 -0.2697
  152SAPE  H16S16890   4.919   1.678   8.894 -0.2712 -0.9064  0.4745
  152SAPE  C21716891   4.855   1.676   8.692 -0.7337 -0.3138 -0.5319
  152SAPE  H17R16892   4.840   1.566   8.699 -0.1264 -0.2844  2.0604
  152SAPE  H17S16893   4.877   1.714   8.590  0.2806  1.1259  0.1868
  152SAPE  C21816894   4.723   1.733   8.741  0.1243 -0.9981  0.0653
  152SAPE  H18R16895   4.727   1.844   8.743 -1.0871 -0.9485  0.6281
  152SAPE  H18S16896   4.719   1.697   8.846 -2.7247 -2.2273 -0.3596
  152SAPE  C21916897   4.612   1.671   8.657  0.3701 -0.3442 -0.0779
  152SAPE  H19R16898   4.654   1.647   8.557  1.3416  1.3936 -0.1328
  152SAPE  H19S16899   4.542   1.752   8.628 -0.6817 -2.0616 -2.7385
  152SAPE  C22016900   4.518   1.571   8.718  0.1025 -0.5166 -0.0022
  152SAPE  H20R16901   4.428   1.556   8.655 -0.7940  2.8406  0.3013
  152SAPE  H20S16902   4.477   1.611   8.813  0.6479  0.0755 -0.0116
  152SAPE  H20T16903   4.579   1.478   8.726 -1.1591 -1.4135 -0.5450
  152SAPE   C3316904   4.484   1.282   9.845 -0.1834 -0.4406 -0.1676
  152SAPE   H3X16905   4.476   1.204   9.766  0.3465 -0.9279  0.2506
  152SAPE   H3Y16906   4.584   1.292   9.892 -0.6034 -0.8133  0.8312
  152SAPE   C3416907   4.436   1.414   9.780  0.4145 -0.2248 -0.3270
  152SAPE   H4X16908   4.427   1.496   9.855  0.7093  1.2408 -1.8295
  152SAPE   H4Y16909   4.329   1.398   9.754  0.1343 -0.8050  1.1300
  152SAPE   C3516910   4.526   1.458   9.667  0.7003  0.6189 -0.6126
  152SAPE   H5X16911   4.629   1.445   9.704  1.1408 -0.1677 -2.0603
  152SAPE   H5Y16912   4.521   1.568   9.652  1.6767  0.7226 -0.2448
  152SAPE   C3616913   4.510   1.380   9.536  0.4175 -0.4432 -0.3098
  152SAPE   H6X16914   4.404   1.372   9.504 -0.1162  0.7758  1.0240
  152SAPE   H6Y16915   4.536   1.275   9.561  0.6687 -0.3129 -0.0191
  152SAPE   C3716916   4.582   1.440   9.408  0.4460 -0.6613 -0.3534
  152SAPE   H7X16917   4.687   1.429   9.443  0.3838 -2.3771 -0.6595
  152SAPE   H7Y16918   4.561   1.548   9.388  1.6100 -0.1544  0.9643
  152SAPE   C3816919   4.587   1.356   9.285 -0.3276 -0.3492 -0.1117
  152SAPE   H8X16920   4.612   1.252   9.313 -0.3480 -0.1453  0.6926
  152SAPE   H8Y16921   4.680   1.390   9.236 -1.0976  2.1102 -0.0189
  152SAPE   C3916922   4.480   1.370   9.186  0.0929  0.4027  0.2577
  152SAPE   H9X16923   4.413   1.457   9.206 -1.3951 -0.9705  1.5749
  152SAPE   H9Y16924   4.416   1.280   9.198 -0.4805  0.5157 -1.5812
  152SAPE  C31016925   4.528   1.358   9.037 -0.9970 -0.2997 -0.9833
  152SAPE  H10X16926   4.592   1.447   9.018 -2.4619  0.6453 -1.6812
  152SAPE  H10Y16927   4.437   1.360   8.973 -0.0034 -0.1381 -2.4267
  152SAPE  C31116928   4.597   1.227   9.004 -0.2895 -0.1077 -0.3737
  152SAPE  H11X16929   4.511   1.160   9.025 -1.4762  1.7727  1.1068
  152SAPE  H11Y16930   4.672   1.215   9.086  0.7194 -0.2896 -1.3047
  152SAPE  C31216931   4.665   1.216   8.871  0.5530 -0.1805 -0.4991
  152SAPE  H12X16932   4.593   1.263   8.801  0.8875  0.1388 -0.6366
  152SAPE  H12Y16933   4.676   1.109   8.842  1.2288 -0.7517  1.6451
  152SAPE  C31316934   4.790   1.295   8.862  0.0927  0.1018 -0.5546
  152SAPE  H13X16935   4.864   1.259   8.937 -1.8031 -2.8985  0.0316
  152SAPE  H13Y16936   4.762   1.398   8.895 -0.7031 -0.6008  1.1080
  152SAPE  C31416937   4.862   1.299   8.728 -0.5153 -0.6992 -0.0179
  152SAPE  H14X16938   4.952   1.363   8.741 -1.9081  1.5159 -0.7781
  152SAPE  H14Y16939   4.805   1.343   8.644  0.0950 -1.1258 -0.6668
  152SAPE  C31516940   4.904   1.167   8.684  0.1408  0.1936 -0.2840
  152SAPE  H15X16941   4.813   1.106   8.662 -0.0061 -0.1191  1.0965
  152SAPE  H15Y16942   4.951   1.110   8.767  0.7063  0.7085 -0.2475
  152SAPE  C31616943   4.992   1.167   8.562  0.1582 -0.2991  0.0012
  152SAPE  H16X16944   5.091   1.213   8.581 -0.2603  0.9108 -0.6112
  152SAPE  H16Y16945   4.952   1.232   8.481  1.9121  1.0176  0.1464
  152SAPE  C31716946   5.007   1.017   8.512 -0.0042 -0.3678 -0.2277
  152SAPE  H17X16947   4.901   0.988   8.493  0.4733 -2.2207 -0.2561
  152SAPE  H17Y16948   5.049   0.952   8.591 -2.2314 -1.3317  0.2421
  152SAPE  C31816949   5.079   0.998   8.376  0.0651  0.6413 -0.0585
  152SAPE  H18X16950   5.081   0.890   8.351  1.2303  0.4144  0.9493
  152SAPE  H18Y16951   5.183   1.035   8.368  0.6996 -1.1511 -0.7021
  152SAPE  H18Z16952   5.029   1.047   8.290 -0.5645  1.1994  0.6172
  153SAPE     N16953   2.458   2.096  10.475 -0.1778 -0.0945 -0.4653
  153SAPE   HN116954   2.438   2.139  10.568 -1.0878 -1.3860 -0.0323
  153SAPE   HN216955   2.395   2.014  10.466  0.2899 -0.4261 -0.7850
  153SAPE   HN316956   2.554   2.056  10.487 -0.3752 -1.0143 -1.7683
  153SAPE   C1216957   2.448   2.200  10.364  0.4283  1.0011 -0.0905
  153SAPE  H12A16958   2.340   2.203  10.339  0.2692 -2.9815 -0.5220
  153SAPE  H12B16959   2.494   2.144  10.279 -1.3640  0.2213 -0.5987
  153SAPE   C1116960   2.501   2.340  10.411 -0.3669  0.1683 -0.4484
  153SAPE  H11A16961   2.421   2.394  10.466 -1.5169 -0.2371 -1.6503
  153SAPE  H11B16962   2.543   2.396  10.325 -0.8247 -2.0831 -2.2360
  153SAPE     P16963   2.666   2.440  10.589  0.2946  0.0817 -0.0845
  153SAPE   O1316964   2.560   2.457  10.688 -0.1807 -0.1061 -0.3138
  153SAPE   O1416965   2.809   2.412  10.632  0.0864 -0.5148 -0.0386
  153SAPE   O1216966   2.616   2.317  10.496  0.0595  0.5293  0.0280
  153SAPE   O1116967   2.660   2.554  10.487  0.5557 -0.5619 -0.4649
  153SAPE    C116968   2.768   2.569  10.389 -0.0467 -0.1311 -0.2732
  153SAPE    HA16969   2.866   2.576  10.441 -0.1013 -2.0705  0.1513
  153SAPE    HB16970   2.782   2.482  10.322 -0.2766 -0.1091 -0.3497
  153SAPE    C216971   2.747   2.705  10.314 -0.4644  0.3627 -0.2900
  153SAPE    HS16972   2.721   2.780  10.392 -1.4556 -1.9807  1.7999
  153SAPE   O2116973   2.624   2.693  10.244  0.3540 -0.1663  0.3382
  153SAPE   C2116974   2.572   2.801  10.196 -0.3921 -0.0265 -0.5024
  153SAPE   O2216975   2.617   2.912  10.209  0.1500 -0.1460 -0.1600
  153SAPE   C2216976   2.450   2.774  10.116  0.2593  0.1668  0.0696
  153SAPE   H2R16977   2.393   2.691  10.163 -1.6156  2.1809  1.5868
  153SAPE   H2S16978   2.380   2.858  10.134 -1.3739 -1.3357  1.0297
  153SAPE    C316979   2.869   2.745  10.229 -0.2282  0.2046  0.1964
  153SAPE    HX16980   2.953   2.749  10.301 -0.1128 -2.1393  0.2449
  153SAPE    HY16981   2.857   2.846  10.183  0.4243  0.1490 -0.1025
  153SAPE   O3116982   2.881   2.651  10.122  0.0910 -0.1045 -0.3359
  153SAPE   C3116983   2.999   2.598  10.100  0.6960  0.2283  0.0230
  153SAPE   O3216984   3.091   2.603  10.181 -0.0030 -0.0341 -1.3724
  153SAPE   C3216985   2.996   2.525   9.965 -0.9280 -0.2954 -0.0064
  153SAPE   H2X16986   2.938   2.577   9.886 -1.9437 -2.2570 -0.6354
  153SAPE   H2Y16987   2.940   2.430   9.983  0.4542 -1.4906 -1.6320
  153SAPE   C2316988   2.465   2.747   9.963  0.7637 -0.2321 -0.7602
  153SAPE   H3R16989   2.370   2.713   9.916  0.9151 -2.6360  0.5034
  153SAPE   H3S16990   2.538   2.664   9.948  0.8356 -0.6346  1.5338
  153SAPE   C2416991   2.526   2.873   9.893 -0.4714  0.5537 -0.8327
  153SAPE   H4R16992   2.577   2.831   9.804  0.5135  1.0582 -0.5218
  153SAPE   H4S16993   2.608   2.915   9.955 -1.5942  0.7777  0.5638
  153SAPE   C2516994   2.430   2.979   9.858  0.0243 -0.5539 -0.3534
  153SAPE   H5R16995   2.345   2.993   9.928  0.8871  2.1772  0.2906
  153SAPE   C2616996   2.419   3.041   9.736 -0.2133 -0.0524  0.4070
  153SAPE   H6R16997   2.328   3.100   9.719 -1.4720 -1.8844  0.6104
  153SAPE   C2716998   2.518   3.020   9.621  0.0574  0.1374 -0.2029
  153SAPE   H7R16999   2.505   2.914   9.593 -1.7325  0.7081 -1.7005
  153SAPE   H7S17000   2.621   3.018   9.664  0.7495  1.9193 -1.6384
  153SAPE   C2817001   2.498   3.103   9.495  0.3325  0.3584 -0.0411
  153SAPE   H8R17002   2.430   3.187   9.514  1.8870  1.2641  1.8055
  153SAPE   C2917003   2.538   3.062   9.376 -0.0013 -0.5367 -0.1732
  153SAPE   H9R17004   2.523   3.129   9.290  2.3771  1.3261  0.7369
  153SAPE  C21017005   2.610   2.939   9.334 -0.1295  0.0594  0.2657
  153SAPE  H10R17006   2.644   2.893   9.430 -1.9233  0.6747  1.2343
  153SAPE  H10S17007   2.701   2.960   9.273  0.3457 -0.7945  0.6587
  153SAPE  C21117008   2.521   2.847   9.254 -0.4038  0.9264 -0.1433
  153SAPE  H11R17009   2.417   2.838   9.290 -1.4213  0.9843 -2.8151
  153SAPE  C21217010   2.562   2.777   9.147 -0.4367 -0.4812  0.5296
  153SAPE  H12R17011   2.495   2.709   9.092 -1.5971  1.6679 -0.8452
  153SAPE  C21317012   2.697   2.765   9.080  0.5958  0.2819 -0.3904
  153SAPE  H13R17013   2.720   2.658   9.059  2.9125  0.5783  0.3911
  153SAPE  H13S17014   2.774   2.808   9.147  1.2317  0.1689 -1.0424
  153SAPE  C21417015   2.686   2.850   8.950  0.4795 -0.2104  0.5177
  153SAPE  H14R17016   2.725   2.952   8.969 -0.6929  0.0663  1.5341
  153SAPE  C21517017   2.640   2.815   8.826 -0.5751 -0.3242 -0.0040
  153SAPE  H15R17018   2.660   2.880   8.740 -0.0935 -0.7191 -0.2001
  153SAPE  C21617019   2.599   2.673   8.794 -0.6374  0.6097  0.5472
  153SAPE  H16R17020   2.491   2.680   8.770 -1.2978  2.1955  3.4760
  153SAPE  H16S17021   2.603   2.608   8.884 -0.7761 -2.8881 -1.7797
  153SAPE  C21717022   2.671   2.597   8.679  0.3608  0.5866 -0.4178
  153SAPE  H17R17023   2.629   2.496   8.663  0.6004  0.2975  0.6617
  153SAPE  H17S17024   2.777   2.580   8.711  0.6492  1.1768 -1.0384
  153SAPE  C21817025   2.653   2.665   8.542 -0.2902  0.3189  0.1991
  153SAPE  H18R17026   2.698   2.766   8.541  1.5443 -0.4355  0.9649
  153SAPE  H18S17027   2.544   2.685   8.542 -0.3003  0.5745  2.3424
  153SAPE  C21917028   2.726   2.605   8.414 -0.0932  0.5421 -1.1006
  153SAPE  H19R17029   2.674   2.508   8.400 -1.0499  0.8318  0.2257
  153SAPE  H19S17030   2.834   2.582   8.424 -0.8850 -3.9170 -1.0135
  153SAPE  C22017031   2.700   2.686   8.290  0.2239 -0.3174 -0.1811
  153SAPE  H20R17032   2.746   2.639   8.201 -0.0814  1.9010 -1.5888
  153SAPE  H20S17033   2.740   2.789   8.291 -1.2422  0.2977 -0.8668
  153SAPE  H20T17034   2.593   2.690   8.259 -0.5322  0.3214  2.2452
  153SAPE   C3317035   3.136   2.478   9.921  0.4855 -0.4227  0.1849
  153SAPE   H3X17036   3.179   2.419  10.005 -1.3422 -2.2557 -0.0912
  153SAPE   H3Y17037   3.196   2.571   9.911  0.8330 -0.6011  0.5669
  153SAPE   C3417038   3.143   2.413   9.783 -0.6011  0.5063  0.2641
  153SAPE   H4X17039   3.093   2.477   9.706 -0.3983  1.5930  1.0074
  153SAPE   H4Y17040   3.090   2.317   9.799  1.2353 -0.3201  1.6986
  153SAPE   C3517041   3.296   2.395   9.752  0.8559  0.3930 -0.2494
  153SAPE   H5X17042   3.323   2.292   9.784 -1.7358  0.3782  2.3072
  153SAPE   H5Y17043   3.345   2.478   9.808  0.9185 -1.5713  2.8408
  153SAPE   C3617044   3.310   2.419   9.600 -0.6569 -0.1260  0.9965
  153SAPE   H6X17045   3.417   2.444   9.581 -0.6128  0.2283  1.7073
  153SAPE   H6Y17046   3.244   2.500   9.562 -0.3130 -0.2175  0.1705
  153SAPE   C3717047   3.282   2.296   9.512 -0.3486 -0.6394  0.1114
  153SAPE   H7X17048   3.175   2.271   9.527 -0.6027  1.1245  1.6689
  153SAPE   H7Y17049   3.333   2.210   9.559  0.4796  0.0143  0.4374
  153SAPE   C3817050   3.304   2.307   9.360 -0.2482 -0.5614  0.5150
  153SAPE   H8X17051   3.308   2.207   9.312  3.0009 -1.1386  1.7297
  153SAPE   H8Y17052   3.401   2.357   9.337 -1.2276  1.3271  0.3392
  153SAPE   C3917053   3.199   2.383   9.280 -0.1805 -0.3592  0.1094
  153SAPE   H9X17054   3.250   2.416   9.187  2.3735  2.0173  2.1792
  153SAPE   H9Y17055   3.187   2.481   9.331  2.9756  0.1282  0.1135
  153SAPE  C31017056   3.067   2.307   9.256  0.7219 -0.4169  0.5403
  153SAPE  H10X17057   3.015   2.291   9.353  0.1479 -1.4198  0.0865
  153SAPE  H10Y17058   3.094   2.211   9.207 -0.8954 -1.1172  0.9714
  153SAPE  C31117059   2.971   2.393   9.157 -0.1247 -0.0178 -0.5431
  153SAPE  H11X17060   3.009   2.393   9.052 -0.4023  0.2962 -0.6457
  153SAPE  H11Y17061   2.962   2.497   9.195  3.5758  0.9411 -1.8497
  153SAPE  C31217062   2.831   2.321   9.148  0.1373 -0.1077  0.7074
  153SAPE  H12X17063   2.781   2.353   9.242 -0.9353  0.6865 -0.1049
  153SAPE  H12Y17064   2.840   2.211   9.162 -0.2984 -0.2317  0.0908
  153SAPE  C31317065   2.732   2.348   9.035 -0.6915 -1.0795  0.4079
  153SAPE  H13X17066   2.748   2.283   8.947 -0.3191 -0.2243 -0.1665
  153SAPE  H13Y17067   2.752   2.447   8.989 -0.8857 -0.7668  0.9915
  153SAPE  C31417068   2.590   2.339   9.082  0.2420  0.1069  0.0985
  153SAPE  H14X17069   2.537   2.383   8.994 -0.0920  1.8153  1.1073
  153SAPE  H14Y17070   2.580   2.409   9.167 -0.1793 -2.4895  2.3203
  153SAPE  C31517071   2.543   2.206   9.135 -0.2554 -0.3799  0.3775
  153SAPE  H15X17072   2.625   2.162   9.196 -0.8276  0.7371  2.0368
  153SAPE  H15Y17073   2.520   2.139   9.050 -0.3729 -0.9114  0.8251
  153SAPE  C31617074   2.414   2.207   9.214  0.5884  0.0806 -0.3285
  153SAPE  H16X17075   2.327   2.251   9.161 -2.3803 -0.8592  3.3892
  153SAPE  H16Y17076   2.434   2.260   9.310 -0.1039  0.6396 -0.4852
  153SAPE  C31717077   2.370   2.065   9.252  0.0845  0.1844  0.0608
  153SAPE  H17X17078   2.363   1.997   9.165 -0.5200  2.6074 -1.8682
  153SAPE  H17Y17079   2.268   2.073   9.295  1.4050  3.0753  3.1199
  153SAPE  C31817080   2.461   2.005   9.363  0.2627 -0.1813  0.3531
  153SAPE  H18X17081   2.420   1.909   9.400  1.3580 -0.7204  0.1777
  153SAPE  H18Y17082   2.468   2.077   9.447 -0.8902  0.1167  0.2234
  153SAPE  H18Z17083   2.563   1.994   9.322 -0.5245  1.3504 -2.3189
  154SAPE     N17084   4.253   3.209  10.764 -0.5066  0.3975  0.1895
  154SAPE   HN117085   4.283   3.113  10.788  0.2726  1.1712  2.6428
  154SAPE   HN217086   4.233   3.256  10.856 -0.8320  4.2929 -1.6445
  154SAPE   HN317087   4.166   3.203  10.707 -0.5242 -0.6164  0.3188
  154SAPE   C1217088   4.361   3.276  10.674 -0.1844 -0.7696 -0.4876
  154SAPE  H12A17089   4.361   3.213  10.583 -0.3883 -1.5833  0.0622
  154SAPE  H12B17090   4.452   3.279  10.737 -1.4645  2.8680  1.4868
  154SAPE   C1117091   4.314   3.412  10.632  0.8631 -0.1745  0.1918
  154SAPE  H11A17092   4.239   3.393  10.552  1.5339  1.7017 -0.9423
  154SAPE  H11B17093   4.392   3.470  10.578  0.7597 -0.0131  0.2167
  154SAPE     P17094   4.198   3.625  10.739 -0.1598  0.0196  0.1619
  154SAPE   O1317095   4.069   3.620  10.813 -0.5434 -0.3556  0.2443
  154SAPE   O1417096   4.300   3.722  10.786 -0.3435  0.0406 -0.3137
  154SAPE   O1217097   4.260   3.487  10.744  0.2387  0.2535  0.2753
  154SAPE   O1117098   4.164   3.645  10.578 -0.7201 -0.0060 -0.8538
  154SAPE    C117099   4.046   3.596  10.525 -0.7008 -0.4438  0.0807
  154SAPE    HA17100   4.032   3.489  10.551 -0.8365 -0.7908 -1.3409
  154SAPE    HB17101   3.960   3.654  10.564 -1.1063 -1.0055  0.0260
  154SAPE    C217102   4.045   3.608  10.366  0.5236  0.4943  0.1798
  154SAPE    HS17103   3.958   3.666  10.329  0.5434  0.3453 -0.1044
  154SAPE   O2117104   4.028   3.481  10.300 -0.2114  0.8735  0.4602
  154SAPE   C2117105   3.916   3.407  10.324 -0.0327  0.2494  0.7669
  154SAPE   O2217106   3.829   3.439  10.401 -0.0509  0.2319  0.2792
  154SAPE   C2217107   3.922   3.275  10.244 -0.4441  0.3194 -0.2529
  154SAPE   H2R17108   3.976   3.205  10.311 -0.3137  1.5037  0.9158
  154SAPE   H2S17109   3.819   3.240  10.224 -1.1486  1.3995  1.3449
  154SAPE    C317110   4.183   3.666  10.317 -0.1039  0.4183  0.3858
  154SAPE    HX17111   4.259   3.601  10.364 -1.4431 -1.3593  0.1858
  154SAPE    HY17112   4.199   3.772  10.347  1.4191  0.1819  0.5033
  154SAPE   O3117113   4.215   3.648  10.173  0.2957 -0.2513 -0.1661
  154SAPE   C3117114   4.129   3.724  10.096  0.9365  0.3267 -0.0718
  154SAPE   O3217115   4.033   3.786  10.137 -0.7256  0.4563  0.1471
  154SAPE   C3217116   4.181   3.719   9.952 -0.7693  0.5463  0.9179
  154SAPE   H2X17117   4.112   3.660   9.888  0.7002  1.2828 -1.4538
  154SAPE   H2Y17118   4.288   3.692   9.943 -0.8476  0.5820 -0.2269
  154SAPE   C2317119   3.998   3.281  10.108 -0.1268 -0.4421 -0.1874
  154SAPE   H3R17120   4.083   3.352  10.110 -0.4972 -0.0124  0.4565
  154SAPE   H3S17121   3.932   3.322  10.028  1.6966  0.1358 -1.4588
  154SAPE   C2417122   4.062   3.146  10.083 -0.5712  0.9323 -0.2991
  154SAPE   H4R17123   4.127   3.119  10.169 -0.0893  0.6369 -0.7418
  154SAPE   H4S17124   4.117   3.162   9.988 -2.6860  2.7654 -1.2987
  154SAPE   C2517125   3.970   3.026  10.069  0.0179 -0.6505  0.4917
  154SAPE   H5R17126   3.903   3.001  10.153  0.0919 -1.5313  0.2926
  154SAPE   C2617127   3.962   2.942   9.966 -1.0011 -0.1975  0.3963
  154SAPE   H6R17128   3.885   2.864   9.959 -0.1210 -0.9385 -2.0048
  154SAPE   C2717129   4.036   2.952   9.834 -0.1349  1.3258 -0.5218
  154SAPE   H7R17130   4.140   2.980   9.862 -0.0414  1.1825 -0.7241
  154SAPE   H7S17131   3.990   3.026   9.766 -1.1914  0.1982 -1.0825
  154SAPE   C2817132   4.042   2.827   9.753 -0.4678  0.3978  0.6963
  154SAPE   H8R17133   3.967   2.749   9.772  0.5478 -0.7125  0.2907
  154SAPE   C2917134   4.111   2.803   9.642 -0.3559  0.6060  0.0570
  154SAPE   H9R17135   4.109   2.699   9.605  0.4180  0.4342  0.4925
  154SAPE  C21017136   4.214   2.900   9.586  0.4672  0.8579 -1.1271
  154SAPE  H10R17137   4.250   2.963   9.671 -2.1829  0.0860  0.7100
  154SAPE  H10S17138   4.164   2.962   9.508 -0.5155 -0.6506 -1.7220
  154SAPE  C21117139   4.332   2.823   9.522  0.0322 -0.0458  0.0444
  154SAPE  H11R17140   4.392   2.758   9.588  0.9415  0.8156  0.0994
  154SAPE  C21217141   4.371   2.818   9.393 -0.6277  0.1503  0.3018
  154SAPE  H12R17142   4.457   2.759   9.356 -0.0075 -0.7664  3.0124
  154SAPE  C21317143   4.302   2.891   9.278  0.4544 -0.8668 -0.4170
  154SAPE  H13R17144   4.379   2.962   9.240  0.6099 -0.8314 -0.0437
  154SAPE  H13S17145   4.221   2.957   9.317  0.5175 -0.6483 -0.6534
  154SAPE  C21417146   4.243   2.803   9.173 -0.6191  0.5619  0.2953
  154SAPE  H14R17147   4.188   2.717   9.213  1.2225 -1.4316 -1.2117
  154SAPE  C21517148   4.240   2.811   9.041  0.4325 -1.1385 -0.5191
  154SAPE  H15R17149   4.201   2.724   8.986  1.6482 -1.9854 -0.0879
  154SAPE  C21617150   4.293   2.926   8.961 -0.3760  0.3983 -0.1269
  154SAPE  H16R17151   4.380   2.882   8.907 -0.9318 -2.2355  0.9622
  154SAPE  H16S17152   4.341   3.004   9.025  0.2145  0.8627 -1.1103
  154SAPE  C21717153   4.201   2.985   8.856  0.7685 -0.5102  0.1506
  154SAPE  H17R17154   4.255   3.060   8.794  0.7228 -1.7846 -1.5014
  154SAPE  H17S17155   4.128   3.045   8.915 -0.0010 -0.0944 -1.1754
  154SAPE  C21817156   4.116   2.894   8.764  0.0958  0.2381 -0.4495
  154SAPE  H18R17157   4.049   2.826   8.821  1.5324 -1.2857 -0.4955
  154SAPE  H18S17158   4.183   2.824   8.710 -0.7448  0.0749 -1.3100
  154SAPE  C21917159   4.047   2.974   8.658  0.9553  0.3078  0.6126
  154SAPE  H19R17160   4.113   3.003   8.573 -0.0421  0.3782 -0.1495
  154SAPE  H19S17161   4.013   3.069   8.706 -1.1503  0.5795 -1.2511
  154SAPE  C22017162   3.918   2.916   8.588 -0.1136 -0.1753 -0.6259
  154SAPE  H20R17163   3.836   2.889   8.658  0.1916  0.1145 -0.1527
  154SAPE  H20S17164   3.940   2.834   8.517  1.1536 -0.3364 -0.0808
  154SAPE  H20T17165   3.878   2.997   8.523 -0.0528 -1.1046 -1.8564
  154SAPE   C3317166   4.167   3.868   9.889 -0.4897 -0.0007  0.1760
  154SAPE   H3X17167   4.228   3.936   9.953  1.5467 -0.4861 -1.1614
  154SAPE   H3Y17168   4.065   3.908   9.872 -0.4792 -0.3784 -0.8429
  154SAPE   C3417169   4.239   3.868   9.751 -0.2502  0.5330  0.0569
  154SAPE   H4X17170   4.194   3.793   9.682 -1.2927 -0.0249  1.3094
  154SAPE   H4Y17171   4.343   3.829   9.758  0.1023  1.5902  0.9170
  154SAPE   C3517172   4.244   4.006   9.686  0.9106 -0.2596  0.0628
  154SAPE   H5X17173   4.298   4.075   9.754 -2.2190  1.0319  1.4547
  154SAPE   H5Y17174   4.141   4.046   9.680  1.0659  0.5358  1.9525
  154SAPE   C3617175   4.299   4.006   9.541 -1.0375  0.0070 -0.5283
  154SAPE   H6X17176   4.409   4.013   9.529 -0.8622 -1.8534 -0.2629
  154SAPE   H6Y17177   4.270   4.105   9.500  1.4311  1.2697  0.5534
  154SAPE   C3717178   4.244   3.891   9.452 -0.0452 -0.0546  0.3303
  154SAPE   H7X17179   4.135   3.874   9.465  0.2645 -0.3413  3.4273
  154SAPE   H7Y17180   4.289   3.794   9.481  2.3187  0.1904 -2.1274
  154SAPE   C3817181   4.285   3.914   9.302 -0.5165 -0.4522 -0.3482
  154SAPE   H8X17182   4.396   3.904   9.300 -0.2348  1.9355 -2.4705
  154SAPE   H8Y17183   4.261   4.011   9.252 -1.4654 -0.1563  0.6406
  154SAPE   C3917184   4.221   3.806   9.219 -0.1536 -0.4259  0.7356
  154SAPE   H9X17185   4.110   3.808   9.209 -0.2171 -0.1542  1.4488
  154SAPE   H9Y17186   4.242   3.709   9.268  0.6233  0.4317  2.1938
  154SAPE  C31017187   4.294   3.781   9.084  0.2042 -0.6452  0.4613
  154SAPE  H10X17188   4.257   3.692   9.028 -1.5948  0.5134 -0.2968
  154SAPE  H10Y17189   4.403   3.762   9.092  0.3383  0.0018  0.2512
  154SAPE  C31117190   4.275   3.900   8.991  0.2631 -0.1062  0.1114
  154SAPE  H11X17191   4.335   3.988   9.022  1.5739 -0.1352 -2.1136
  154SAPE  H11Y17192   4.169   3.930   9.008  0.3075 -0.5542  1.2838
  154SAPE  C31217193   4.298   3.853   8.850 -0.2518 -0.4623 -0.7518
  154SAPE  H12X17194   4.234   3.765   8.827 -2.1364  0.4347  0.6805
  154SAPE  H12Y17195   4.402   3.814   8.847  0.0731  0.4522 -2.0066
  154SAPE  C31317196   4.265   3.957   8.738  0.1037 -0.1552 -0.1162
  154SAPE  H13X17197   4.321   3.919   8.650 -0.6038 -0.6841 -0.3504
  154SAPE  H13Y17198   4.311   4.052   8.770 -0.8624  1.1330 -2.3088
  154SAPE  C31417199   4.119   3.982   8.705  0.0730  0.7046  0.3040
  154SAPE  H14X17200   4.111   4.078   8.649  0.0680  0.2731 -0.4481
  154SAPE  H14Y17201   4.055   4.005   8.793  0.0209 -0.9883  0.7433
  154SAPE  C31517202   4.038   3.869   8.630  0.2518 -0.8335 -0.2517
  154SAPE  H15X17203   3.931   3.898   8.631  0.8268  1.5587 -0.2102
  154SAPE  H15Y17204   4.045   3.783   8.699 -0.7677 -0.5632  0.1947
  154SAPE  C31617205   4.084   3.836   8.489 -0.0914 -0.1442 -0.5968
  154SAPE  H16X17206   4.185   3.791   8.498 -0.1993 -0.2954 -0.0920
  154SAPE  H16Y17207   4.091   3.928   8.428  0.9322  0.8121  0.8989
  154SAPE  C31717208   3.994   3.734   8.415 -0.4587  0.1633  0.4454
  154SAPE  H17X17209   3.919   3.803   8.371 -0.1049 -0.0550 -0.5288
  154SAPE  H17Y17210   3.943   3.662   8.481  2.1634 -2.6006 -0.3282
  154SAPE  C31817211   4.076   3.647   8.324 -0.0895 -0.1967 -0.0410
  154SAPE  H18X17212   4.145   3.589   8.389  1.4516  1.1441 -0.4239
  154SAPE  H18Y17213   4.140   3.701   8.252  3.3680  0.5722  3.2950
  154SAPE  H18Z17214   4.004   3.575   8.279 -2.5618  1.7059  0.6475
  155SAPE     N17215   4.073   4.499  11.011  0.5969 -0.4616 -0.5152
  155SAPE   HN117216   4.074   4.586  11.069  0.0049 -1.4154  0.9722
  155SAPE   HN217217   3.981   4.502  10.962  0.9976 -1.0548 -1.3140
  155SAPE   HN317218   4.074   4.422  11.081  0.2469  1.2546  1.4844
  155SAPE   C1217219   4.179   4.474  10.914  0.3261  0.3013  0.8028
  155SAPE  H12A17220   4.273   4.498  10.968 -0.5194  1.3063  1.8996
  155SAPE  H12B17221   4.165   4.543  10.828 -0.4664 -1.7986 -0.8425
  155SAPE   C1117222   4.174   4.326  10.877 -0.1206  0.1694 -0.5470
  155SAPE  H11A17223   4.265   4.307  10.815 -0.8024 -2.2998 -0.9115
  155SAPE  H11B17224   4.074   4.302  10.835 -0.3158  0.8402 -0.4820
  155SAPE     P17225   4.176   4.092  10.994  0.2344  0.0895  0.1702
  155SAPE   O1317226   4.287   4.022  11.058  0.1291 -0.1251  0.2206
  155SAPE   O1417227   4.043   4.061  11.058 -0.5405 -0.3399  0.6831
  155SAPE   O1217228   4.193   4.253  11.003 -0.4434  0.9210  0.0707
  155SAPE   O1117229   4.176   4.065  10.840 -0.3316  0.1067 -0.0605
  155SAPE    C117230   4.054   4.021  10.781 -0.1986  0.0041  0.6004
  155SAPE    HA17231   4.027   3.917  10.810  0.9365  0.1073  2.1735
  155SAPE    HB17232   3.966   4.083  10.807 -1.7931 -2.6757  2.0307
  155SAPE    C217233   4.065   4.019  10.621 -0.7679 -0.0804 -0.6355
  155SAPE    HS17234   4.136   3.938  10.593 -2.5147 -1.7711 -0.3870
  155SAPE   O2117235   4.097   4.142  10.566 -0.1414  0.3652  0.1554
  155SAPE   C2117236   4.219   4.191  10.550  0.3882  0.1268 -0.2238
  155SAPE   O2217237   4.323   4.151  10.594  0.0410  0.1746 -0.9096
  155SAPE   C2217238   4.203   4.308  10.458 -0.6289  0.3449 -0.3821
  155SAPE   H2R17239   4.101   4.313  10.415 -0.0844  0.5936 -1.6737
  155SAPE   H2S17240   4.214   4.396  10.525 -1.1926  0.1585 -0.0450
  155SAPE    C317241   3.933   3.983  10.559  0.3454  0.1121 -0.3331
  155SAPE    HX17242   3.857   4.052  10.602 -0.0977 -0.0498 -0.8437
  155SAPE    HY17243   3.911   3.881  10.597  0.6716  1.2419  3.2373
  155SAPE   O3117244   3.940   3.979  10.414 -0.4080  0.5704 -0.6542
  155SAPE   C3117245   3.885   4.085  10.347  0.0800  1.0066 -0.2723
  155SAPE   O3217246   3.820   4.173  10.398  0.3724 -0.1638  0.3009
  155SAPE   C3217247   3.899   4.056  10.196  0.3666  1.0152 -0.2272
  155SAPE   H2X17248   3.839   3.963  10.185 -0.7393  1.6853 -0.0430
  155SAPE   H2Y17249   4.005   4.042  10.169  0.2383 -0.0586 -0.1865
  155SAPE   C2317250   4.315   4.303  10.346  0.0668  0.1889 -0.2633
  155SAPE   H3R17251   4.398   4.232  10.368 -1.9058 -1.8566  0.9642
  155SAPE   H3S17252   4.355   4.406  10.352 -0.1722  0.3019 -0.5905
  155SAPE   C2417253   4.250   4.267  10.213  0.4276  0.0995  0.5931
  155SAPE   H4R17254   4.157   4.324  10.191  0.0852  0.0880  1.9279
  155SAPE   H4S17255   4.218   4.161  10.229  1.1954 -0.1352  0.6061
  155SAPE   C2517256   4.346   4.266  10.098  0.2988  0.7644  0.0226
  155SAPE   H5R17257   4.422   4.187  10.102 -1.5780 -1.0803  1.2299
  155SAPE   C2617258   4.337   4.345   9.987  0.2457 -0.1625 -0.6680
  155SAPE   H6R17259   4.425   4.351   9.921  1.3601 -0.7055  0.7218
  155SAPE   C2717260   4.217   4.435   9.966  0.2989 -0.3565  0.5659
  155SAPE   H7R17261   4.197   4.497  10.055 -0.4332 -1.2592  1.0427
  155SAPE   H7S17262   4.120   4.383   9.953 -0.6861  0.8420  2.6814
  155SAPE   C2817263   4.243   4.527   9.844  0.0467  0.3320 -0.5717
  155SAPE   H8R17264   4.256   4.634   9.867  2.5169 -0.3911  1.9979
  155SAPE   C2917265   4.240   4.493   9.716 -0.3563  0.3814 -0.1040
  155SAPE   H9R17266   4.238   4.570   9.637  0.0390  1.1732  0.6493
  155SAPE  C21017267   4.213   4.359   9.662  0.3974 -0.9815  0.0913
  155SAPE  H10R17268   4.185   4.288   9.743 -0.2048 -0.9586 -0.0928
  155SAPE  H10S17269   4.309   4.320   9.621  2.7444  1.9666  2.3150
  155SAPE  C21117270   4.105   4.357   9.560  0.0318 -0.5864 -0.8359
  155SAPE  H11R17271   4.007   4.392   9.596  1.0024  1.3424  0.1122
  155SAPE  C21217272   4.126   4.362   9.423  0.3229  0.0368  0.6035
  155SAPE  H12R17273   4.035   4.372   9.362  0.1940 -0.5169  0.7007
  155SAPE  C21317274   4.264   4.367   9.351 -0.1013 -0.2604 -0.5691
  155SAPE  H13R17275   4.302   4.271   9.311  0.5699  0.2361 -1.1464
  155SAPE  H13S17276   4.352   4.391   9.415 -2.0458  2.0907  1.4157
  155SAPE  C21417277   4.269   4.478   9.241 -0.0414 -0.2757 -0.2052
  155SAPE  H14R17278   4.302   4.577   9.274 -2.3991  1.1458 -1.8143
  155SAPE  C21517279   4.231   4.467   9.109  0.6002  0.6999  0.3894
  155SAPE  H15R17280   4.246   4.550   9.039  1.5859 -0.1405 -0.4405
  155SAPE  C21617281   4.162   4.340   9.052  0.4682 -0.0240  0.0014
  155SAPE  H16R17282   4.155   4.257   9.125  1.3788 -1.3881 -1.3992
  155SAPE  H16S17283   4.224   4.296   8.970 -0.7388 -1.1577 -0.3266
  155SAPE  C21717284   4.025   4.388   9.001 -0.1385  0.4467 -0.7555
  155SAPE  H17R17285   3.983   4.447   9.085 -1.0141 -2.9858  1.4687
  155SAPE  H17S17286   3.966   4.294   8.990 -1.3271  1.1122 -0.2062
  155SAPE  C21817287   4.024   4.456   8.860 -0.4028 -0.2579  0.1023
  155SAPE  H18R17288   4.066   4.385   8.786  3.2087 -0.4461  2.1046
  155SAPE  H18S17289   4.096   4.541   8.871 -0.9650  0.3122 -0.5201
  155SAPE  C21917290   3.892   4.525   8.810  0.2155 -0.5108  0.4168
  155SAPE  H19R17291   3.857   4.600   8.884  0.7114  0.0447  0.0951
  155SAPE  H19S17292   3.817   4.444   8.798 -0.3490  0.0008  0.4623
  155SAPE  C22017293   3.904   4.591   8.674 -0.1193 -0.1138 -0.3721
  155SAPE  H20R17294   3.920   4.513   8.597  1.3025 -0.9773  0.7520
  155SAPE  H20S17295   3.994   4.655   8.680  0.7568 -1.4385  1.7506
  155SAPE  H20T17296   3.819   4.652   8.636  0.5299  0.0635 -1.5928
  155SAPE   C3317297   3.826   4.159  10.111 -0.1117 -0.6241 -0.3121
  155SAPE   H3X17298   3.890   4.249  10.103  0.5185 -1.1645 -1.7840
  155SAPE   H3Y17299   3.733   4.201  10.154 -1.7414 -0.5087 -3.6272
  155SAPE   C3417300   3.803   4.101   9.969  0.5100 -0.5502 -0.1513
  155SAPE   H4X17301   3.693   4.112   9.961 -0.0920 -3.4468  2.2276
  155SAPE   H4Y17302   3.831   3.994   9.960  0.7561 -0.7317  2.0745
  155SAPE   C3517303   3.885   4.178   9.870  0.9504  0.3990  0.5160
  155SAPE   H5X17304   3.982   4.125   9.853  1.3474  1.6116 -1.3661
  155SAPE   H5Y17305   3.913   4.284   9.888 -1.6317  1.6470 -2.0959
  155SAPE   C3617306   3.803   4.191   9.736  0.1673  0.5396  0.4541
  155SAPE   H6X17307   3.848   4.276   9.681 -0.0446  0.7692  0.6374
  155SAPE   H6Y17308   3.696   4.210   9.758 -0.9032 -1.7590 -2.1301
  155SAPE   C3717309   3.785   4.072   9.645  0.7871  0.2075 -0.0025
  155SAPE   H7X17310   3.718   3.992   9.684  0.0807  0.7562 -0.0788
  155SAPE   H7Y17311   3.881   4.019   9.631  0.8024  0.2954 -0.2462
  155SAPE   C3817312   3.719   4.099   9.507 -0.4250 -0.4058 -0.5289
  155SAPE   H8X17313   3.772   4.186   9.463 -1.0244 -0.4105 -1.2695
  155SAPE   H8Y17314   3.612   4.130   9.509  0.1934  1.9273 -0.9009
  155SAPE   C3917315   3.735   3.982   9.404 -0.3002 -0.0722 -0.9314
  155SAPE   H9X17316   3.671   3.894   9.428  0.5278 -0.7751 -1.2585
  155SAPE   H9Y17317   3.840   3.949   9.399 -0.3766 -0.5088  0.0533
  155SAPE  C31017318   3.688   4.030   9.267  0.0295 -0.1562  0.0510
  155SAPE  H10X17319   3.749   4.119   9.238  0.1711 -0.5934 -1.0269
  155SAPE  H10Y17320   3.580   4.056   9.260  0.2095  0.3926 -0.8179
  155SAPE  C31117321   3.711   3.927   9.155 -0.2036  0.3724  0.8932
  155SAPE  H11X17322   3.655   3.841   9.197 -0.0681  0.1198  0.5622
  155SAPE  H11Y17323   3.817   3.891   9.160 -0.1168  0.0352 -1.7676
  155SAPE  C31217324   3.664   3.947   9.014  0.3656  0.3896 -0.7061
  155SAPE  H12X17325   3.737   4.004   8.951  1.8477 -0.9071 -0.2185
  155SAPE  H12Y17326   3.561   3.990   9.018 -0.4947 -1.6471  2.5051
  155SAPE  C31317327   3.653   3.817   8.925 -0.1798 -0.1041  0.0513
  155SAPE  H13X17328   3.580   3.748   8.973  0.2628  0.0804  1.0157
  155SAPE  H13Y17329   3.750   3.763   8.922 -0.1915 -0.0979 -1.8705
  155SAPE  C31417330   3.619   3.833   8.775 -0.1196 -1.0322 -0.0010
  155SAPE  H14X17331   3.686   3.902   8.719 -0.7383 -1.5253 -1.4081
  155SAPE  H14Y17332   3.515   3.872   8.778  0.7823  1.4543  1.7335
  155SAPE  C31517333   3.623   3.701   8.693 -0.4938  0.5515  0.4944
  155SAPE  H15X17334   3.608   3.619   8.767 -0.5801 -0.1003 -0.2332
  155SAPE  H15Y17335   3.728   3.685   8.658 -0.7150 -1.2025  0.5086
  155SAPE  C31617336   3.525   3.695   8.580 -0.1716  0.6962  0.5867
  155SAPE  H16X17337   3.556   3.762   8.496 -1.6643 -0.2930 -0.8226
  155SAPE  H16Y17338   3.432   3.740   8.620 -0.3630 -0.4563  1.4651
  155SAPE  C31717339   3.510   3.551   8.520  0.1084  1.2114  0.5638
  155SAPE  H17X17340   3.443   3.537   8.433  0.6452 -0.9626  0.4547
  155SAPE  H17Y17341   3.480   3.479   8.599  0.6375 -1.0565 -1.1975
  155SAPE  C31817342   3.639   3.488   8.473 -0.2127 -0.6245  0.7419
  155SAPE  H18X17343   3.624   3.389   8.426  0.8199  0.0772 -1.2270
  155SAPE  H18Y17344   3.709   3.484   8.559  0.9692 -3.0315 -0.2535
  155SAPE  H18Z17345   3.673   3.563   8.397  0.1170 -0.4026  1.1071
  156SAPE     N17346   3.124   2.350  10.548  0.3807  0.1124 -0.1974
  156SAPE   HN117347   3.225   2.328  10.534  0.0839 -0.2529 -2.1236
  156SAPE   HN217348   3.100   2.441  10.592  0.7701  1.6939 -3.0090
  156SAPE   HN317349   3.094   2.268  10.604 -0.4981  2.7356  3.5714
  156SAPE   C1217350   3.061   2.338  10.405 -0.2645  0.3653 -0.6115
  156SAPE  H12A17351   3.147   2.323  10.337  0.3755 -0.2293  0.2989
  156SAPE  H12B17352   3.013   2.436  10.384 -2.7008 -0.2198  1.6976
  156SAPE   C1117353   2.967   2.215  10.403 -0.8447  0.5834 -0.6032
  156SAPE  H11A17354   2.941   2.211  10.295  0.1500  0.4299 -0.8480
  156SAPE  H11B17355   2.880   2.246  10.466  0.5233  2.0560  0.6323
  156SAPE     P17356   3.040   1.954  10.388  0.1286  0.3246  0.1918
  156SAPE   O1317357   3.095   1.864  10.498 -0.2289 -0.4038 -0.4761
  156SAPE   O1417358   2.912   1.900  10.336 -0.3728  0.3106  0.5216
  156SAPE   O1217359   3.024   2.098  10.457  0.1296  0.0941  0.2814
  156SAPE   O1117360   3.159   1.970  10.284  0.2257  0.1844 -0.0942
  156SAPE    C117361   3.225   1.857  10.221 -0.5256 -0.4424  0.6948
  156SAPE    HA17362   3.332   1.885  10.206 -1.1631  1.4606 -0.8257
  156SAPE    HB17363   3.219   1.764  10.282  2.1378  0.0773  1.9329
  156SAPE    C217364   3.172   1.806  10.084 -0.1562  0.1482  0.2207
  156SAPE    HS17365   3.239   1.727  10.044 -2.1824 -1.7733  0.4090
  156SAPE   O2117366   3.139   1.913   9.990  0.5810  0.3910 -0.5412
  156SAPE   C2117367   3.247   1.957   9.924 -0.3817  0.2106  0.7379
  156SAPE   O2217368   3.361   1.924   9.964 -0.1516  0.2310 -0.4854
  156SAPE   C2217369   3.213   2.018   9.788 -0.3839  0.1875  0.2417
  156SAPE   H2R17370   3.120   2.078   9.801  0.1190  1.2914 -1.1180
  156SAPE   H2S17371   3.298   2.078   9.749 -0.4809 -0.3027 -0.7384
  156SAPE    C317372   3.036   1.728  10.102 -0.8302 -0.4168  0.2232
  156SAPE    HX17373   2.956   1.804  10.115 -1.0068 -0.5144 -0.2694
  156SAPE    HY17374   3.053   1.675  10.198  1.5572  0.1036  0.1440
  156SAPE   O3117375   3.018   1.642   9.984 -0.1030 -0.3862  0.5635
  156SAPE   C3117376   2.941   1.677   9.888  0.3814  0.0338 -0.0221
  156SAPE   O3217377   2.900   1.794   9.870  0.2484  0.9500 -0.3659
  156SAPE   C3217378   2.918   1.554   9.798 -0.2730  0.2522 -0.3296
  156SAPE   H2X17379   2.830   1.499   9.836  1.1355 -2.3472 -0.5884
  156SAPE   H2Y17380   3.008   1.488   9.790  1.8022  2.8265  0.1979
  156SAPE   C2317381   3.203   1.900   9.691 -0.3934  0.6917  0.5642
  156SAPE   H3R17382   3.147   1.815   9.736  2.4630 -1.8844 -0.3912
  156SAPE   H3S17383   3.304   1.862   9.667 -0.7355 -0.5132  0.9775
  156SAPE   C2417384   3.134   1.940   9.560  0.1245 -0.1798  0.7212
  156SAPE   H4R17385   3.171   1.868   9.484 -2.4072 -0.7085 -0.1432
  156SAPE   H4S17386   3.161   2.045   9.537  2.1657 -0.6701  0.7307
  156SAPE   C2517387   2.985   1.941   9.577  0.1166 -0.1493  0.0468
  156SAPE   H5R17388   2.952   1.965   9.679  2.6799  2.1298  0.4609
  156SAPE   C2617389   2.891   1.951   9.478 -0.1262 -0.2248 -0.3661
  156SAPE   H6R17390   2.788   1.956   9.517  0.0812  0.0576  0.1642
  156SAPE   C2717391   2.909   1.945   9.329  0.1075  0.5313 -0.5817
  156SAPE   H7R17392   3.012   1.917   9.299 -0.8551 -0.9201 -2.7990
  156SAPE   H7S17393   2.901   2.052   9.298  0.0723  0.5505 -0.5066
  156SAPE   C2817394   2.800   1.871   9.252  0.0576 -0.1552  0.5496
  156SAPE   H8R17395   2.711   1.839   9.308 -1.2812 -0.1656 -1.4676
  156SAPE   C2917396   2.804   1.837   9.120 -0.0049  0.2238 -0.2214
  156SAPE   H9R17397   2.715   1.791   9.075 -0.5257  0.1450  0.8458
  156SAPE  C21017398   2.918   1.873   9.026  0.1832 -0.3990 -0.6929
  156SAPE  H10R17399   2.920   1.795   8.946 -0.1263 -2.0065  0.8074
  156SAPE  H10S17400   3.013   1.854   9.079 -1.0256  0.0786  1.7613
  156SAPE  C21117401   2.907   2.013   8.969 -0.6627 -0.0374  0.5032
  156SAPE  H11R17402   2.806   2.056   8.978 -0.3804  0.9784 -0.9567
  156SAPE  C21217403   2.996   2.082   8.897  0.3494 -0.3132 -0.5420
  156SAPE  H12R17404   2.979   2.190   8.885  0.1734 -0.2676  0.0798
  156SAPE  C21317405   3.136   2.035   8.860 -0.3774 -0.6142  0.0895
  156SAPE  H13R17406   3.156   2.056   8.753  2.7965 -0.1365  0.6846
  156SAPE  H13S17407   3.143   1.925   8.872 -1.7273 -0.7138  0.1213
  156SAPE  C21417408   3.237   2.103   8.952  0.6263 -0.0858  0.6900
  156SAPE  H14R17409   3.250   2.050   9.047  1.0228  0.6974  1.0797
  156SAPE  C21517410   3.301   2.216   8.925 -0.3417 -0.0728 -0.5226
  156SAPE  H15R17411   3.355   2.260   9.010  1.3746  0.2532 -1.7286
  156SAPE  C21617412   3.296   2.305   8.807  0.5501  0.2316  0.1016
  156SAPE  H16R17413   3.283   2.256   8.708  0.8584  1.5145 -0.5932
  156SAPE  H16S17414   3.398   2.346   8.798  0.6985  0.0697  0.9666
  156SAPE  C21717415   3.205   2.425   8.829 -0.4193  0.2366  0.7763
  156SAPE  H17R17416   3.214   2.472   8.930  2.1669  2.6659 -0.4479
  156SAPE  H17S17417   3.098   2.398   8.820  0.1239 -1.5915 -0.7746
  156SAPE  C21817418   3.242   2.532   8.732 -0.1179  0.5130  0.6936
  156SAPE  H18R17419   3.280   2.476   8.644 -1.4707 -0.5184  0.7363
  156SAPE  H18S17420   3.318   2.608   8.762 -0.1605  0.1760  1.6946
  156SAPE  C21917421   3.120   2.616   8.678  0.2838  0.1845  0.1700
  156SAPE  H19R17422   3.093   2.683   8.763 -0.3068 -0.4876  0.5265
  156SAPE  H19S17423   3.032   2.552   8.659  0.5885  0.0392 -0.7947
  156SAPE  C22017424   3.151   2.708   8.560  0.7443 -1.0614  0.2574
  156SAPE  H20R17425   3.248   2.763   8.568  1.3262 -1.9036 -0.7402
  156SAPE  H20S17426   3.079   2.793   8.555  1.2849 -0.6477 -1.9599
  156SAPE  H20T17427   3.156   2.649   8.466 -0.7436  1.5071 -1.5755
  156SAPE   C3317428   2.898   1.613   9.658  0.4983  1.2089 -0.4026
  156SAPE   H3X17429   2.994   1.660   9.629  1.1802  1.5304  2.1574
  156SAPE   H3Y17430   2.803   1.668   9.641 -1.1078 -1.4101 -0.4005
  156SAPE   C3417431   2.876   1.494   9.558 -0.1053  0.1893 -0.6602
  156SAPE   H4X17432   2.790   1.434   9.594 -0.5954  1.6889  0.7951
  156SAPE   H4Y17433   2.951   1.412   9.555 -1.5067 -1.1269 -1.1083
  156SAPE   C3517434   2.861   1.536   9.421 -1.3916  0.9049  1.1199
  156SAPE   H5X17435   2.941   1.607   9.392 -0.2647 -0.9941 -0.7604
  156SAPE   H5Y17436   2.760   1.583   9.414 -1.5200  0.7126  1.6550
  156SAPE   C3617437   2.869   1.424   9.322 -1.1162  0.1840  0.2214
  156SAPE   H6X17438   2.787   1.351   9.339 -2.3919  1.4162 -0.3479
  156SAPE   H6Y17439   2.967   1.372   9.330 -0.7232  0.6972 -1.0111
  156SAPE   C3717440   2.860   1.478   9.180 -0.1935 -0.0862  0.6226
  156SAPE   H7X17441   2.944   1.547   9.157 -2.5169  3.1073  1.2121
  156SAPE   H7Y17442   2.777   1.551   9.182 -0.2664 -0.1369 -0.2478
  156SAPE   C3817443   2.868   1.374   9.062  0.2268 -0.1098 -0.9620
  156SAPE   H8X17444   2.786   1.301   9.078 -0.3995  0.8438  0.3395
  156SAPE   H8Y17445   2.966   1.321   9.065  0.8709  1.0136 -1.5611
  156SAPE   C3917446   2.832   1.431   8.922  0.3205 -0.3901 -0.0704
  156SAPE   H9X17447   2.895   1.520   8.901  1.4254 -1.5716 -2.0488
  156SAPE   H9Y17448   2.727   1.464   8.906  0.3935  0.1359  0.5081
  156SAPE  C31017449   2.866   1.335   8.818 -0.5277  0.0732  0.1897
  156SAPE  H10X17450   2.817   1.239   8.844 -2.9825  0.3758 -2.6444
  156SAPE  H10Y17451   2.975   1.323   8.807 -0.2119  2.1745  0.5328
  156SAPE  C31117452   2.822   1.378   8.667  0.2116 -0.6940 -0.5644
  156SAPE  H11X17453   2.854   1.291   8.604 -0.8885 -1.0504 -0.6440
  156SAPE  H11Y17454   2.887   1.459   8.628 -1.5019  0.7266 -0.5634
  156SAPE  C31217455   2.680   1.423   8.651  0.6660  0.2274  0.1505
  156SAPE  H12X17456   2.668   1.509   8.720 -0.8086  0.2164 -0.0495
  156SAPE  H12Y17457   2.606   1.343   8.676 -0.4611  1.2113  0.0692
  156SAPE  C31317458   2.649   1.483   8.514  0.7537 -0.1572  1.0188
  156SAPE  H13X17459   2.684   1.407   8.441 -1.4505 -1.0683  0.8063
  156SAPE  H13Y17460   2.714   1.573   8.512  1.7943 -0.8535  2.1279
  156SAPE  C31417461   2.500   1.513   8.486 -0.6981  0.3053 -0.3419
  156SAPE  H14X17462   2.479   1.579   8.573  1.5975 -1.1417  1.4141
  156SAPE  H14Y17463   2.438   1.423   8.468  1.1166 -0.5068 -3.2527
  156SAPE  C31517464   2.484   1.608   8.363  0.4133  0.0974 -0.0478
  156SAPE  H15X17465   2.537   1.561   8.278 -3.5180 -1.6325 -1.7457
  156SAPE  H15Y17466   2.531   1.699   8.407  1.3811 -1.2175  1.8332
  156SAPE  C31617467   2.338   1.623   8.318  0.5642  0.2412 -1.2318
  156SAPE  H16X17468   2.281   1.662   8.405  2.6793 -0.9146  0.8085
  156SAPE  H16Y17469   2.308   1.522   8.281 -0.3006 -0.6496  1.6321
  156SAPE  C31717470   2.324   1.723   8.203 -0.4033 -0.0050 -0.3606
  156SAPE  H17X17471   2.221   1.711   8.163 -0.7316  2.3611 -0.4122
  156SAPE  H17Y17472   2.397   1.706   8.121  0.7948  1.3038  0.3959
  156SAPE  C31817473   2.327   1.873   8.251  0.5081  0.3128  0.0467
  156SAPE  H18X17474   2.250   1.864   8.331  1.7810 -0.9383  1.1796
  156SAPE  H18Y17475   2.312   1.952   8.175 -0.1935  2.6056  2.4071
  156SAPE  H18Z17476   2.424   1.889   8.303 -0.0347  2.2052  0.5627
  157SAPE     N17477   1.585   6.417  11.164 -0.7297 -0.2171 -0.1227
  157SAPE   HN117478   1.532   6.506  11.159  3.9182  2.8668 -1.4347
  157SAPE   HN217479   1.532   6.332  11.192  0.7416 -1.3304 -0.5900
  157SAPE   HN317480   1.667   6.415  11.227 -0.9423 -0.9667  0.1428
  157SAPE   C1217481   1.628   6.398  11.025  0.3605 -0.8273  0.0314
  157SAPE  H12A17482   1.531   6.364  10.981  0.6806 -1.6767 -0.0411
  157SAPE  H12B17483   1.701   6.314  11.022 -2.4284 -3.4965  0.4483
  157SAPE   C1117484   1.700   6.528  10.971  0.9105  0.0869  0.0925
  157SAPE  H11A17485   1.736   6.494  10.871 -1.3042 -1.6688 -0.2100
  157SAPE  H11B17486   1.792   6.558  11.025  2.2674 -0.8340 -1.5791
  157SAPE     P17487   1.655   6.785  10.929 -0.5599  0.1926 -0.2330
  157SAPE   O1317488   1.536   6.867  10.959  0.3945 -0.4729  0.8187
  157SAPE   O1417489   1.772   6.829  11.008 -0.8240  0.5644  0.7083
  157SAPE   O1217490   1.602   6.641  10.968 -0.4421 -0.1785  0.1939
  157SAPE   O1117491   1.682   6.781  10.769  0.1414  0.1148 -0.4976
  157SAPE    C117492   1.598   6.702  10.687 -0.4159  0.3092 -0.4140
  157SAPE    HA17493   1.628   6.595  10.687 -0.2999  0.2998  1.8354
  157SAPE    HB17494   1.497   6.697  10.731 -0.3194 -1.1510 -0.3121
  157SAPE    C217495   1.586   6.747  10.544 -0.0186  0.3919 -0.2949
  157SAPE    HS17496   1.676   6.720  10.485 -0.4764  1.6446 -1.6434
  157SAPE   O2117497   1.548   6.890  10.536  0.5111  0.9060  0.3447
  157SAPE   C2117498   1.594   6.962  10.433  0.2406  0.2952 -0.2622
  157SAPE   O2217499   1.672   6.920  10.349  0.4090 -0.5199  0.6464
  157SAPE   C2217500   1.542   7.102  10.446  0.1970 -0.1833  0.5305
  157SAPE   H2R17501   1.570   7.147  10.544  0.5597 -0.6437  0.6427
  157SAPE   H2S17502   1.587   7.163  10.365 -0.3560  0.0774  0.4084
  157SAPE    C317503   1.474   6.668  10.465  0.2100 -0.0284 -0.0613
  157SAPE    HX17504   1.383   6.690  10.525  0.2242  1.7404 -0.6181
  157SAPE    HY17505   1.505   6.562  10.469  2.0366  0.4951  1.4151
  157SAPE   O3117506   1.462   6.718  10.330  0.0949  0.6748  0.3518
  157SAPE   C3117507   1.555   6.677  10.241 -0.1007 -0.3998  0.3671
  157SAPE   O3217508   1.645   6.595  10.262  0.5629 -0.0034 -0.1360
  157SAPE   C3217509   1.527   6.745  10.117  0.1768 -0.8960  0.6331
  157SAPE   H2X17510   1.528   6.854  10.140 -0.3806 -0.9809  1.0614
  157SAPE   H2Y17511   1.433   6.717  10.066 -0.6107  0.6625  1.1680
  157SAPE   C2317512   1.383   7.105  10.426 -0.6199 -0.0119  0.5668
  157SAPE   H3R17513   1.349   7.210  10.436  2.3053  1.2904 -1.6228
  157SAPE   H3S17514   1.338   7.052  10.512  1.9558 -0.2304  1.8938
  157SAPE   C2417515   1.337   7.045  10.287  0.0415 -0.6308  0.4805
  157SAPE   H4R17516   1.227   7.060  10.274 -0.1579 -1.3309  1.2449
  157SAPE   H4S17517   1.344   6.935  10.297  1.7303 -0.5251  0.6370
  157SAPE   C2517518   1.410   7.101  10.164  0.0666  0.2795  0.2833
  157SAPE   H5R17519   1.510   7.056  10.152  0.5693  1.3273  0.3796
  157SAPE   C2617520   1.373   7.193  10.079  1.0513 -0.0973 -0.2132
  157SAPE   H6R17521   1.437   7.237  10.001 -1.1165  1.4335 -1.2401
  157SAPE   C2717522   1.235   7.263  10.082 -0.0278  0.2470 -0.1166
  157SAPE   H7R17523   1.222   7.327  10.172  0.4368 -1.5048  1.2607
  157SAPE   H7S17524   1.160   7.183  10.098 -0.2612 -0.1492 -2.7830
  157SAPE   C2817525   1.212   7.346   9.966 -0.0891 -0.3802  0.5189
  157SAPE   H8R17526   1.241   7.452   9.976 -0.1004 -0.1292 -1.6776
  157SAPE   C2917527   1.177   7.307   9.837 -0.4664  0.7725 -0.2127
  157SAPE   H9R17528   1.172   7.379   9.754  0.4440  1.1664  0.0643
  157SAPE  C21017529   1.150   7.163   9.798  0.6865  0.0936 -0.4587
  157SAPE  H10R17530   1.046   7.163   9.760  0.1779 -2.9927  0.5823
  157SAPE  H10S17531   1.141   7.097   9.888 -0.7478 -1.0308 -1.3935
  157SAPE  C21117532   1.244   7.090   9.707  0.0306  0.4178 -0.3372
  157SAPE  H11R17533   1.341   7.075   9.757 -1.7301 -0.9624  3.0595
  157SAPE  C21217534   1.217   7.042   9.584  0.9029  0.4495  0.2819
  157SAPE  H12R17535   1.291   6.982   9.528 -0.3210  1.9534 -3.2791
  157SAPE  C21317536   1.085   7.056   9.507  0.3520 -0.7192 -0.2729
  157SAPE  H13R17537   1.075   7.161   9.472  0.7781 -1.2166 -1.9644
  157SAPE  H13S17538   1.003   7.042   9.581 -0.4987  0.7797 -0.9062
  157SAPE  C21417539   1.073   6.970   9.387 -0.0447 -0.0800 -0.2269
  157SAPE  H14R17540   1.045   6.865   9.404  2.8764 -0.9468 -0.2916
  157SAPE  C21517541   1.115   6.996   9.259 -0.9256 -0.1517 -0.2354
  157SAPE  H15R17542   1.075   6.929   9.182  0.2408 -1.9263  0.6488
  157SAPE  C21617543   1.191   7.119   9.218  0.2690  0.5866 -0.6063
  157SAPE  H16R17544   1.246   7.149   9.310  0.8233 -2.3027  0.1104
  157SAPE  H16S17545   1.116   7.194   9.187 -1.5540 -1.4150 -1.3013
  157SAPE  C21717546   1.293   7.105   9.103 -0.1850 -0.3900  0.4658
  157SAPE  H17R17547   1.350   7.010   9.117 -1.0795 -1.0293 -0.1779
  157SAPE  H17S17548   1.365   7.190   9.105 -0.5071 -0.1296  1.6414
  157SAPE  C21817549   1.222   7.123   8.969  0.7008  0.4609 -0.0613
  157SAPE  H18R17550   1.178   7.224   8.958 -0.3603 -0.1661 -2.2308
  157SAPE  H18S17551   1.136   7.052   8.968  1.2038 -0.2038  1.4267
  157SAPE  C21917552   1.322   7.107   8.855  0.1105  0.3226  0.3583
  157SAPE  H19R17553   1.367   7.006   8.862  1.4478  0.8588 -0.2925
  157SAPE  H19S17554   1.407   7.178   8.859  2.2936 -1.9361 -2.2602
  157SAPE  C22017555   1.261   7.129   8.717 -0.5664  0.1760  0.1594
  157SAPE  H20R17556   1.189   7.047   8.696 -0.4510  0.1423 -0.1028
  157SAPE  H20S17557   1.336   7.140   8.636 -0.6625 -0.0978  0.0330
  157SAPE  H20T17558   1.213   7.229   8.718 -1.9475 -0.4522 -0.4464
  157SAPE   C3317559   1.647   6.745  10.022 -0.6761  0.3695  0.5877
  157SAPE   H3X17560   1.741   6.772  10.075 -1.0133 -0.3701  1.5858
  157SAPE   H3Y17561   1.625   6.832   9.956 -3.8173  0.0029  1.0215
  157SAPE   C3417562   1.654   6.612   9.946 -0.3634 -0.0033  0.1628
  157SAPE   H4X17563   1.558   6.605   9.890  0.1577 -0.2357 -0.7148
  157SAPE   H4Y17564   1.664   6.525  10.014  0.8456 -0.5821 -0.7282
  157SAPE   C3517565   1.776   6.605   9.849 -0.1989  0.3439 -0.1173
  157SAPE   H5X17566   1.872   6.638   9.893  0.4398 -0.9845 -0.4664
  157SAPE   H5Y17567   1.758   6.670   9.761 -1.6107 -1.0417 -0.8912
  157SAPE   C3617568   1.798   6.461   9.800 -0.3430 -0.5408  0.6408
  157SAPE   H6X17569   1.782   6.393   9.886 -0.6698  0.8125  1.6832
  157SAPE   H6Y17570   1.896   6.448   9.750  0.0376 -1.8653  1.6684
  157SAPE   C3717571   1.698   6.412   9.694 -0.3898  0.2204 -0.8024
  157SAPE   H7X17572   1.597   6.449   9.718 -0.0359  0.1359  0.9343
  157SAPE   H7Y17573   1.692   6.301   9.703  0.4520  0.1293 -1.1861
  157SAPE   C3817574   1.725   6.461   9.553  0.0668  0.0561  0.0526
  157SAPE   H8X17575   1.728   6.571   9.543 -2.6648  0.3093  1.1705
  157SAPE   H8Y17576   1.631   6.429   9.501  0.4293  0.3256 -0.7865
  157SAPE   C3917577   1.828   6.387   9.464  1.0936  0.2637 -0.0219
  157SAPE   H9X17578   1.791   6.284   9.442 -0.1015  0.4390  0.9803
  157SAPE   H9Y17579   1.927   6.397   9.513  1.0451 -0.6094  0.2762
  157SAPE  C31017580   1.838   6.442   9.325  0.5807  0.2436 -0.4033
  157SAPE  H10X17581   1.928   6.398   9.277 -0.4003 -2.5592  0.1412
  157SAPE  H10Y17582   1.865   6.549   9.330  1.2019  0.1011 -0.6120
  157SAPE  C31117583   1.713   6.425   9.231 -0.3904 -0.0820  0.2473
  157SAPE  H11X17584   1.624   6.472   9.279  2.4670  2.5715  3.5782
  157SAPE  H11Y17585   1.683   6.319   9.220  1.0934 -0.4682 -0.2410
  157SAPE  C31217586   1.745   6.479   9.090  0.3129 -0.2581  1.0573
  157SAPE  H12X17587   1.815   6.412   9.036  0.6032  0.6765  0.2554
  157SAPE  H12Y17588   1.795   6.578   9.093  4.1774 -2.0043  0.1606
  157SAPE  C31317589   1.613   6.478   9.000 -0.3237  0.2107 -1.3542
  157SAPE  H13X17590   1.547   6.543   9.061 -0.1312 -0.0865 -0.8185
  157SAPE  H13Y17591   1.576   6.373   8.994  0.6468 -0.1324 -1.4654
  157SAPE  C31417592   1.632   6.565   8.868 -0.1805 -0.7753  0.1745
  157SAPE  H14X17593   1.664   6.504   8.781 -0.1177  2.3437 -2.1655
  157SAPE  H14Y17594   1.710   6.645   8.877 -0.2203 -0.7076 -0.0850
  157SAPE  C31517595   1.497   6.633   8.831 -0.1338  0.5160  0.0974
  157SAPE  H15X17596   1.462   6.699   8.913 -2.5516  0.5769 -0.9191
  157SAPE  H15Y17597   1.417   6.556   8.826  1.4391 -1.2148  0.1570
  157SAPE  C31617598   1.502   6.696   8.691 -0.1763 -0.3187 -0.4570
  157SAPE  H16X17599   1.525   6.625   8.608 -1.5823 -0.2121 -0.9593
  157SAPE  H16Y17600   1.580   6.774   8.699 -0.9985  0.4520  0.2016
  157SAPE  C31717601   1.370   6.767   8.652  0.3517  0.3732 -0.7541
  157SAPE  H17X17602   1.387   6.839   8.570 -0.9054  2.4471  0.6889
  157SAPE  H17Y17603   1.335   6.824   8.741  2.1436 -0.3466  0.4835
  157SAPE  C31817604   1.255   6.665   8.612  0.5154  0.6166  0.3130
  157SAPE  H18X17605   1.184   6.740   8.570  0.5957  1.3230  1.3980
  157SAPE  H18Y17606   1.199   6.624   8.698  2.5026 -1.8231  0.5624
  157SAPE  H18Z17607   1.297   6.591   8.540  1.8807 -1.0540  2.6761
  158SAPE     N17608   3.914   1.863  10.727 -0.0400  0.0609 -0.1404
  158SAPE   HN117609   4.009   1.863  10.770  0.2418 -2.5888 -0.6198
  158SAPE   HN217610   3.875   1.959  10.719 -1.5924 -0.6213 -1.2844
  158SAPE   HN317611   3.846   1.815  10.790 -0.4719  1.4748  0.5250
  158SAPE   C1217612   3.925   1.792  10.588 -0.3566  0.0405 -0.0248
  158SAPE  H12A17613   3.969   1.692  10.610  1.6771  0.6526 -1.0514
  158SAPE  H12B17614   3.996   1.855  10.529  0.6567 -2.6909 -1.9041
  158SAPE   C1117615   3.793   1.810  10.515  0.4241 -0.2103 -0.2690
  158SAPE  H11A17616   3.721   1.739  10.560 -0.2976 -0.5146 -1.8132
  158SAPE  H11B17617   3.799   1.763  10.414  1.9000  2.3678 -1.4904
  158SAPE     P17618   3.597   1.969  10.466 -0.1457 -0.2968  0.4036
  158SAPE   O1317619   3.525   1.844  10.456  0.0379  0.5280 -0.3272
  158SAPE   O1417620   3.550   2.077  10.557  0.0688 -0.3396 -0.4880
  158SAPE   O1217621   3.747   1.944  10.514  0.3885  0.1478  0.4703
  158SAPE   O1117622   3.631   2.013  10.313  0.4471  0.1298 -0.9590
  158SAPE    C117623   3.695   2.127  10.272  0.0601 -0.3339 -0.4056
  158SAPE    HA17624   3.628   2.208  10.233  0.4973  0.0345 -0.4022
  158SAPE    HB17625   3.749   2.180  10.353  1.2480 -0.4848 -1.0847
  158SAPE    C217626   3.809   2.090  10.170  0.3694  0.6227 -0.7869
  158SAPE    HS17627   3.877   2.176  10.153  1.6757  0.2276  1.9594
  158SAPE   O2117628   3.759   2.041  10.042 -0.0841 -0.2031 -0.2198
  158SAPE   C2117629   3.702   2.131   9.963 -0.0597 -0.1627 -0.3428
  158SAPE   O2217630   3.701   2.252   9.992 -0.7752 -0.0633 -0.1824
  158SAPE   C2217631   3.656   2.067   9.832 -0.3084  0.1986 -0.3686
  158SAPE   H2R17632   3.547   2.052   9.843 -0.4236 -1.7089 -3.1745
  158SAPE   H2S17633   3.663   2.137   9.747  1.3854 -0.0090 -0.4421
  158SAPE    C317634   3.898   1.968  10.225  0.4272  0.2190  0.5655
  158SAPE    HX17635   3.846   1.871  10.215  1.9387 -0.6539  0.8874
  158SAPE    HY17636   3.917   1.989  10.332  0.2519 -0.8295  0.8131
  158SAPE   O3117637   4.024   1.968  10.151 -0.4258 -0.2883  0.3231
  158SAPE   C3117638   4.123   1.916  10.211  0.3208 -1.0981 -0.5505
  158SAPE   O3217639   4.117   1.857  10.317  0.1653  0.4433 -0.5791
  158SAPE   C3217640   4.247   1.962  10.147  0.0096  0.3942  0.9337
  158SAPE   H2X17641   4.336   1.907  10.185  2.5353  2.9928 -0.8351
  158SAPE   H2Y17642   4.261   2.071  10.162 -0.2434  0.7063 -0.8486
  158SAPE   C2317643   3.714   1.923   9.805  0.2391  0.8693 -0.6148
  158SAPE   H3R17644   3.694   1.854   9.890  0.3104 -1.0340 -2.1002
  158SAPE   H3S17645   3.824   1.916   9.814  0.0203 -1.6394  0.8727
  158SAPE   C2417646   3.677   1.866   9.672  0.7120  0.1525 -0.3409
  158SAPE   H4R17647   3.571   1.892   9.653  1.0314  0.9639 -1.0668
  158SAPE   H4S17648   3.684   1.755   9.666  1.8173  0.2697 -2.1924
  158SAPE   C2517649   3.767   1.915   9.560  0.2624 -0.3566 -0.1206
  158SAPE   H5R17650   3.874   1.907   9.585  0.9081  3.1111 -1.2705
  158SAPE   C2617651   3.744   1.965   9.443 -0.0438  0.6330  0.3247
  158SAPE   H6R17652   3.828   2.016   9.392  0.5208 -0.9149 -0.3538
  158SAPE   C2717653   3.604   1.983   9.381 -0.4620 -0.5154 -0.2645
  158SAPE   H7R17654   3.543   2.020   9.466 -0.8256  0.3055 -0.8809
  158SAPE   H7S17655   3.570   1.887   9.337  0.3367 -0.7166 -0.4584
  158SAPE   C2817656   3.609   2.094   9.280 -0.6386  0.0145  0.4745
  158SAPE   H8R17657   3.651   2.188   9.318  1.0222 -0.7690  0.6427
  158SAPE   C2917658   3.593   2.081   9.145  0.8798 -0.8721  0.6164
  158SAPE   H9R17659   3.597   2.175   9.088  2.5973 -0.5524  1.1980
  158SAPE  C21017660   3.562   1.959   9.061  0.1418 -0.2808  0.7828
  158SAPE  H10R17661   3.510   1.995   8.970  1.1540  2.8333  1.3128
  158SAPE  H10S17662   3.492   1.892   9.116  1.7882 -1.1521  1.9215
  158SAPE  C21117663   3.690   1.875   9.028  0.6181  0.8382 -0.3189
  158SAPE  H11R17664   3.742   1.837   9.117 -1.0919 -1.3390 -0.1783
  158SAPE  C21217665   3.750   1.855   8.913 -0.7134 -0.4978 -0.6862
  158SAPE  H12R17666   3.854   1.819   8.914 -0.6533 -0.3834  1.1674
  158SAPE  C21317667   3.709   1.911   8.784  0.2620  0.8875  0.5696
  158SAPE  H13R17668   3.788   1.990   8.777  1.4574 -0.3548 -0.3973
  158SAPE  H13S17669   3.612   1.965   8.784  1.2514  2.7599  0.1108
  158SAPE  C21417670   3.715   1.811   8.661  0.3973 -0.1854 -0.0156
  158SAPE  H14R17671   3.685   1.707   8.684 -1.8562  0.3287 -0.3587
  158SAPE  C21517672   3.727   1.844   8.535 -0.3404  0.4719 -0.6966
  158SAPE  H15R17673   3.706   1.762   8.464 -0.6744 -1.1918  1.2246
  158SAPE  C21617674   3.746   1.982   8.473 -0.0816 -0.9668  0.4067
  158SAPE  H16R17675   3.779   1.973   8.367 -1.5390  1.8666 -0.4062
  158SAPE  H16S17676   3.811   2.046   8.536 -0.9819 -0.0527  0.4444
  158SAPE  C21717677   3.614   2.066   8.474 -0.8886  0.2859 -0.0507
  158SAPE  H17R17678   3.634   2.171   8.445  2.7342 -0.3431 -0.3046
  158SAPE  H17S17679   3.573   2.061   8.577 -0.6286  2.7635  0.2305
  158SAPE  C21817680   3.492   2.011   8.394 -0.0847  0.1411 -0.3528
  158SAPE  H18R17681   3.480   1.902   8.414 -0.6461  0.1646 -0.5371
  158SAPE  H18S17682   3.493   2.027   8.284 -2.2935 -0.6766 -0.5595
  158SAPE  C21917683   3.360   2.073   8.446 -0.4446 -0.4595  0.2328
  158SAPE  H19R17684   3.363   2.179   8.412  0.7997 -0.5960 -0.1313
  158SAPE  H19S17685   3.344   2.087   8.555  3.4377  2.7569  0.6240
  158SAPE  C22017686   3.236   2.007   8.397  0.7521  0.1265 -0.2260
  158SAPE  H20R17687   3.250   1.974   8.292  0.9204 -1.8555  0.3740
  158SAPE  H20S17688   3.147   2.064   8.429  2.1271  2.0129  0.4066
  158SAPE  H20T17689   3.238   1.918   8.464  1.4476  0.9124  0.8364
  158SAPE   C3317690   4.257   1.964   9.992 -0.4843 -0.2397 -0.1225
  158SAPE   H3X17691   4.344   2.029   9.972 -0.8424 -0.0854 -1.2898
  158SAPE   H3Y17692   4.172   2.001   9.930 -1.4575 -0.1616  1.2198
  158SAPE   C3417693   4.292   1.824   9.943  0.2070  0.0586  1.2274
  158SAPE   H4X17694   4.209   1.751   9.953  0.3922 -0.4997 -0.7707
  158SAPE   H4Y17695   4.375   1.789  10.009  0.4741 -0.1565  0.7861
  158SAPE   C3517696   4.338   1.813   9.790  0.1593  0.3624  0.1441
  158SAPE   H5X17697   4.346   1.704   9.769  0.8626  0.3274  0.5472
  158SAPE   H5Y17698   4.433   1.867   9.775  0.2105 -0.2172 -1.8924
  158SAPE   C3617699   4.248   1.890   9.689 -1.1873 -0.3872  0.4132
  158SAPE   H6X17700   4.282   1.995   9.684 -1.0802 -0.4236  0.3659
  158SAPE   H6Y17701   4.143   1.896   9.724 -1.1319  1.4476  0.3298
  158SAPE   C3717702   4.236   1.833   9.546 -0.2333  0.8903 -0.2903
  158SAPE   H7X17703   4.191   1.732   9.555  0.2758  0.7908  1.4659
  158SAPE   H7Y17704   4.339   1.822   9.505  0.1693  0.0147  0.9128
  158SAPE   C3817705   4.162   1.933   9.453  0.4687  0.6643  0.3307
  158SAPE   H8X17706   4.219   2.027   9.466  2.4219 -0.3521 -0.3737
  158SAPE   H8Y17707   4.061   1.955   9.493 -1.5609 -0.0561 -3.8640
  158SAPE   C3917708   4.146   1.899   9.306  0.4686  0.0957 -0.3081
  158SAPE   H9X17709   4.067   1.821   9.300 -0.8363  1.4020 -0.6924
  158SAPE   H9Y17710   4.245   1.881   9.257  0.0589 -1.7736 -0.5551
  158SAPE  C31017711   4.080   2.022   9.227  0.3198 -0.6539  0.2079
  158SAPE  H10X17712   4.129   2.118   9.255  1.6455 -1.1654 -0.2565
  158SAPE  H10Y17713   3.977   2.030   9.266  0.6461 -0.0476  0.9758
  158SAPE  C31117714   4.064   2.000   9.074 -0.2274  0.2312 -0.0221
  158SAPE  H11X17715   4.020   2.092   9.030  0.7165  0.9143  0.4237
  158SAPE  H11Y17716   4.007   1.908   9.046 -1.5410  0.9682  0.1487
  158SAPE  C31217717   4.196   1.989   9.008  0.0586 -0.0561 -0.8575
  158SAPE  H12X17718   4.243   1.899   9.054 -1.9039  0.5990  2.7449
  158SAPE  H12Y17719   4.269   2.069   9.032  1.4977 -1.7732  0.7385
  158SAPE  C31317720   4.174   1.974   8.850  1.2085 -0.3905  0.1070
  158SAPE  H13X17721   4.157   2.075   8.806 -0.3012 -0.5578  0.2581
  158SAPE  H13Y17722   4.083   1.911   8.837  0.0943  0.4955  2.7889
  158SAPE  C31417723   4.292   1.909   8.774 -0.3470 -0.1484  0.8205
  158SAPE  H14X17724   4.313   1.805   8.809  3.9989  0.7689  1.5307
  158SAPE  H14Y17725   4.375   1.974   8.809 -0.2101  0.1844 -0.1074
  158SAPE  C31517726   4.277   1.918   8.622  0.7369 -0.9488  0.7382
  158SAPE  H15X17727   4.372   1.880   8.578  2.0793  2.4360  0.4526
  158SAPE  H15Y17728   4.271   2.026   8.600  0.7465 -0.5796  2.4156
  158SAPE  C31617729   4.150   1.842   8.572 -0.5196 -0.8111 -0.6131
  158SAPE  H16X17730   4.131   1.881   8.469  0.2638  1.5903  0.0734
  158SAPE  H16Y17731   4.057   1.841   8.633 -0.0516  0.9797  0.1863
  158SAPE  C31717732   4.186   1.692   8.560  0.0249 -0.0574 -0.1776
  158SAPE  H17X17733   4.223   1.645   8.653 -1.5234 -0.7281  0.1430
  158SAPE  H17Y17734   4.277   1.693   8.497  1.3065 -0.1538  1.5961
  158SAPE  C31817735   4.062   1.606   8.513 -0.6646 -0.2648  0.3432
  158SAPE  H18X17736   4.014   1.572   8.607 -1.4342 -0.5939 -0.1556
  158SAPE  H18Y17737   4.098   1.513   8.464  1.5934  1.1707 -0.8705
  158SAPE  H18Z17738   3.990   1.676   8.466  0.6491  1.5119  0.8740
  159SAPE     N17739   1.383   6.080   6.610  0.5008 -0.1004 -0.0298
  159SAPE   HN117740   1.474   6.061   6.656  0.8715  0.5307 -0.4941
  159SAPE   HN217741   1.309   6.053   6.679  0.2461 -0.6891 -0.5266
  159SAPE   HN317742   1.365   6.025   6.523  1.8126  0.1357 -0.4705
  159SAPE   C1217743   1.385   6.223   6.570  0.4443 -0.4914 -0.4695
  159SAPE  H12A17744   1.452   6.240   6.483  1.6442 -0.5998  0.4106
  159SAPE  H12B17745   1.421   6.271   6.664 -1.6788 -0.6252  0.4676
  159SAPE   C1117746   1.241   6.283   6.563  0.2077  0.0467  0.1652
  159SAPE  H11A17747   1.218   6.289   6.454  0.2924 -0.2213  0.1308
  159SAPE  H11B17748   1.243   6.385   6.606 -2.2148  0.3376 -0.2712
  159SAPE     P17749   1.040   6.112   6.546 -0.4576 -0.0120 -0.4879
  159SAPE   O1317750   0.978   6.192   6.445  0.0097 -0.7407 -0.5433
  159SAPE   O1417751   1.119   5.996   6.498  0.3239  0.9526  0.3226
  159SAPE   O1217752   1.137   6.206   6.633 -0.5101  0.6142 -0.4406
  159SAPE   O1117753   0.921   6.059   6.643 -0.0009 -0.3716 -0.5657
  159SAPE    C117754   0.907   6.125   6.768  0.5497  0.7137  0.0493
  159SAPE    HA17755   0.999   6.173   6.809  1.1194 -0.2178 -0.1067
  159SAPE    HB17756   0.832   6.207   6.769  1.8324  1.9297 -0.4707
  159SAPE    C217757   0.864   6.022   6.878  0.6043  0.5479  0.0742
  159SAPE    HS17758   0.764   5.992   6.841  0.2862  1.6320  0.0370
  159SAPE   O2117759   0.867   6.085   7.005  0.2645  0.0000  0.2121
  159SAPE   C2117760   0.791   6.029   7.091 -0.6431 -0.4359 -0.2554
  159SAPE   O2217761   0.727   5.928   7.081  0.7644  0.2401  0.5564
  159SAPE   C2217762   0.790   6.116   7.215  0.0119 -0.0895  0.1503
  159SAPE   H2R17763   0.818   6.222   7.196 -2.6475  0.8613  0.9993
  159SAPE   H2S17764   0.681   6.139   7.224 -0.2688 -0.7137 -1.3493
  159SAPE    C317765   0.955   5.896   6.874  0.0953 -0.0228  0.4621
  159SAPE    HX17766   0.978   5.863   6.770 -1.7423  0.4051 -0.1060
  159SAPE    HY17767   0.888   5.813   6.902 -0.2263 -0.3780 -1.2631
  159SAPE   O3117768   1.067   5.899   6.970  0.0959  0.4226  0.5394
  159SAPE   C3117769   1.185   5.933   6.920  0.3280  0.6038 -0.0107
  159SAPE   O3217770   1.206   5.972   6.802 -0.1452 -0.2028  0.3954
  159SAPE   C3217771   1.294   5.931   7.026  0.1286  0.0310 -0.1808
  159SAPE   H2X17772   1.322   5.824   7.032 -0.6820 -0.2090 -0.6414
  159SAPE   H2Y17773   1.240   5.963   7.118 -1.8742 -1.6057 -0.7384
  159SAPE   C2317774   0.834   6.044   7.336 -0.1245 -0.2773 -0.3725
  159SAPE   H3R17775   0.790   5.944   7.353  0.7293 -0.7187 -0.7065
  159SAPE   H3S17776   0.802   6.102   7.426  0.8546  0.1822 -0.3094
  159SAPE   C2417777   0.984   6.026   7.347 -0.3687  0.1459 -0.5467
  159SAPE   H4R17778   1.011   5.975   7.252 -1.0669  1.3582 -1.4276
  159SAPE   H4S17779   1.002   5.964   7.437  0.1013  1.5050  0.3280
  159SAPE   C2517780   1.065   6.155   7.359  0.7962 -0.0044 -0.6652
  159SAPE   H5R17781   1.103   6.190   7.262  0.2109  0.0376 -0.8837
  159SAPE   C2617782   1.094   6.230   7.475 -0.2863 -0.5088  0.1445
  159SAPE   H6R17783   1.160   6.318   7.473  0.6035 -1.0764  1.9373
  159SAPE   C2717784   1.040   6.200   7.608 -0.4251 -0.6048  0.0420
  159SAPE   H7R17785   1.118   6.168   7.681 -0.5235 -1.5438 -0.2476
  159SAPE   H7S17786   0.965   6.118   7.607 -1.0939 -0.0505 -2.6115
  159SAPE   C2817787   0.969   6.326   7.662 -0.1311  0.5133 -0.1742
  159SAPE   H8R17788   0.871   6.340   7.613 -0.9318 -1.0763  0.8784
  159SAPE   C2917789   1.016   6.411   7.753  0.2573 -0.5622 -0.4491
  159SAPE   H9R17790   0.948   6.495   7.776  0.8011 -0.3489  0.3865
  159SAPE  C21017791   1.153   6.420   7.821  0.1301  0.0360 -0.0691
  159SAPE  H10R17792   1.202   6.518   7.801 -0.8911  0.6838  0.5231
  159SAPE  H10S17793   1.221   6.346   7.774 -1.6640 -1.7162 -0.0825
  159SAPE  C21117794   1.151   6.395   7.972  0.4459 -0.2449  0.1001
  159SAPE  H11R17795   1.128   6.290   7.993 -0.8962 -0.3034 -1.4671
  159SAPE  C21217796   1.158   6.484   8.076 -0.1656 -0.2755  0.6126
  159SAPE  H12R17797   1.161   6.446   8.179 -0.0291 -1.5124  0.1652
  159SAPE  C21317798   1.182   6.640   8.068  0.1001  0.7073 -0.1674
  159SAPE  H13R17799   1.092   6.697   8.099  2.2362  2.3920  3.4878
  159SAPE  H13S17800   1.202   6.667   7.962  0.1052 -0.5157 -0.5051
  159SAPE  C21417801   1.301   6.676   8.153  0.4931  0.2580  1.0539
  159SAPE  H14R17802   1.387   6.609   8.157 -1.1116 -1.9290  0.6940
  159SAPE  C21517803   1.303   6.779   8.239  1.1516  0.1717 -0.2273
  159SAPE  H15R17804   1.391   6.791   8.304 -0.3531 -1.3423  2.2605
  159SAPE  C21617805   1.199   6.881   8.277  0.5426  0.0108  0.4335
  159SAPE  H16R17806   1.174   6.873   8.385 -1.5251 -1.2898 -0.0854
  159SAPE  H16S17807   1.106   6.860   8.219 -0.8309 -1.5541  2.9991
  159SAPE  C21717808   1.239   7.025   8.253 -0.3966 -0.1479 -1.3305
  159SAPE  H17R17809   1.327   7.035   8.320 -0.2927 -0.0550 -1.4808
  159SAPE  H17S17810   1.150   7.068   8.305  0.0986 -0.3102 -0.3064
  159SAPE  C21817811   1.267   7.068   8.112  0.2939 -0.1385 -0.4150
  159SAPE  H18R17812   1.171   7.048   8.061 -0.0103 -1.0591  0.4875
  159SAPE  H18S17813   1.347   7.012   8.059  0.7542  2.4311 -2.6433
  159SAPE  C21917814   1.301   7.222   8.101  0.6403  0.2281  0.4228
  159SAPE  H19R17815   1.319   7.254   7.996  0.7632  2.9214  1.1774
  159SAPE  H19S17816   1.392   7.238   8.163  0.6925 -0.5269  0.5490
  159SAPE  C22017817   1.191   7.313   8.150 -0.1769  0.2203 -0.5535
  159SAPE  H20R17818   1.232   7.416   8.140  0.3286  0.1939  0.9838
  159SAPE  H20S17819   1.152   7.301   8.253  0.1323  3.2470  0.0094
  159SAPE  H20T17820   1.103   7.297   8.084  1.3171  1.5957 -3.0369
  159SAPE   C3317821   1.416   6.017   6.987 -0.8546 -0.4738  0.0102
  159SAPE   H3X17822   1.394   6.125   6.996  0.8621  0.0157 -1.0390
  159SAPE   H3Y17823   1.449   6.004   6.882  1.2798  2.5511  0.1827
  159SAPE   C3417824   1.530   5.985   7.085 -0.2059 -0.3525  0.0639
  159SAPE   H4X17825   1.630   6.022   7.053 -0.2818  0.8231  1.0919
  159SAPE   H4Y17826   1.534   5.874   7.088  0.4783 -0.4313 -2.1618
  159SAPE   C3517827   1.506   6.050   7.233 -0.0151  0.2026  0.5811
  159SAPE   H5X17828   1.401   6.037   7.266  0.1062 -0.5870  0.6613
  159SAPE   H5Y17829   1.533   6.157   7.215 -1.1848  0.2363 -1.1443
  159SAPE   C3617830   1.592   5.987   7.333 -0.2838  0.5072 -0.3057
  159SAPE   H6X17831   1.699   5.991   7.303  0.1859  3.6931  1.3739
  159SAPE   H6Y17832   1.567   5.881   7.353  1.1738 -0.7870 -4.3169
  159SAPE   C3717833   1.591   6.059   7.473  0.0064  0.1150  0.8278
  159SAPE   H7X17834   1.614   6.167   7.456  2.0092 -0.2999  0.6287
  159SAPE   H7Y17835   1.674   6.000   7.517  0.9160 -0.2187 -1.1978
  159SAPE   C3817836   1.457   6.047   7.550 -0.7020  0.5808 -0.4216
  159SAPE   H8X17837   1.459   5.943   7.590  2.5538  0.1403 -1.4158
  159SAPE   H8Y17838   1.375   6.043   7.475 -1.7908  0.6525  0.7229
  159SAPE   C3917839   1.440   6.152   7.653 -0.2709  0.7720  0.1277
  159SAPE   H9X17840   1.343   6.132   7.704  0.5920 -1.1928  1.0849
  159SAPE   H9Y17841   1.439   6.255   7.612 -1.4407  0.7131 -0.0316
  159SAPE  C31017842   1.542   6.153   7.769 -0.1900  0.5444  0.9612
  159SAPE  H10X17843   1.634   6.202   7.731  1.4561 -1.0118  2.7429
  159SAPE  H10Y17844   1.569   6.048   7.795  2.4837  0.9398  0.0897
  159SAPE  C31117845   1.488   6.216   7.901  0.2667 -0.2946  0.3593
  159SAPE  H11X17846   1.402   6.150   7.925 -0.3619  0.7470  1.0520
  159SAPE  H11Y17847   1.459   6.323   7.899  0.8768 -0.0688  1.8270
  159SAPE  C31217848   1.597   6.210   8.017  0.4604 -0.3398  0.2927
  159SAPE  H12X17849   1.688   6.264   7.980 -1.5529  1.7549 -1.9942
  159SAPE  H12Y17850   1.619   6.104   8.041 -3.0086 -0.9935  1.0957
  159SAPE  C31317851   1.549   6.288   8.140  0.0526  0.8420  0.2140
  159SAPE  H13X17852   1.535   6.394   8.109  0.6884  0.4208 -1.6155
  159SAPE  H13Y17853   1.630   6.288   8.217 -0.0449 -0.5610  0.3280
  159SAPE  C31417854   1.425   6.236   8.210  0.7462  0.2928 -0.1392
  159SAPE  H14X17855   1.420   6.128   8.237  1.8869 -0.2216 -1.8261
  159SAPE  H14Y17856   1.334   6.261   8.152  0.1767 -2.5433 -0.6126
  159SAPE  C31517857   1.408   6.314   8.341  0.4077  0.2053 -0.2282
  159SAPE  H15X17858   1.398   6.423   8.327 -1.2842  0.4623  2.3527
  159SAPE  H15Y17859   1.496   6.297   8.406  0.2795 -0.1606 -0.1463
  159SAPE  C31617860   1.297   6.253   8.424 -0.1715 -0.2465  0.1021
  159SAPE  H16X17861   1.309   6.143   8.415  1.0033 -0.1290  0.0192
  159SAPE  H16Y17862   1.199   6.287   8.386  0.3292 -1.1369 -2.1771
  159SAPE  C31717863   1.305   6.277   8.574  0.3363  0.0058 -0.3826
  159SAPE  H17X17864   1.254   6.372   8.604  1.9280  0.3204  1.6245
  159SAPE  H17Y17865   1.411   6.296   8.603 -0.7946  3.0959  2.4040
  159SAPE  C31817866   1.247   6.166   8.657  0.7477  0.8079  0.2285
  159SAPE  H18X17867   1.310   6.075   8.657  1.2567  1.0443 -3.2855
  159SAPE  H18Y17868   1.147   6.133   8.622  1.7376 -0.3137 -1.7300
  159SAPE  H18Z17869   1.230   6.199   8.762  1.7380  0.7019  0.4349
  160SAPE     N17870   6.772   6.760   6.513  0.2473  0.0205  0.1135
  160SAPE   HN117871   6.782   6.692   6.435  0.0253  1.4461 -1.2134
  160SAPE   HN217872   6.674   6.786   6.534  0.7837  2.2277  0.1620
  160SAPE   HN317873   6.815   6.840   6.462  0.2782  0.2144  0.4463
  160SAPE   C1217874   6.845   6.730   6.641 -0.1796  0.1336  0.0497
  160SAPE  H12A17875   6.949   6.694   6.622 -0.8909 -1.5192 -0.9781
  160SAPE  H12B17876   6.797   6.636   6.675  1.9029 -1.3171 -0.8052
  160SAPE   C1117877   6.836   6.854   6.738 -0.0385  0.0530  0.7665
  160SAPE  H11A17878   6.858   6.815   6.839  0.5644 -0.3703  0.4793
  160SAPE  H11B17879   6.730   6.888   6.740 -0.5103 -1.1589 -1.0491
  160SAPE     P17880   7.066   6.976   6.702 -0.4154  0.0064 -0.0996
  160SAPE   O1317881   7.140   6.914   6.586  0.4078 -0.2563  0.2579
  160SAPE   O1417882   7.103   7.115   6.738  0.3601 -0.5492 -0.2033
  160SAPE   O1217883   6.914   6.963   6.690 -0.5127  0.0033 -0.3278
  160SAPE   O1117884   7.096   6.885   6.829  0.1269 -0.1360  0.0656
  160SAPE    C117885   7.216   6.874   6.902  0.1983 -0.1914 -0.4730
  160SAPE    HA17886   7.246   6.767   6.911  1.3528  0.1696  0.1224
  160SAPE    HB17887   7.298   6.914   6.840 -1.0325  2.2712 -0.6433
  160SAPE    C217888   7.203   6.944   7.038 -0.6143 -0.3890 -0.4518
  160SAPE    HS17889   7.291   6.918   7.100 -0.5950  0.1309 -0.2538
  160SAPE   O2117890   7.077   6.913   7.101 -0.2893  0.3318 -0.2973
  160SAPE   C2117891   7.053   6.783   7.125 -0.5978 -0.6631  0.1249
  160SAPE   O2217892   7.120   6.690   7.099 -0.2317 -0.5967  0.0119
  160SAPE   C2217893   6.927   6.775   7.211 -0.6188  0.3221  0.1654
  160SAPE   H2R17894   6.934   6.862   7.280 -0.2132  0.7691 -0.4252
  160SAPE   H2S17895   6.840   6.788   7.143  0.9086 -1.3642 -2.3096
  160SAPE    C317896   7.220   7.093   7.021 -0.0664  0.0808 -0.4470
  160SAPE    HX17897   7.127   7.137   6.979 -0.2191 -0.5388 -0.7577
  160SAPE    HY17898   7.300   7.129   6.953  1.6492  2.3637  2.4814
  160SAPE   O3117899   7.232   7.152   7.155 -0.1800 -0.4341  0.3965
  160SAPE   C3117900   7.245   7.285   7.161 -0.0639 -0.2742  0.3254
  160SAPE   O3217901   7.256   7.367   7.071  0.3993  0.0065  0.7874
  160SAPE   C3217902   7.238   7.337   7.308 -0.3632 -0.3880 -0.4604
  160SAPE   H2X17903   7.343   7.321   7.342 -0.4064  0.0574 -0.1033
  160SAPE   H2Y17904   7.161   7.280   7.364 -0.2025 -0.9795 -0.8319
  160SAPE   C2317905   6.915   6.638   7.292 -0.4663 -0.2127 -0.3278
  160SAPE   H3R17906   6.925   6.559   7.215  0.2639 -1.0282  0.5738
  160SAPE   H3S17907   6.813   6.628   7.335 -0.5594  0.7458 -0.2990
  160SAPE   C2417908   7.002   6.632   7.423 -0.0168  0.4666  0.1737
  160SAPE   H4R17909   6.983   6.718   7.490  1.7428  0.8086  0.2938
  160SAPE   H4S17910   7.103   6.670   7.399 -0.0107  1.0067  1.0104
  160SAPE   C2517911   6.998   6.503   7.502  0.1268  0.4444  0.0160
  160SAPE   H5R17912   7.054   6.418   7.463  1.9243  1.2658  0.7053
  160SAPE   C2617913   6.962   6.493   7.637  0.0179  0.0617 -1.1622
  160SAPE   H6R17914   6.949   6.392   7.677  0.1922 -0.0411 -1.3637
  160SAPE   C2717915   6.924   6.609   7.726 -0.2298 -0.2830 -0.2220
  160SAPE   H7R17916   6.886   6.691   7.662  1.3459  0.3735 -0.3562
  160SAPE   H7S17917   7.015   6.647   7.778  0.4396 -2.3881  0.2440
  160SAPE   C2817918   6.820   6.574   7.830  0.0348 -0.4229  0.0254
  160SAPE   H8R17919   6.719   6.555   7.789  0.8193  1.2531 -3.0004
  160SAPE   C2917920   6.830   6.602   7.962  0.2753  0.0766 -0.1986
  160SAPE   H9R17921   6.747   6.577   8.030 -0.1454 -0.2830 -0.8382
  160SAPE  C21017922   6.954   6.645   8.039 -0.2554  0.6433  0.4178
  160SAPE  H10R17923   6.926   6.725   8.111 -2.7770  2.6007 -2.4365
  160SAPE  H10S17924   7.025   6.693   7.969 -0.0323 -0.6690 -0.2985
  160SAPE  C21117925   7.018   6.527   8.105  0.0108 -0.0524  0.5114
  160SAPE  H11R17926   7.078   6.480   8.026  0.2430  0.3099  0.4667
  160SAPE  C21217927   7.003   6.487   8.229 -0.1368  0.7446 -0.1974
  160SAPE  H12R17928   7.056   6.403   8.275 -1.6916  0.5825  1.4232
  160SAPE  C21317929   6.909   6.555   8.331 -0.3064 -0.0513 -0.5851
  160SAPE  H13R17930   6.804   6.524   8.316  0.2536 -1.1347 -2.5837
  160SAPE  H13S17931   6.902   6.664   8.310 -0.5477  0.2743  1.0610
  160SAPE  C21417932   6.960   6.537   8.470 -0.6241  0.5733 -0.4505
  160SAPE  H14R17933   6.936   6.446   8.527 -0.6541 -1.3573 -3.3772
  160SAPE  C21517934   7.052   6.620   8.513  0.1726 -0.4757  0.9965
  160SAPE  H15R17935   7.099   6.591   8.608 -0.6377 -0.8632  1.2865
  160SAPE  C21617936   7.114   6.731   8.433  0.6125 -0.2005  0.8387
  160SAPE  H16R17937   7.035   6.783   8.375 -1.0145 -1.2857  2.0061
  160SAPE  H16S17938   7.183   6.688   8.357 -0.7512 -0.0126 -0.5542
  160SAPE  C21717939   7.191   6.826   8.522 -0.2490  0.1079  0.2937
  160SAPE  H17R17940   7.245   6.896   8.454  0.9227  1.1067  2.1598
  160SAPE  H17S17941   7.264   6.765   8.580  1.2812  1.5036 -0.0671
  160SAPE  C21817942   7.088   6.905   8.604  0.2545 -0.1681  0.6886
  160SAPE  H18R17943   7.016   6.835   8.653 -0.9347  0.2482 -0.4414
  160SAPE  H18S17944   7.036   6.977   8.538  1.5915 -0.7515 -1.0789
  160SAPE  C21917945   7.150   7.002   8.708  0.3154 -0.3923 -0.3434
  160SAPE  H19R17946   7.234   7.053   8.656 -0.6555  1.5661 -0.0834
  160SAPE  H19S17947   7.189   6.931   8.784 -0.0404 -1.0690 -0.7770
  160SAPE  C22017948   7.041   7.093   8.770  0.1015  0.1728 -0.0244
  160SAPE  H20R17949   6.954   7.037   8.811 -0.3353 -1.5264 -2.9712
  160SAPE  H20S17950   6.990   7.160   8.697  3.0950  2.2921 -0.3734
  160SAPE  H20T17951   7.098   7.158   8.840  4.2295 -1.2325 -1.7556
  160SAPE   C3317952   7.222   7.493   7.341 -0.3026 -0.2653 -0.3425
  160SAPE   H3X17953   7.126   7.518   7.292 -0.0298  0.4125 -0.5484
  160SAPE   H3Y17954   7.301   7.546   7.284 -1.3850  1.0829 -0.6269
  160SAPE   C3417955   7.223   7.534   7.488  0.2699 -0.3088  0.2076
  160SAPE   H4X17956   7.202   7.455   7.563  3.5022 -1.5573 -0.0218
  160SAPE   H4Y17957   7.146   7.611   7.506  0.5951 -0.0022  0.3043
  160SAPE   C3517958   7.358   7.601   7.530 -0.2056 -0.0300  0.1163
  160SAPE   H5X17959   7.373   7.691   7.467  3.1819 -0.7118 -0.2122
  160SAPE   H5Y17960   7.441   7.532   7.506 -0.8186 -0.4573 -0.8467
  160SAPE   C3617961   7.356   7.643   7.680 -0.0721 -0.1630 -0.2032
  160SAPE   H6X17962   7.457   7.678   7.712  0.1914  0.2326 -1.4065
  160SAPE   H6Y17963   7.317   7.559   7.741 -1.7922 -0.3378 -1.4767
  160SAPE   C3717964   7.266   7.759   7.706  0.1660  0.1057  0.4870
  160SAPE   H7X17965   7.172   7.721   7.659  0.7057 -3.4724  1.9556
  160SAPE   H7Y17966   7.309   7.839   7.643 -1.7696  0.4207 -0.5277
  160SAPE   C3817967   7.245   7.788   7.853  1.0177  0.4992  0.1452
  160SAPE   H8X17968   7.333   7.835   7.901  2.3412 -1.7632  0.0307
  160SAPE   H8Y17969   7.238   7.687   7.898 -1.8079  0.2075 -0.7231
  160SAPE   C3917970   7.115   7.871   7.874  0.2546  0.2154 -0.4827
  160SAPE   H9X17971   7.033   7.824   7.816 -0.3193  2.3933 -1.5579
  160SAPE   H9Y17972   7.141   7.968   7.827  1.7376 -0.0552 -0.2789
  160SAPE  C31017973   7.092   7.881   8.025  0.4904 -0.1361 -0.1699
  160SAPE  H10X17974   7.176   7.943   8.065 -0.9369  2.6290 -1.1722
  160SAPE  H10Y17975   7.091   7.786   8.082 -2.2340 -0.2122 -0.2306
  160SAPE  C31117976   6.970   7.965   8.064 -0.1958  0.0267  0.2784
  160SAPE  H11X17977   6.896   7.930   7.989  1.0998 -2.3923  0.0165
  160SAPE  H11Y17978   6.983   8.073   8.041  1.6540 -0.6906 -2.4033
  160SAPE  C31217979   6.939   7.931   8.210 -0.3296  0.4134  0.8299
  160SAPE  H12X17980   7.034   7.937   8.268 -0.2722 -2.6259  1.2210
  160SAPE  H12Y17981   6.911   7.823   8.210 -0.3362  0.3731 -1.3109
  160SAPE  C31317982   6.822   8.011   8.251  0.9926 -0.2896  0.0125
  160SAPE  H13X17983   6.723   7.987   8.207 -1.5887  2.4091  3.7434
  160SAPE  H13Y17984   6.836   8.116   8.217  1.8247 -0.1603  0.7301
  160SAPE  C31417985   6.792   8.011   8.399  0.1222  0.4100 -1.0002
  160SAPE  H14X17986   6.705   8.077   8.422 -0.5135 -0.4419 -0.9425
  160SAPE  H14Y17987   6.876   8.053   8.459  1.7035 -1.7243 -1.6157
  160SAPE  C31517988   6.771   7.867   8.455  0.3611  0.7187  0.1717
  160SAPE  H15X17989   6.761   7.872   8.565  0.1726 -1.8655  0.3343
  160SAPE  H15Y17990   6.854   7.798   8.428 -1.1499 -1.6196  1.2073
  160SAPE  C31617991   6.639   7.804   8.402 -0.3299  0.2397 -0.5796
  160SAPE  H16X17992   6.664   7.763   8.301 -0.8340 -1.5208 -0.0298
  160SAPE  H16Y17993   6.561   7.882   8.391 -0.8200  0.0079  1.1174
  160SAPE  C31717994   6.600   7.683   8.475  0.4062  0.3208 -0.0570
  160SAPE  H17X17995   6.610   7.698   8.584 -2.4534  1.7766  0.0993
  160SAPE  H17Y17996   6.687   7.617   8.457  0.9618  0.7908  0.8520
  160SAPE  C31817997   6.470   7.614   8.431 -0.3613 -1.2022 -0.9514
  160SAPE  H18X17998   6.466   7.509   8.467 -1.2312 -2.3003 -3.9405
  160SAPE  H18Y17999   6.482   7.603   8.321  2.0496 -1.2888 -0.7267
  160SAPE  H18Z18000   6.373   7.667   8.441  0.7108  1.7121 -3.8719
  161SAPE     N18001   3.350   4.717   6.449 -0.7880 -0.1625  0.5384
  161SAPE   HN118002   3.266   4.677   6.402  1.8417 -1.2308 -3.8350
  161SAPE   HN218003   3.389   4.670   6.534 -2.9036 -0.5828  1.3390
  161SAPE   HN318004   3.320   4.813   6.473 -1.4497 -0.3848  0.6232
  161SAPE   C1218005   3.453   4.736   6.340  0.6084  0.5235 -0.3466
  161SAPE  H12A18006   3.400   4.786   6.256 -1.4931  2.4489  1.9919
  161SAPE  H12B18007   3.486   4.630   6.326 -0.8777  0.0348 -0.3289
  161SAPE   C1118008   3.562   4.832   6.389  0.3063  0.0192 -0.1208
  161SAPE  H11A18009   3.644   4.824   6.315  2.4531  0.2633  2.0894
  161SAPE  H11B18010   3.601   4.807   6.490 -2.0624  1.3248  1.2009
  161SAPE     P18011   3.589   5.079   6.462  0.5519 -0.2803  0.2182
  161SAPE   O1318012   3.735   5.090   6.430 -0.0285 -0.1017  0.0924
  161SAPE   O1418013   3.510   5.202   6.454  0.4994 -0.6439  0.1899
  161SAPE   O1218014   3.507   4.962   6.395  0.0344 -0.3395 -0.7896
  161SAPE   O1118015   3.593   5.036   6.609  0.1254 -0.1962  0.0723
  161SAPE    C118016   3.483   5.008   6.683  0.6512 -0.1134 -1.1653
  161SAPE    HA18017   3.397   5.073   6.658 -0.1622 -0.6821  0.0970
  161SAPE    HB18018   3.443   4.906   6.663  1.1210 -0.1994 -1.7044
  161SAPE    C218019   3.529   5.020   6.833 -0.3124 -0.1865 -0.2897
  161SAPE    HS18020   3.601   4.937   6.842  1.7172  1.2959 -1.8870
  161SAPE   O2118021   3.414   5.014   6.918 -0.2892 -0.2341  0.1507
  161SAPE   C2118022   3.379   4.901   6.957  0.6704  0.7067  0.1744
  161SAPE   O2218023   3.439   4.799   6.924  0.4401  0.2970 -0.0546
  161SAPE   C2218024   3.244   4.912   7.042 -0.4839  0.4250  0.0850
  161SAPE   H2R18025   3.278   4.980   7.123  2.7642  0.7073 -1.3390
  161SAPE   H2S18026   3.169   4.959   6.974 -1.6800 -2.3976 -0.6846
  161SAPE    C318027   3.608   5.154   6.862 -0.3853  0.6128  0.7500
  161SAPE    HX18028   3.536   5.239   6.864  2.5349  3.3638 -0.9136
  161SAPE    HY18029   3.664   5.181   6.769 -1.5741  1.1833  0.1674
  161SAPE   O3118030   3.689   5.142   6.983  0.2381 -0.3906  0.2004
  161SAPE   C3118031   3.631   5.199   7.092 -0.1992  0.1745  0.0010
  161SAPE   O3218032   3.539   5.281   7.090  0.1307  0.5015  0.2463
  161SAPE   C3218033   3.698   5.142   7.214 -0.1798 -1.0249  0.2950
  161SAPE   H2X18034   3.798   5.189   7.219 -0.1119 -1.0605 -0.5518
  161SAPE   H2Y18035   3.724   5.035   7.201  0.0736 -1.1847  1.8661
  161SAPE   C2318036   3.188   4.774   7.091 -0.0011  0.2368  0.0174
  161SAPE   H3R18037   3.266   4.709   7.136 -2.3977 -1.3748  2.1145
  161SAPE   H3S18038   3.133   4.721   7.010 -0.2928  0.8951 -0.2234
  161SAPE   C2418039   3.076   4.816   7.195  0.2519 -0.3317 -0.1624
  161SAPE   H4R18040   3.016   4.892   7.140  2.1403  0.2314 -1.5486
  161SAPE   H4S18041   3.132   4.868   7.276  1.8565 -1.2533 -0.6359
  161SAPE   C2518042   2.994   4.692   7.216  0.4091 -0.1671  0.0639
  161SAPE   H5R18043   2.944   4.648   7.128 -3.7975  0.4665  1.9007
  161SAPE   C2618044   2.975   4.628   7.333  0.1455 -0.3162 -0.2340
  161SAPE   H6R18045   2.921   4.532   7.325 -1.1795  0.5214 -1.8161
  161SAPE   C2718046   3.024   4.678   7.468 -0.4371  0.5720 -1.9405
  161SAPE   H7R18047   3.078   4.775   7.466  0.7002  0.0122 -0.3349
  161SAPE   H7S18048   3.097   4.607   7.511  0.7714  2.1721 -1.2882
  161SAPE   C2818049   2.902   4.696   7.563  0.3246 -0.3816 -0.5886
  161SAPE   H8R18050   2.821   4.755   7.516  0.1386  0.9106  1.2804
  161SAPE   C2918051   2.888   4.661   7.691  0.3482  0.1915 -0.2124
  161SAPE   H9R18052   2.787   4.661   7.733  0.3548 -3.6349  0.0831
  161SAPE  C21018053   2.988   4.576   7.769  0.7656  0.6100 -0.0885
  161SAPE  H10R18054   3.070   4.533   7.707 -1.6779 -2.1251 -1.6966
  161SAPE  H10S18055   2.943   4.490   7.823  1.4375 -0.6150 -1.4112
  161SAPE  C21118056   3.048   4.664   7.881 -0.7679  0.4839  0.1699
  161SAPE  H11R18057   3.115   4.745   7.848  0.5401 -0.5803  0.1292
  161SAPE  C21218058   3.004   4.667   8.012  0.2619 -0.3902  0.2951
  161SAPE  H12R18059   3.050   4.728   8.091 -0.8734  1.0808 -0.1297
  161SAPE  C21318060   2.901   4.590   8.080  0.1957 -0.5971  0.5932
  161SAPE  H13R18061   2.840   4.538   8.003 -1.9701  3.6159 -0.8634
  161SAPE  H13S18062   2.828   4.655   8.133  0.8293  0.6954 -0.0829
  161SAPE  C21418063   2.966   4.486   8.159 -0.5343  0.4772 -0.0086
  161SAPE  H14R18064   3.047   4.427   8.113  1.7893  3.3406  0.0766
  161SAPE  C21518065   2.945   4.459   8.289  0.3444 -0.2890  0.4001
  161SAPE  H15R18066   2.996   4.367   8.321 -2.0231 -1.9695 -0.3337
  161SAPE  C21618067   2.845   4.527   8.385 -0.2350 -0.1322  0.0202
  161SAPE  H16R18068   2.833   4.466   8.477  1.9438 -0.4715  0.1295
  161SAPE  H16S18069   2.746   4.534   8.334  0.6309 -0.9888 -1.8725
  161SAPE  C21718070   2.888   4.669   8.436 -0.7223 -0.4506 -0.9107
  161SAPE  H17R18071   2.816   4.723   8.501 -0.8532  0.5017 -1.8028
  161SAPE  H17S18072   2.896   4.733   8.345  0.1222  1.6798  0.5854
  161SAPE  C21818073   3.028   4.657   8.493 -0.0133  0.5348  0.4283
  161SAPE  H18R18074   3.111   4.619   8.429 -1.1513 -1.4977  0.0740
  161SAPE  H18S18075   3.028   4.582   8.575 -0.7693  0.6346  0.5221
  161SAPE  C21918076   3.080   4.800   8.545  0.4222  0.6226  0.1615
  161SAPE  H19R18077   3.014   4.817   8.633 -2.0564 -2.0461 -1.0135
  161SAPE  H19S18078   3.056   4.876   8.467  0.0703  0.4001  0.0519
  161SAPE  C22018079   3.225   4.811   8.582 -0.1586  0.6317 -0.0613
  161SAPE  H20R18080   3.282   4.816   8.486 -1.1233 -1.6205 -0.8185
  161SAPE  H20S18081   3.267   4.733   8.649 -2.1127 -2.3294 -2.0236
  161SAPE  H20T18082   3.237   4.902   8.644 -0.7896  0.6865 -0.0186
  161SAPE   C3318083   3.611   5.178   7.339 -0.0922  0.0294  0.3738
  161SAPE   H3X18084   3.512   5.126   7.331  0.4434 -0.7404 -1.8052
  161SAPE   H3Y18085   3.602   5.288   7.352  0.3511 -0.0516  1.4620
  161SAPE   C3418086   3.684   5.137   7.470  0.1344 -0.1398  0.0315
  161SAPE   H4X18087   3.792   5.163   7.474 -0.0915  0.7437  0.7784
  161SAPE   H4Y18088   3.675   5.027   7.486 -0.1614 -0.1834 -0.4199
  161SAPE   C3518089   3.620   5.217   7.590 -0.4024  0.8124  0.5929
  161SAPE   H5X18090   3.509   5.206   7.592 -0.3450  0.3056  1.4646
  161SAPE   H5Y18091   3.642   5.324   7.572  2.9447  0.2398  0.7280
  161SAPE   C3618092   3.679   5.173   7.726  0.1652  0.7332  0.3945
  161SAPE   H6X18093   3.790   5.178   7.735  0.1721 -0.7424  1.3456
  161SAPE   H6Y18094   3.645   5.069   7.740  0.4779  0.3894 -1.1958
  161SAPE   C3718095   3.620   5.251   7.846  0.2225 -0.5347 -0.1125
  161SAPE   H7X18096   3.510   5.267   7.835  0.3516  1.2164  0.7263
  161SAPE   H7Y18097   3.661   5.354   7.853 -1.7845  0.3017  0.1289
  161SAPE   C3818098   3.649   5.190   7.984 -0.6018 -0.0302 -0.5934
  161SAPE   H8X18099   3.758   5.203   8.000 -0.6522  1.3948 -1.2989
  161SAPE   H8Y18100   3.624   5.082   7.993 -3.1258  0.4299 -1.1373
  161SAPE   C3918101   3.576   5.253   8.099  0.4267  0.2217 -0.2531
  161SAPE   H9X18102   3.470   5.220   8.100  0.1754  0.9717  1.0031
  161SAPE   H9Y18103   3.584   5.364   8.092  2.0308  0.0225 -4.1604
  161SAPE  C31018104   3.638   5.227   8.238 -0.5212  0.0621  0.1140
  161SAPE  H10X18105   3.612   5.314   8.301  1.4124 -0.2656  1.4490
  161SAPE  H10Y18106   3.749   5.221   8.236 -0.4654 -1.6421  2.8240
  161SAPE  C31118107   3.593   5.088   8.289 -0.0999  0.3936  0.3607
  161SAPE  H11X18108   3.632   5.012   8.217 -0.9701  0.4705 -0.2091
  161SAPE  H11Y18109   3.482   5.077   8.291 -0.2397  1.4619 -0.4475
  161SAPE  C31218110   3.636   5.057   8.435 -0.5424 -0.6575  1.1018
  161SAPE  H12X18111   3.745   5.073   8.451 -1.1108  3.6399  2.0950
  161SAPE  H12Y18112   3.608   4.950   8.444 -0.2688 -0.8273  0.0910
  161SAPE  C31318113   3.567   5.154   8.541  0.3591  0.4648  0.4381
  161SAPE  H13X18114   3.582   5.261   8.514 -0.9042  0.4579 -0.3700
  161SAPE  H13Y18115   3.605   5.124   8.641 -4.4075 -3.5532  1.4461
  161SAPE  C31418116   3.423   5.127   8.550 -0.0608  0.6293 -0.7274
  161SAPE  H14X18117   3.421   5.018   8.571  2.0348  0.6300 -0.2541
  161SAPE  H14Y18118   3.374   5.147   8.452 -0.7302  0.4720 -0.4260
  161SAPE  C31518119   3.351   5.217   8.653 -0.0524 -0.4806  0.1543
  161SAPE  H15X18120   3.390   5.318   8.627 -1.8093  0.6497  1.5663
  161SAPE  H15Y18121   3.377   5.188   8.757 -0.0820 -1.6428 -0.1477
  161SAPE  C31618122   3.200   5.208   8.641 -0.4848  0.6685 -0.3766
  161SAPE  H16X18123   3.164   5.102   8.643 -0.9409  0.8165  2.0222
  161SAPE  H16Y18124   3.173   5.236   8.537 -0.2708  1.0889 -0.3208
  161SAPE  C31718125   3.123   5.290   8.742  0.4097 -0.1433 -0.4227
  161SAPE  H17X18126   3.015   5.271   8.722 -0.0149  1.8982 -0.3435
  161SAPE  H17Y18127   3.154   5.397   8.735 -0.0666  0.0061 -0.3103
  161SAPE  C31818128   3.149   5.247   8.888 -0.0521 -0.0576  0.0724
  161SAPE  H18X18129   3.254   5.262   8.922  0.9911 -0.1769 -2.8465
  161SAPE  H18Y18130   3.124   5.139   8.894  1.0303 -0.3112  0.3385
  161SAPE  H18Z18131   3.082   5.299   8.960 -0.6358  0.6454 -0.9565
  162SAPE     N18132   0.711   0.386   6.519  0.3326  0.1644  0.4585
  162SAPE   HN118133   0.684   0.428   6.428  1.8245  1.9543  0.7779
  162SAPE   HN218134   0.712   0.282   6.516  0.5625  0.1935 -1.4028
  162SAPE   HN318135   0.648   0.422   6.594 -1.4377  0.3985 -1.0667
  162SAPE   C1218136   0.856   0.426   6.538  1.0912  0.4391 -0.0419
  162SAPE  H12A18137   0.917   0.365   6.468  0.6529  0.0907 -0.1250
  162SAPE  H12B18138   0.873   0.385   6.640  1.9456 -1.4513 -0.8985
  162SAPE   C1118139   0.877   0.576   6.522  0.0150 -0.5552 -0.2767
  162SAPE  H11A18140   0.974   0.601   6.571 -0.7828 -0.2441  1.2094
  162SAPE  H11B18141   0.800   0.628   6.583  0.4731 -1.8680  1.4965
  162SAPE     P18142   0.738   0.669   6.321 -0.3361  0.4592 -0.2359
  162SAPE   O1318143   0.776   0.741   6.195  0.3348 -0.4288 -0.1198
  162SAPE   O1418144   0.656   0.552   6.308  0.3424  0.0494  0.1078
  162SAPE   O1218145   0.877   0.613   6.387  0.3392 -0.0186  0.2241
  162SAPE   O1118146   0.669   0.765   6.417  0.1078  0.5645 -0.5620
  162SAPE    C118147   0.674   0.907   6.406 -0.1858 -0.0677  0.1200
  162SAPE    HA18148   0.690   0.940   6.301 -2.8093  1.5709  0.1471
  162SAPE    HB18149   0.579   0.947   6.447  0.7299  0.2255  2.0827
  162SAPE    C218150   0.791   0.966   6.494 -0.0901  0.2080  0.0050
  162SAPE    HS18151   0.886   0.942   6.441  0.1959 -1.0874  1.0621
  162SAPE   O2118152   0.803   0.909   6.626  0.0480 -0.3202  0.4698
  162SAPE   C2118153   0.924   0.917   6.683 -1.0329 -0.0614 -0.2366
  162SAPE   O2218154   1.027   0.949   6.626  0.5066  0.0891 -0.1506
  162SAPE   C2218155   0.927   0.875   6.833  0.0977 -0.2168 -0.0189
  162SAPE   H2R18156   0.836   0.926   6.872 -2.0607 -4.1387  0.5426
  162SAPE   H2S18157   0.911   0.765   6.833  0.0908 -0.2275 -0.8961
  162SAPE    C318158   0.783   1.125   6.479  0.6539 -0.4450 -0.6067
  162SAPE    HX18159   0.675   1.151   6.481 -0.1123 -3.3018  0.7180
  162SAPE    HY18160   0.816   1.154   6.377 -1.2823 -0.9267 -1.4249
  162SAPE   O3118161   0.844   1.190   6.595 -0.0695  0.0244  0.5550
  162SAPE   C3118162   0.970   1.228   6.574  0.1472  0.0314  0.9225
  162SAPE   O3218163   1.030   1.229   6.465  0.1235  1.2145  0.1351
  162SAPE   C3218164   1.018   1.283   6.712 -0.7513 -0.2350  0.1026
  162SAPE   H2X18165   1.035   1.392   6.700  0.9840 -0.5588 -0.7420
  162SAPE   H2Y18166   1.121   1.242   6.723 -0.8495 -0.1338  1.6958
  162SAPE   C2318167   1.060   0.916   6.909  1.5797 -0.5547 -0.0051
  162SAPE   H3R18168   1.064   1.027   6.915 -0.6434 -0.3032 -1.7429
  162SAPE   H3S18169   1.152   0.873   6.863  0.8805 -1.4063 -0.6466
  162SAPE   C2418170   1.051   0.861   7.052  0.1042 -0.9458 -0.0614
  162SAPE   H4R18171   0.948   0.864   7.093  0.0769  1.9359 -0.1848
  162SAPE   H4S18172   1.116   0.914   7.124 -1.2464 -0.2275  0.6529
  162SAPE   C2518173   1.099   0.716   7.049 -0.1421  0.4152  0.6724
  162SAPE   H5R18174   1.191   0.701   6.992  0.4663 -0.9851  1.9631
  162SAPE   C2618175   1.038   0.608   7.111  0.2258 -0.3203  0.5293
  162SAPE   H6R18176   1.087   0.510   7.108 -0.2611 -0.6155  1.5517
  162SAPE   C2718177   0.919   0.623   7.197  0.1071 -0.2946  0.0101
  162SAPE   H7R18178   0.840   0.678   7.142  0.9364 -0.8298 -1.7950
  162SAPE   H7S18179   0.943   0.673   7.293  2.2252 -0.6211 -0.3071
  162SAPE   C2818180   0.857   0.487   7.222  0.1131  0.4992 -0.9578
  162SAPE   H8R18181   0.832   0.446   7.123  1.7045 -0.2592 -1.0796
  162SAPE   C2918182   0.813   0.425   7.339  0.9382 -0.3792  0.1709
  162SAPE   H9R18183   0.789   0.318   7.329  1.4320 -0.4985  0.1870
  162SAPE  C21018184   0.837   0.474   7.476  0.2579  0.4186  0.9542
  162SAPE  H10R18185   0.808   0.581   7.475  0.0571  0.3923  2.5883
  162SAPE  H10S18186   0.946   0.463   7.496  0.2754 -1.2639  0.0877
  162SAPE  C21118187   0.753   0.391   7.574  0.6973 -0.0403 -1.1889
  162SAPE  H11R18188   0.645   0.390   7.553  0.2618  0.4416  0.7731
  162SAPE  C21218189   0.793   0.323   7.688 -0.4409  0.0047  0.4981
  162SAPE  H12R18190   0.720   0.271   7.751  0.0322 -1.0847  0.1683
  162SAPE  C21318191   0.931   0.302   7.731 -0.0552 -0.7971 -0.4073
  162SAPE  H13R18192   0.923   0.285   7.841  1.3579 -3.3860 -0.6214
  162SAPE  H13S18193   0.987   0.398   7.727  1.7298 -1.5747  2.5579
  162SAPE  C21418194   1.007   0.186   7.678  0.6232  0.5617 -0.6141
  162SAPE  H14R18195   0.956   0.090   7.694  0.5500  0.4732 -1.3553
  162SAPE  C21518196   1.120   0.188   7.616  0.3137  0.6816  0.2012
  162SAPE  H15R18197   1.151   0.091   7.576 -2.3869  0.0637 -0.6451
  162SAPE  C21618198   1.200   0.303   7.577 -0.3009 -0.2644  0.2976
  162SAPE  H16R18199   1.139   0.396   7.570  1.3511  0.7818 -1.2337
  162SAPE  H16S18200   1.248   0.292   7.478  2.4293  0.4756  1.4525
  162SAPE  C21718201   1.324   0.312   7.671  0.3057  0.3603 -0.4374
  162SAPE  H17R18202   1.286   0.287   7.773 -1.4003 -1.8225 -1.5168
  162SAPE  H17S18203   1.370   0.413   7.672  1.6277 -0.2197  0.2685
  162SAPE  C21818204   1.434   0.206   7.647  0.0719 -0.2707 -0.2400
  162SAPE  H18R18205   1.437   0.171   7.542 -2.6471  1.4203 -0.9981
  162SAPE  H18S18206   1.410   0.108   7.693 -1.3573  0.3055  0.3312
  162SAPE  C21918207   1.581   0.241   7.684  0.2687 -0.1477  0.6653
  162SAPE  H19R18208   1.625   0.328   7.630  0.9090 -0.4399  0.7125
  162SAPE  H19S18209   1.648   0.155   7.664 -0.4773 -0.8431  1.0885
  162SAPE  C22018210   1.597   0.259   7.835 -0.4310  0.3168  0.1901
  162SAPE  H20R18211   1.702   0.278   7.864 -0.1879  2.2008 -1.6364
  162SAPE  H20S18212   1.546   0.183   7.897 -0.6178  0.3949  0.1336
  162SAPE  H20T18213   1.542   0.349   7.873 -2.1404 -0.9947  0.9875
  162SAPE   C3318214   0.933   1.273   6.832 -0.1891 -0.2315  0.5413
  162SAPE   H3X18215   0.898   1.172   6.862 -0.3083 -0.4947 -0.4291
  162SAPE   H3Y18216   0.849   1.343   6.815  1.2154  1.3947  0.1008
  162SAPE   C3418217   1.009   1.321   6.951 -0.0558 -0.7757  0.4170
  162SAPE   H4X18218   1.040   1.427   6.944 -2.0148 -0.0555  1.8322
  162SAPE   H4Y18219   1.099   1.257   6.957  0.1955 -0.6259 -1.3096
  162SAPE   C3518220   0.933   1.293   7.070  0.1302  0.1294 -0.2942
  162SAPE   H5X18221   0.896   1.188   7.068  0.9715 -0.1933  0.3019
  162SAPE   H5Y18222   0.858   1.373   7.089 -1.0146 -1.1108  0.6342
  162SAPE   C3618223   1.003   1.292   7.210 -0.3417  0.1648  0.1859
  162SAPE   H6X18224   1.050   1.393   7.204 -2.7726  1.3298 -0.2131
  162SAPE   H6Y18225   1.082   1.214   7.205 -1.5692 -1.1646  0.7024
  162SAPE   C3718226   0.920   1.275   7.334  0.3797  0.9982  0.3112
  162SAPE   H7X18227   0.876   1.173   7.339 -1.0141  1.5097 -0.8352
  162SAPE   H7Y18228   0.827   1.335   7.323 -0.3529  0.1538  1.6377
  162SAPE   C3818229   1.004   1.290   7.461  0.7694 -0.2798 -0.5118
  162SAPE   H8X18230   1.076   1.368   7.430  2.5200 -1.7047 -0.1544
  162SAPE   H8Y18231   1.065   1.199   7.475  1.1919 -0.1723 -1.5595
  162SAPE   C3918232   0.921   1.322   7.592  0.3955 -0.3439 -0.0512
  162SAPE   H9X18233   0.828   1.260   7.594 -0.8246  1.4349  0.1825
  162SAPE   H9Y18234   0.895   1.430   7.589  0.4155 -0.3618 -1.8517
  162SAPE  C31018235   0.991   1.277   7.721 -0.7434 -0.3611  0.5982
  162SAPE  H10X18236   1.089   1.329   7.728 -0.1377 -1.5362  1.1834
  162SAPE  H10Y18237   1.022   1.173   7.697 -1.4789 -0.5719  0.5323
  162SAPE  C31118238   0.906   1.278   7.851 -0.8018 -0.4971 -0.0761
  162SAPE  H11X18239   0.960   1.227   7.934 -2.2731 -0.5215  0.9097
  162SAPE  H11Y18240   0.816   1.216   7.829 -0.8222 -0.1143 -1.1274
  162SAPE  C31218241   0.864   1.420   7.894 -0.2572  0.1424  0.2180
  162SAPE  H12X18242   0.782   1.457   7.828 -0.9040 -0.0080  0.9216
  162SAPE  H12Y18243   0.959   1.478   7.890  0.9071 -1.7681 -1.7161
  162SAPE  C31318244   0.805   1.425   8.031  0.0983  0.0046  0.1611
  162SAPE  H13X18245   0.874   1.381   8.107 -1.0001  0.0231  1.1940
  162SAPE  H13Y18246   0.717   1.358   8.033  0.6031 -0.6991 -0.5220
  162SAPE  C31418247   0.752   1.558   8.084  0.0708 -0.5274 -0.4219
  162SAPE  H14X18248   0.684   1.612   8.015  0.8207  0.0171 -0.7512
  162SAPE  H14Y18249   0.840   1.624   8.098  0.5029 -1.1140 -0.3451
  162SAPE  C31518250   0.672   1.541   8.213  0.6791 -0.2425 -0.2260
  162SAPE  H15X18251   0.668   1.639   8.266  2.3035  0.2099 -0.8883
  162SAPE  H15Y18252   0.741   1.473   8.268  1.7190  0.7652 -0.2593
  162SAPE  C31618253   0.526   1.498   8.181  0.2522 -0.1327  0.8520
  162SAPE  H16X18254   0.521   1.409   8.114 -2.7607  0.3366  0.2935
  162SAPE  H16Y18255   0.475   1.575   8.120 -0.8300 -1.0580  0.5477
  162SAPE  C31718256   0.435   1.469   8.306 -1.1652 -0.3315  0.7999
  162SAPE  H17X18257   0.348   1.410   8.271  0.6164 -1.9558 -1.1192
  162SAPE  H17Y18258   0.384   1.556   8.353 -2.3484 -1.0766  0.9561
  162SAPE  C31818259   0.509   1.398   8.414 -0.0367  0.3268 -0.2367
  162SAPE  H18X18260   0.431   1.359   8.484 -1.1657 -1.2357 -2.2405
  162SAPE  H18Y18261   0.588   1.459   8.463  1.3039 -1.9751  0.6069
  162SAPE  H18Z18262   0.566   1.310   8.378  0.3547  0.1242  0.8406
  163SAPE     N18263   6.105   0.142   6.334  0.4662 -0.4050 -0.4046
  163SAPE   HN118264   6.133   0.217   6.268 -0.7102 -0.3044 -0.8126
  163SAPE   HN218265   6.005   0.116   6.326  1.0038 -2.2710 -1.6985
  163SAPE   HN318266   6.115   0.169   6.434 -1.2764 -0.0034 -0.3120
  163SAPE   C1218267   6.169   0.014   6.306 -0.7988  0.2251  0.3671
  163SAPE  H12A18268   6.193   0.011   6.198 -2.3770  1.7420 -0.0703
  163SAPE  H12B18269   6.108  -0.069   6.347 -0.3725 -0.1636  0.2096
  163SAPE   C1118270   6.306   0.010   6.378  0.5946  0.1169  0.3355
  163SAPE  H11A18271   6.386   0.056   6.317 -0.3950 -0.7054 -1.6886
  163SAPE  H11B18272   6.326  -0.098   6.391  1.3476  0.1564 -0.4537
  163SAPE     P18273   6.396   0.057   6.620  0.1462  0.5994  0.5174
  163SAPE   O1318274   6.523   0.020   6.560 -0.5631  0.2172  0.4194
  163SAPE   O1418275   6.390   0.186   6.696 -0.4944  0.1200 -0.5853
  163SAPE   O1218276   6.285   0.068   6.509 -0.1071  0.2543 -0.4810
  163SAPE   O1118277   6.337  -0.068   6.710  0.0750  0.1031 -0.3201
  163SAPE    C118278   6.205  -0.060   6.759  0.6661 -0.2267  0.7987
  163SAPE    HA18279   6.180   0.043   6.793  2.4133  1.4788 -2.5581
  163SAPE    HB18280   6.133  -0.084   6.678  0.9202  0.3713  0.3949
  163SAPE    C218281   6.181  -0.169   6.872 -1.1676 -0.0439  0.0132
  163SAPE    HS18282   6.081  -0.152   6.916 -1.2142  2.9545 -1.0151
  163SAPE   O2118283   6.295  -0.149   6.966  1.1366  0.3765  0.0514
  163SAPE   C2118284   6.276  -0.035   7.040 -0.0066 -0.2116  0.0946
  163SAPE   O2218285   6.175   0.033   7.041  0.2471  0.2033 -0.4024
  163SAPE   C2218286   6.403  -0.012   7.120  0.3449  0.2867 -0.5421
  163SAPE   H2R18287   6.425  -0.111   7.165  1.3059  1.7450  2.5317
  163SAPE   H2S18288   6.491   0.004   7.055  1.2396 -1.5602  0.1472
  163SAPE    C318289   6.192  -0.317   6.813  0.1347  0.1794  0.4988
  163SAPE    HX18290   6.298  -0.317   6.781  0.4693 -1.9139  1.4549
  163SAPE    HY18291   6.129  -0.319   6.721 -1.2976  0.1768  1.4508
  163SAPE   O3118292   6.162  -0.417   6.912  0.1960 -0.4062  0.0584
  163SAPE   C3118293   6.038  -0.461   6.912  0.5808 -0.1236  0.2496
  163SAPE   O3218294   5.955  -0.432   6.825  0.2314 -0.4350 -0.1722
  163SAPE   C3218295   6.023  -0.537   7.037 -0.4519 -0.7579 -0.5963
  163SAPE   H2X18296   6.021  -0.457   7.114 -0.1768  1.4463 -2.7606
  163SAPE   H2Y18297   6.120  -0.587   7.058  0.8663  2.0584  0.5214
  163SAPE   C2318298   6.386   0.107   7.225 -0.9143 -0.1629 -0.0228
  163SAPE   H3R18299   6.306   0.085   7.299 -0.9350 -0.6229 -0.1779
  163SAPE   H3S18300   6.357   0.203   7.177 -2.4021 -0.6221 -0.0929
  163SAPE   C2418301   6.527   0.124   7.294 -0.1691  0.2273  0.1418
  163SAPE   H4R18302   6.522   0.220   7.351  1.0486 -0.8493  2.1613
  163SAPE   H4S18303   6.602   0.129   7.212  1.1504  1.9915  1.3676
  163SAPE   C2518304   6.563   0.012   7.389  1.0052 -0.1347  0.0192
  163SAPE   H5R18305   6.648  -0.054   7.366  2.8581  1.6648  1.3739
  163SAPE   C2618306   6.508  -0.003   7.515  0.3459  0.9055  0.4162
  163SAPE   H6R18307   6.550  -0.082   7.579  0.7729  0.8024  0.0191
  163SAPE   C2718308   6.399   0.082   7.583  0.4297 -0.3303  0.2011
  163SAPE   H7R18309   6.338   0.126   7.500 -0.3040  0.9094  1.3490
  163SAPE   H7S18310   6.441   0.161   7.649  1.1317  0.3266 -0.9843
  163SAPE   C2818311   6.315  -0.012   7.662 -0.2458  0.0122 -0.2926
  163SAPE   H8R18312   6.226  -0.045   7.607 -0.7960 -1.6110  1.4525
  163SAPE   C2918313   6.338  -0.056   7.792  0.3223 -0.3207 -0.4358
  163SAPE   H9R18314   6.263  -0.123   7.838  0.0088 -0.5740 -1.2803
  163SAPE  C21018315   6.459  -0.018   7.875 -0.0908 -0.3266 -0.1831
  163SAPE  H10R18316   6.548  -0.002   7.810  1.0324 -0.6651  1.2225
  163SAPE  H10S18317   6.482  -0.106   7.938  1.3755  1.2576  1.6091
  163SAPE  C21118318   6.427   0.100   7.958  0.3374 -0.4209  0.0254
  163SAPE  H11R18319   6.443   0.193   7.903  2.1669  0.1969  1.4781
  163SAPE  C21218320   6.392   0.111   8.091  0.2030  0.3498  0.2111
  163SAPE  H12R18321   6.360   0.208   8.132 -1.4734  0.2595 -0.7623
  163SAPE  C21318322   6.379  -0.007   8.190 -0.2640  0.4446  0.4171
  163SAPE  H13R18323   6.330  -0.091   8.137  1.0213 -0.1828  0.1899
  163SAPE  H13S18324   6.304   0.018   8.268  0.1701  0.9984  0.6648
  163SAPE  C21418325   6.507  -0.062   8.237 -0.2720  0.4235  0.0721
  163SAPE  H14R18326   6.584  -0.070   8.159  0.7701 -0.9719  1.2002
  163SAPE  C21518327   6.531  -0.123   8.358  0.7123  0.1209 -0.3124
  163SAPE  H15R18328   6.633  -0.157   8.380  1.1106  1.8659  0.7398
  163SAPE  C21618329   6.435  -0.146   8.468 -0.0625 -0.0971  0.6026
  163SAPE  H16R18330   6.368  -0.233   8.447 -0.7901  0.4473  0.6529
  163SAPE  H16S18331   6.365  -0.060   8.470 -0.1027 -0.1415  1.1374
  163SAPE  C21718332   6.509  -0.163   8.602 -0.1313 -0.3464 -0.1027
  163SAPE  H17R18333   6.579  -0.248   8.587 -1.6287 -1.7142  0.3937
  163SAPE  H17S18334   6.435  -0.187   8.681  1.0181 -0.9883  0.8118
  163SAPE  C21818335   6.601  -0.045   8.642 -0.2024  0.8588 -0.0554
  163SAPE  H18R18336   6.548   0.052   8.634  1.7867  1.9555 -0.7259
  163SAPE  H18S18337   6.696  -0.038   8.584  0.3601  0.5889  0.8162
  163SAPE  C21918338   6.653  -0.056   8.790  0.1108  0.3008  0.0414
  163SAPE  H19R18339   6.710  -0.149   8.812 -0.9941 -0.4377 -0.1253
  163SAPE  H19S18340   6.567  -0.054   8.861 -0.5002  1.0954 -0.6989
  163SAPE  C22018341   6.728   0.068   8.834  0.0164 -0.0819  0.1651
  163SAPE  H20R18342   6.654   0.147   8.860 -3.0909 -1.6625 -3.0355
  163SAPE  H20S18343   6.787   0.113   8.751  0.9752  1.2955  1.5312
  163SAPE  H20T18344   6.794   0.039   8.919  1.3084  0.0882 -0.7590
  163SAPE   C3318345   5.889  -0.619   7.063  0.0412 -0.0783  0.3405
  163SAPE   H3X18346   5.906  -0.710   7.002  0.7999  0.7749 -0.7722
  163SAPE   H3Y18347   5.811  -0.558   7.012  2.9721  2.5523 -1.4191
  163SAPE   C3418348   5.851  -0.635   7.206  0.5313 -0.4997  0.2457
  163SAPE   H4X18349   5.753  -0.685   7.220 -0.0649 -0.1838 -2.2818
  163SAPE   H4Y18350   5.838  -0.540   7.262  1.9839 -1.7518  2.9440
  163SAPE   C3518351   5.953  -0.713   7.293 -0.2041 -0.4388 -0.7045
  163SAPE   H5X18352   6.053  -0.667   7.283 -0.3371  0.3744  1.2247
  163SAPE   H5Y18353   5.960  -0.819   7.261  1.6375 -0.4898 -0.2494
  163SAPE   C3618354   5.904  -0.706   7.439  0.2597  0.3607  0.8008
  163SAPE   H6X18355   5.794  -0.716   7.448  0.2460 -0.3625 -0.0051
  163SAPE   H6Y18356   5.928  -0.601   7.465  1.6590 -0.1558  1.6690
  163SAPE   C3718357   5.978  -0.800   7.530 -0.1288  0.2946 -0.4094
  163SAPE   H7X18358   6.086  -0.795   7.505  0.0463  1.2954  0.5025
  163SAPE   H7Y18359   5.945  -0.906   7.518 -1.0612  0.7109 -1.8479
  163SAPE   C3818360   5.974  -0.756   7.680 -0.1668 -0.1957  0.4534
  163SAPE   H8X18361   5.875  -0.774   7.727 -0.0999 -1.0031  0.3072
  163SAPE   H8Y18362   6.018  -0.656   7.698  2.4349 -1.0802 -0.5085
  163SAPE   C3918363   6.068  -0.847   7.763 -0.3608  0.7063 -0.0868
  163SAPE   H9X18364   6.174  -0.827   7.735 -0.8359  0.6994 -2.0425
  163SAPE   H9Y18365   6.046  -0.954   7.744  2.2730  0.0642  0.1215
  163SAPE  C31018366   6.049  -0.825   7.916  0.0905 -0.4813 -0.3983
  163SAPE  H10X18367   5.944  -0.802   7.944 -0.1728 -2.5824  0.5362
  163SAPE  H10Y18368   6.109  -0.743   7.959  1.4100 -1.8154  0.3736
  163SAPE  C31118369   6.101  -0.935   8.003  0.9464 -0.2658  0.6807
  163SAPE  H11X18370   6.205  -0.945   7.967  1.0683 -0.5814  1.1144
  163SAPE  H11Y18371   6.055  -1.036   7.993  0.4544  0.1026 -0.9101
  163SAPE  C31218372   6.089  -0.911   8.153  0.0692  0.4367 -0.0502
  163SAPE  H12X18373   5.982  -0.902   8.182  0.1084  0.6065  0.0445
  163SAPE  H12Y18374   6.133  -0.810   8.172 -0.7532  0.9610 -0.8127
  163SAPE  C31318375   6.152  -1.014   8.254 -1.1107 -0.0036  0.3326
  163SAPE  H13X18376   6.258  -1.032   8.224 -1.0539 -2.0858  1.5896
  163SAPE  H13Y18377   6.092  -1.107   8.258 -1.2802  0.1443  1.9053
  163SAPE  C31418378   6.162  -0.958   8.398 -0.3424 -0.1611 -0.3924
  163SAPE  H14X18379   6.058  -0.929   8.422  0.1130  0.6530  0.7068
  163SAPE  H14Y18380   6.223  -0.864   8.398 -1.4293  0.5634  0.1952
  163SAPE  C31518381   6.214  -1.056   8.505  0.7576  0.6065 -0.0547
  163SAPE  H15X18382   6.323  -1.067   8.486  0.6609 -0.1200 -0.2101
  163SAPE  H15Y18383   6.176  -1.160   8.497  1.3556  0.3058  0.7808
  163SAPE  C31618384   6.189  -1.005   8.650 -0.1408  0.2862  0.1186
  163SAPE  H16X18385   6.081  -1.023   8.670  0.1723 -0.8046  0.9229
  163SAPE  H16Y18386   6.223  -0.900   8.656 -0.0483  0.2643 -0.0123
  163SAPE  C31718387   6.257  -1.093   8.763  0.7163 -0.2920  0.2129
  163SAPE  H17X18388   6.228  -1.199   8.748 -1.8586  0.4429 -0.6106
  163SAPE  H17Y18389   6.208  -1.058   8.856 -3.1629 -1.7293 -1.0763
  163SAPE  C31818390   6.407  -1.069   8.776  0.8887 -0.1752 -0.2605
  163SAPE  H18X18391   6.462  -1.109   8.688 -1.0768 -0.2582 -1.5057
  163SAPE  H18Y18392   6.455  -1.119   8.863  0.5094  1.5425  0.9994
  163SAPE  H18Z18393   6.431  -0.963   8.800  0.1896 -0.2581  0.8549
  164SAPE     N18394   4.930   3.529   6.202  0.1967 -1.0483 -0.1822
  164SAPE   HN118395   4.847   3.589   6.218 -0.2328 -0.6909 -3.2088
  164SAPE   HN218396   4.918   3.447   6.266  2.7709 -0.9105  0.5892
  164SAPE   HN318397   5.009   3.582   6.243  0.2787 -0.9308 -0.4909
  164SAPE   C1218398   4.943   3.510   6.056 -0.2227  0.5095  0.3617
  164SAPE  H12A18399   5.020   3.431   6.040 -0.9053 -0.1737  0.4054
  164SAPE  H12B18400   4.960   3.609   6.009 -0.1224  0.5020  0.3803
  164SAPE   C1118401   4.818   3.448   5.994  0.7267  0.3433  0.3586
  164SAPE  H11A18402   4.833   3.453   5.884 -0.6803  0.8552  0.1594
  164SAPE  H11B18403   4.727   3.503   6.028 -1.4084 -3.0764  0.7026
  164SAPE     P18404   4.772   3.183   5.977 -0.1531  0.4216 -0.2244
  164SAPE   O1318405   4.662   3.211   5.879 -0.2227 -0.2413  0.2031
  164SAPE   O1418406   4.897   3.127   5.922  0.2832 -0.1162 -0.3715
  164SAPE   O1218407   4.804   3.317   6.059 -0.3606 -0.3123 -0.2925
  164SAPE   O1118408   4.718   3.087   6.088  0.1528  0.5312  0.2824
  164SAPE    C118409   4.804   3.053   6.201  0.3493 -0.2020 -0.6090
  164SAPE    HA18410   4.890   3.000   6.156  0.3970 -0.2368 -0.4762
  164SAPE    HB18411   4.849   3.141   6.251  3.7976 -2.7367  1.1325
  164SAPE    C218412   4.728   2.951   6.301 -0.0091 -0.3081 -0.2658
  164SAPE    HS18413   4.673   2.877   6.239 -0.7933 -0.3107  0.4179
  164SAPE   O2118414   4.648   3.029   6.392 -0.0208 -0.1338 -0.4499
  164SAPE   C2118415   4.534   3.079   6.340 -0.0905  0.0821 -0.0155
  164SAPE   O2218416   4.484   3.063   6.231  0.1762  0.5818 -0.3367
  164SAPE   C2218417   4.467   3.161   6.451 -0.2239  0.3028 -0.0549
  164SAPE   H2R18418   4.440   3.097   6.537  0.1638 -0.6865 -0.6442
  164SAPE   H2S18419   4.538   3.237   6.488  1.0168  0.9650 -3.3883
  164SAPE    C318420   4.816   2.848   6.385  0.1398  0.0853  0.2196
  164SAPE    HX18421   4.894   2.915   6.426 -1.4237  2.4177 -0.4010
  164SAPE    HY18422   4.859   2.767   6.322 -0.8295 -0.4196  0.1814
  164SAPE   O3118423   4.751   2.796   6.502  0.1109 -0.3844  0.5314
  164SAPE   C3118424   4.645   2.711   6.489 -0.3527  0.8881  0.7020
  164SAPE   O3218425   4.629   2.643   6.387  0.5186 -0.0056  0.0712
  164SAPE   C3218426   4.559   2.703   6.613 -0.6006  0.4512  0.2755
  164SAPE   H2X18427   4.625   2.729   6.698 -0.4744  2.2201 -0.3177
  164SAPE   H2Y18428   4.525   2.597   6.621 -1.7645  0.8183  0.3500
  164SAPE   C2318429   4.348   3.233   6.402  0.1059  0.8346 -0.5021
  164SAPE   H3R18430   4.278   3.154   6.366  0.9393 -0.4608  0.5978
  164SAPE   H3S18431   4.376   3.298   6.318  1.2267  0.2153 -0.6274
  164SAPE   C2418432   4.254   3.313   6.504  0.3598  0.5716  0.0929
  164SAPE   H4R18433   4.163   3.345   6.448  0.0381 -2.8487 -1.6231
  164SAPE   H4S18434   4.317   3.390   6.552 -0.6985  1.6426 -0.1985
  164SAPE   C2518435   4.201   3.209   6.605  0.2275  0.5588 -0.1880
  164SAPE   H5R18436   4.146   3.127   6.557  1.3304 -1.1207  1.3384
  164SAPE   C2618437   4.226   3.209   6.741  0.2801  0.2542  0.2508
  164SAPE   H6R18438   4.172   3.132   6.799  0.0058 -0.0554 -0.4043
  164SAPE   C2718439   4.302   3.315   6.817 -1.0586  0.5201 -0.1170
  164SAPE   H7R18440   4.230   3.340   6.898 -1.9391  2.2605 -1.3799
  164SAPE   H7S18441   4.317   3.399   6.746  0.2368 -2.2054 -3.2864
  164SAPE   C2818442   4.432   3.272   6.864 -0.8338 -0.0453  1.0840
  164SAPE   H8R18443   4.505   3.245   6.786  0.1636 -0.3010  2.0715
  164SAPE   C2918444   4.479   3.278   6.989 -0.2831  0.7637 -0.1171
  164SAPE   H9R18445   4.576   3.232   7.014 -1.8775 -1.9415  1.6318
  164SAPE  C21018446   4.408   3.331   7.110 -0.2895 -0.0783  0.0675
  164SAPE  H10R18447   4.428   3.264   7.196  2.5740 -0.4915 -0.8024
  164SAPE  H10S18448   4.297   3.334   7.106 -0.2502  1.4400 -1.0894
  164SAPE  C21118449   4.452   3.473   7.155  0.1757  0.2453 -0.4943
  164SAPE  H11R18450   4.469   3.542   7.071  1.2074 -0.4323 -0.8613
  164SAPE  C21218451   4.460   3.523   7.280 -0.9347 -0.4742  1.1256
  164SAPE  H12R18452   4.489   3.628   7.297  0.2376 -0.4395 -0.8124
  164SAPE  C21318453   4.425   3.447   7.406  0.1450  0.0031 -0.1413
  164SAPE  H13R18454   4.503   3.458   7.484 -2.6301 -2.4224  3.3047
  164SAPE  H13S18455   4.432   3.336   7.395 -0.4848 -0.2223  1.4564
  164SAPE  C21418456   4.284   3.464   7.453 -0.2832 -0.3586  0.3730
  164SAPE  H14R18457   4.203   3.429   7.388  1.2991 -1.9097 -0.8623
  164SAPE  C21518458   4.256   3.507   7.577 -0.6289 -0.6205  1.0230
  164SAPE  H15R18459   4.149   3.518   7.602 -1.6200 -4.5422 -0.7116
  164SAPE  C21618460   4.356   3.544   7.687 -0.0280 -0.1749  0.1623
  164SAPE  H16R18461   4.364   3.654   7.697 -0.0456 -0.0580 -0.9680
  164SAPE  H16S18462   4.459   3.513   7.660 -0.5321 -4.1234  2.0949
  164SAPE  C21718463   4.310   3.493   7.820 -0.4882  0.2735 -0.0037
  164SAPE  H17R18464   4.291   3.384   7.809  1.8168 -0.2835  0.9038
  164SAPE  H17S18465   4.222   3.554   7.848  0.1388  0.7936  0.8712
  164SAPE  C21818466   4.403   3.510   7.944 -0.1726 -0.0982  0.0911
  164SAPE  H18R18467   4.429   3.618   7.950 -0.6356 -0.0210  0.7655
  164SAPE  H18S18468   4.496   3.454   7.918 -0.3206  0.3274 -1.4207
  164SAPE  C21918469   4.341   3.459   8.074  0.0318  0.3352 -0.0815
  164SAPE  H19R18470   4.356   3.349   8.063 -3.1712 -0.5702  2.7217
  164SAPE  H19S18471   4.232   3.481   8.083 -0.0832  0.0735 -0.7353
  164SAPE  C22018472   4.422   3.509   8.191 -0.1280  0.2581  0.3187
  164SAPE  H20R18473   4.378   3.468   8.285 -2.3021  0.0352 -0.7411
  164SAPE  H20S18474   4.412   3.620   8.189  2.6801  0.6311  1.4815
  164SAPE  H20T18475   4.527   3.476   8.179 -0.0828  0.4576  0.1632
  164SAPE   C3318476   4.428   2.784   6.613  0.0214 -0.0537 -0.4953
  164SAPE   H3X18477   4.391   2.767   6.509  1.2893  1.7730 -1.3032
  164SAPE   H3Y18478   4.437   2.895   6.604 -0.2122  0.2045  1.8063
  164SAPE   C3418479   4.333   2.742   6.724  0.1143 -0.6617 -0.4513
  164SAPE   H4X18480   4.325   2.632   6.733 -0.3378 -0.6099 -0.1746
  164SAPE   H4Y18481   4.232   2.783   6.702 -0.0592  0.0143  1.3928
  164SAPE   C3518482   4.379   2.802   6.864 -0.1034  0.3000 -0.7883
  164SAPE   H5X18483   4.400   2.910   6.852  0.1186  0.2814 -0.5868
  164SAPE   H5Y18484   4.472   2.749   6.894 -0.5066  0.3673  0.6433
  164SAPE   C3618485   4.273   2.769   6.973 -0.3680 -0.1245  0.3045
  164SAPE   H6X18486   4.256   2.660   6.990 -0.8774 -0.5101 -2.2618
  164SAPE   H6Y18487   4.184   2.820   6.931  0.4864  0.3679 -0.9650
  164SAPE   C3718488   4.309   2.834   7.108  0.0065 -0.4480  0.1686
  164SAPE   H7X18489   4.316   2.940   7.077 -1.3981 -0.9382 -2.0694
  164SAPE   H7Y18490   4.409   2.790   7.131 -0.0242 -0.7822 -0.3069
  164SAPE   C3818491   4.208   2.824   7.219 -0.1705 -0.7719  0.5770
  164SAPE   H8X18492   4.205   2.716   7.245 -2.4216 -0.7285  0.6749
  164SAPE   H8Y18493   4.109   2.865   7.190  0.7232 -0.0070 -1.6030
  164SAPE   C3918494   4.252   2.906   7.336  0.4710  0.2862  0.4147
  164SAPE   H9X18495   4.258   3.011   7.299  1.0681 -0.3385 -1.3629
  164SAPE   H9Y18496   4.355   2.882   7.370  0.7402 -0.9016 -1.1340
  164SAPE  C31018497   4.140   2.896   7.443  0.4699  0.0658  0.4638
  164SAPE  H10X18498   4.136   2.796   7.490  0.9630  0.6736  1.8688
  164SAPE  H10Y18499   4.042   2.930   7.404  1.1350  4.0425  1.8125
  164SAPE  C31118500   4.163   3.002   7.555 -0.1572 -0.1476  0.3921
  164SAPE  H11X18501   4.143   3.105   7.518  1.7307  0.2284  0.3690
  164SAPE  H11Y18502   4.270   3.004   7.584  0.2081  3.0814 -0.7739
  164SAPE  C31218503   4.055   2.979   7.661 -0.4512  0.2355  0.4510
  164SAPE  H12X18504   4.059   2.876   7.703  0.6631  0.2004  0.2886
  164SAPE  H12Y18505   3.953   3.003   7.624 -0.1220 -1.3183 -1.7249
  164SAPE  C31318506   4.089   3.057   7.785 -0.5271 -0.0916  0.4258
  164SAPE  H13X18507   4.100   3.162   7.752 -1.8619 -0.2123 -0.4577
  164SAPE  H13Y18508   4.185   3.017   7.826 -0.9636 -0.8504  0.7353
  164SAPE  C31418509   3.978   3.043   7.891  0.6527 -0.3204  0.4495
  164SAPE  H14X18510   3.964   2.936   7.918 -1.1176 -0.2203  0.0178
  164SAPE  H14Y18511   3.883   3.072   7.841 -0.8493 -3.6467  1.0777
  164SAPE  C31518512   4.008   3.130   8.016 -0.4484 -0.6060 -1.1675
  164SAPE  H15X18513   3.981   3.237   7.998  0.6257 -0.1282 -0.0545
  164SAPE  H15Y18514   4.114   3.120   8.046 -0.3053  0.4312 -1.2883
  164SAPE  C31618515   3.920   3.072   8.131  1.1240  0.3447 -1.2012
  164SAPE  H16X18516   3.945   2.965   8.141 -1.6998 -0.1964  1.2182
  164SAPE  H16Y18517   3.815   3.079   8.094  0.6002  1.4444  0.3628
  164SAPE  C31718518   3.943   3.147   8.258  0.0136 -0.2726  0.2325
  164SAPE  H17X18519   3.870   3.097   8.325 -1.2833 -1.7531 -2.1232
  164SAPE  H17Y18520   3.918   3.255   8.253 -1.2645 -0.5855 -0.8361
  164SAPE  C31818521   4.086   3.130   8.308  1.2101 -0.8399 -0.2652
  164SAPE  H18X18522   4.151   3.199   8.251 -1.6186  0.0738 -2.6483
  164SAPE  H18Y18523   4.116   3.023   8.307  0.6645 -1.0049  0.2191
  164SAPE  H18Z18524   4.079   3.166   8.413  2.3269 -0.1198 -0.4272
  165SAPE     N18525   2.778   0.403   6.234  0.1482 -0.3333 -0.8218
  165SAPE   HN118526   2.724   0.350   6.162 -2.4865  0.8331  0.1503
  165SAPE   HN218527   2.750   0.502   6.216  2.1612  0.3696 -0.3120
  165SAPE   HN318528   2.881   0.393   6.223  0.6649 -1.1128  3.2500
  165SAPE   C1218529   2.731   0.365   6.368  0.1706  0.4501 -0.4889
  165SAPE  H12A18530   2.770   0.429   6.450 -0.7688  0.2724  0.1073
  165SAPE  H12B18531   2.767   0.261   6.383  0.2708  0.6532  0.7976
  165SAPE   C1118532   2.576   0.372   6.373  0.1311  0.6072 -0.3865
  165SAPE  H11A18533   2.547   0.472   6.334 -1.4194 -0.2229 -1.4664
  165SAPE  H11B18534   2.543   0.359   6.478  1.0705 -0.8416 -0.2525
  165SAPE     P18535   2.351   0.264   6.283  0.1580  0.1674 -0.3037
  165SAPE   O1318536   2.308   0.355   6.171  0.5189 -0.7022 -0.0751
  165SAPE   O1418537   2.314   0.121   6.282  0.0379 -0.1415  0.3747
  165SAPE   O1218538   2.506   0.274   6.289  0.0673  0.5313  0.9957
  165SAPE   O1118539   2.309   0.328   6.417 -0.4797 -0.5180 -0.4766
  165SAPE    C118540   2.222   0.443   6.425  0.0927 -0.2138 -0.0352
  165SAPE    HA18541   2.222   0.499   6.329 -2.1298  0.6315  0.4181
  165SAPE    HB18542   2.120   0.409   6.451  0.1284 -0.1279  0.2208
  165SAPE    C218543   2.260   0.551   6.529  0.1064 -0.9745 -0.0271
  165SAPE    HS18544   2.368   0.567   6.507  0.0266 -1.3240 -0.7007
  165SAPE   O2118545   2.236   0.506   6.656  0.1300  0.2946  0.0906
  165SAPE   C2118546   2.333   0.516   6.744 -0.2523  0.0258 -0.8556
  165SAPE   O2218547   2.437   0.576   6.724  0.5614  0.2814 -0.3652
  165SAPE   C2218548   2.299   0.446   6.872 -0.8584  0.0321 -0.7677
  165SAPE   H2R18549   2.189   0.457   6.886 -0.7720  0.3610 -0.3129
  165SAPE   H2S18550   2.314   0.336   6.869 -1.6908 -0.1844  1.2061
  165SAPE    C318551   2.176   0.684   6.490  0.0788 -0.3740  0.4944
  165SAPE    HX18552   2.068   0.663   6.484 -0.1006  0.8915 -2.4052
  165SAPE    HY18553   2.203   0.712   6.385  0.0391 -0.9455  0.3311
  165SAPE   O3118554   2.185   0.795   6.584 -0.2947  0.1521 -0.0224
  165SAPE   C3118555   2.283   0.875   6.568  0.2884  0.6654 -0.0235
  165SAPE   O3218556   2.366   0.880   6.475  0.2343  0.4100 -0.6818
  165SAPE   C3218557   2.287   0.988   6.676  0.6171 -0.6318  0.1916
  165SAPE   H2X18558   2.188   1.038   6.691  1.4388  2.4896 -3.3076
  165SAPE   H2Y18559   2.352   1.069   6.637 -0.5756  0.2112 -0.1369
  165SAPE   C2318560   2.374   0.512   6.986 -0.8990 -0.3674  0.8423
  165SAPE   H3R18561   2.356   0.621   6.987 -1.4876 -0.4154 -0.7053
  165SAPE   H3S18562   2.482   0.491   6.969 -1.0020  0.5229 -1.2586
  165SAPE   C2418563   2.341   0.454   7.123 -0.1990  0.2944  0.3649
  165SAPE   H4R18564   2.363   0.345   7.115 -0.0066  0.4096 -0.7949
  165SAPE   H4S18565   2.233   0.466   7.146  0.3853  4.2590  1.8382
  165SAPE   C2518566   2.432   0.514   7.226  1.1593  0.3167  0.1615
  165SAPE   H5R18567   2.538   0.522   7.195  1.0389 -0.4695 -0.4744
  165SAPE   C2618568   2.407   0.555   7.351 -0.3116 -0.2946 -0.5174
  165SAPE   H6R18569   2.491   0.574   7.420  0.2592 -2.4394 -0.5453
  165SAPE   C2718570   2.269   0.547   7.416  0.4445 -0.8389 -0.5280
  165SAPE   H7R18571   2.264   0.455   7.479 -0.8659 -1.1506 -1.0486
  165SAPE   H7S18572   2.185   0.526   7.346 -0.6838 -0.2732  0.6219
  165SAPE   C2818573   2.246   0.686   7.484 -0.0276 -0.5760  0.1923
  165SAPE   H8R18574   2.217   0.764   7.412 -1.7650 -0.3047  1.1415
  165SAPE   C2918575   2.243   0.713   7.617  0.4462 -0.4666 -1.0310
  165SAPE   H9R18576   2.234   0.818   7.648  1.1266 -1.1995  1.9774
  165SAPE  C21018577   2.262   0.618   7.725  0.4327  0.4293 -0.1695
  165SAPE  H10R18578   2.355   0.643   7.780  0.5534  0.8443 -0.5572
  165SAPE  H10S18579   2.273   0.515   7.687 -0.2904 -0.2371  1.3460
  165SAPE  C21118580   2.150   0.608   7.827 -0.1742 -0.2511 -0.1578
  165SAPE  H11R18581   2.083   0.522   7.806 -0.4673 -0.0086 -0.2183
  165SAPE  C21218582   2.135   0.682   7.943  0.6287  0.1498  0.5672
  165SAPE  H12R18583   2.050   0.651   8.006  0.4141 -1.8845 -0.6066
  165SAPE  C21318584   2.228   0.787   7.999 -0.0281 -0.1085  0.1024
  165SAPE  H13R18585   2.244   0.865   7.922  0.4116 -1.2754 -1.0193
  165SAPE  H13S18586   2.333   0.757   8.018 -0.2733 -0.1871  1.4238
  165SAPE  C21418587   2.172   0.852   8.122 -0.4498 -0.2340 -0.0036
  165SAPE  H14R18588   2.124   0.950   8.106  0.9360  0.6009  0.7042
  165SAPE  C21518589   2.178   0.806   8.249 -0.1740 -0.4941 -0.0963
  165SAPE  H15R18590   2.138   0.871   8.328 -1.1969  1.1443 -1.8769
  165SAPE  C21618591   2.246   0.679   8.295  0.0289 -0.1774 -0.1604
  165SAPE  H16R18592   2.297   0.699   8.392 -0.3635  1.6052 -0.2998
  165SAPE  H16S18593   2.324   0.640   8.226  0.3571 -1.7037  1.0000
  165SAPE  C21718594   2.140   0.568   8.323 -0.1331 -0.0995 -0.7842
  165SAPE  H17R18595   2.060   0.561   8.247 -1.3179  0.7590  0.3330
  165SAPE  H17S18596   2.084   0.590   8.417  1.2347 -0.6136  0.1886
  165SAPE  C21818597   2.204   0.432   8.329 -0.7980  0.1236  0.1425
  165SAPE  H18R18598   2.276   0.440   8.413  0.2902  3.3282 -0.9564
  165SAPE  H18S18599   2.261   0.397   8.241  0.1794 -0.8362  1.1317
  165SAPE  C21918600   2.105   0.325   8.345 -0.0374  0.5537  0.5128
  165SAPE  H19R18601   2.040   0.343   8.257 -0.8585  0.5537  1.1082
  165SAPE  H19S18602   2.035   0.348   8.428  0.5595  2.0754  0.6287
  165SAPE  C22018603   2.165   0.181   8.359  0.5859  0.1011  0.3705
  165SAPE  H20R18604   2.090   0.104   8.335  0.0627  1.2036 -1.7291
  165SAPE  H20S18605   2.220   0.168   8.455 -0.3731  0.5191  0.9979
  165SAPE  H20T18606   2.240   0.170   8.279 -0.2132 -1.2653 -0.2243
  165SAPE   C3318607   2.352   0.946   6.815 -0.0998 -0.2077  1.0536
  165SAPE   H3X18608   2.441   1.010   6.835  0.2181 -0.3288  0.0665
  165SAPE   H3Y18609   2.381   0.839   6.812  1.7822  0.2286  2.2261
  165SAPE   C3418610   2.251   0.963   6.937 -0.3906  0.1130 -0.5974
  165SAPE   H4X18611   2.171   0.887   6.928 -0.3620  0.0576 -0.3902
  165SAPE   H4Y18612   2.200   1.062   6.943 -0.6292 -0.0044 -0.6720
  165SAPE   C3518613   2.321   0.942   7.072  0.1727 -0.3454  0.1105
  165SAPE   H5X18614   2.420   0.992   7.066 -0.0221 -0.0154 -0.3993
  165SAPE   H5Y18615   2.335   0.833   7.090  0.2976 -0.5357 -1.0674
  165SAPE   C3618616   2.261   0.992   7.205  0.3150 -0.0209  0.3475
  165SAPE   H6X18617   2.190   0.910   7.228  0.2155 -0.3931 -1.1483
  165SAPE   H6Y18618   2.207   1.089   7.200 -0.6523 -0.5916 -2.4409
  165SAPE   C3718619   2.358   0.990   7.320 -0.3577 -0.0359  0.0994
  165SAPE   H7X18620   2.452   1.027   7.275 -0.7357  0.9125  0.0812
  165SAPE   H7Y18621   2.386   0.888   7.355  0.1880 -0.2621 -0.9485
  165SAPE   C3818622   2.311   1.070   7.437  0.3379 -0.0927  0.0099
  165SAPE   H8X18623   2.230   1.018   7.493  0.2891  0.8412  0.8408
  165SAPE   H8Y18624   2.258   1.161   7.401 -0.2116  0.4114  1.9475
  165SAPE   C3918625   2.411   1.112   7.545 -0.0229 -0.0079 -0.6968
  165SAPE   H9X18626   2.510   1.126   7.496  0.8065 -2.6653  0.0547
  165SAPE   H9Y18627   2.421   1.028   7.617 -1.2804 -1.1946 -1.8584
  165SAPE  C31018628   2.351   1.231   7.620 -0.3478 -0.8366 -0.1730
  165SAPE  H10X18629   2.250   1.201   7.656 -0.4371  0.0003  0.2977
  165SAPE  H10Y18630   2.334   1.312   7.546  3.9272  0.1389 -0.3492
  165SAPE  C31118631   2.413   1.277   7.753 -0.1297 -0.0382 -1.0941
  165SAPE  H11X18632   2.516   1.317   7.739  0.0241  0.7055  1.5743
  165SAPE  H11Y18633   2.427   1.178   7.801 -2.9874  0.6701  1.5284
  165SAPE  C31218634   2.338   1.379   7.835  0.4233  0.2958 -0.2267
  165SAPE  H12X18635   2.251   1.322   7.872 -0.8290  2.8508  1.0720
  165SAPE  H12Y18636   2.292   1.456   7.770  1.3600 -0.4569 -1.8583
  165SAPE  C31318637   2.412   1.434   7.957 -0.4347  0.0898 -0.1890
  165SAPE  H13X18638   2.347   1.503   8.014 -1.1039 -1.1450  0.5721
  165SAPE  H13Y18639   2.493   1.500   7.918 -1.5655  1.2906 -0.5741
  165SAPE  C31418640   2.463   1.333   8.061  0.2841  0.8126  0.1185
  165SAPE  H14X18641   2.498   1.392   8.148 -0.7845 -1.9622  2.6118
  165SAPE  H14Y18642   2.539   1.260   8.026 -0.6990 -1.5885  2.6275
  165SAPE  C31518643   2.346   1.242   8.117 -0.4712  0.3335  0.4226
  165SAPE  H15X18644   2.321   1.179   8.029 -0.3731  2.1930 -0.9879
  165SAPE  H15Y18645   2.256   1.298   8.149 -1.8073 -0.7507 -1.2483
  165SAPE  C31618646   2.382   1.153   8.239  0.0885 -0.4341  0.6843
  165SAPE  H16X18647   2.293   1.093   8.269 -0.8120  0.2275 -0.5722
  165SAPE  H16Y18648   2.411   1.218   8.325  0.5165 -0.7083  0.7542
  165SAPE  C31718649   2.495   1.062   8.195  0.8418  0.3657 -0.7949
  165SAPE  H17X18650   2.579   1.128   8.166 -0.7473  2.7375 -0.2664
  165SAPE  H17Y18651   2.473   0.998   8.107 -1.3082 -2.5879  1.6652
  165SAPE  C31818652   2.532   0.971   8.315  0.4036  0.4313 -0.1915
  165SAPE  H18X18653   2.611   0.899   8.287  0.2495  0.5741 -1.0234
  165SAPE  H18Y18654   2.439   0.914   8.338 -0.6418  2.6848  1.7351
  165SAPE  H18Z18655   2.565   1.034   8.401 -1.0019  0.5171  0.3132
  166SAPE     N18656   4.205   2.906   5.891  0.0732 -0.0373  0.2764
  166SAPE   HN118657   4.122   2.903   5.827 -0.3195 -2.2513  0.8047
  166SAPE   HN218658   4.295   2.903   5.840  0.1479  0.1503  0.3969
  166SAPE   HN318659   4.207   2.815   5.941 -0.7076  0.8435  2.0229
  166SAPE   C1218660   4.208   3.027   5.986 -0.0675  0.1718  0.2647
  166SAPE  H12A18661   4.316   3.044   6.003 -0.1484  1.4618 -0.4407
  166SAPE  H12B18662   4.144   3.014   6.076  0.9180  1.4401  1.1718
  166SAPE   C1118663   4.173   3.159   5.911  0.2166  0.0274 -0.4079
  166SAPE  H11A18664   4.250   3.154   5.831  0.9466 -0.4006  0.3038
  166SAPE  H11B18665   4.204   3.251   5.965 -0.9148 -1.0714  2.3036
  166SAPE     P18666   3.920   3.225   5.943 -0.0950 -0.1534  0.0073
  166SAPE   O1318667   3.880   3.347   5.869 -0.3244 -0.4005 -0.6536
  166SAPE   O1418668   3.816   3.116   5.951  0.1749 -0.3544 -0.0868
  166SAPE   O1218669   4.043   3.167   5.861  0.2497  0.7974  0.1045
  166SAPE   O1118670   4.002   3.253   6.084 -0.3013  0.8485 -0.4355
  166SAPE    C118671   3.954   3.177   6.206 -0.0674 -0.5837  0.3610
  166SAPE    HA18672   3.909   3.082   6.172 -0.1557  0.0551 -1.4252
  166SAPE    HB18673   4.043   3.156   6.269  0.1779 -1.7531 -0.3419
  166SAPE    C218674   3.837   3.254   6.279 -0.2284 -0.1241  0.4393
  166SAPE    HS18675   3.776   3.296   6.196  1.8851 -0.0901 -1.1804
  166SAPE   O2118676   3.895   3.360   6.354 -0.5779  0.1968  1.0074
  166SAPE   C2118677   3.819   3.455   6.371  0.4237  0.4892  0.0550
  166SAPE   O2218678   3.702   3.461   6.336  0.1364 -0.5478 -0.1758
  166SAPE   C2218679   3.873   3.566   6.461 -0.1335  0.5653  0.1611
  166SAPE   H2R18680   3.981   3.546   6.476 -0.7343 -3.0879  0.4629
  166SAPE   H2S18681   3.853   3.653   6.395  0.1344 -0.5269 -1.4215
  166SAPE    C318682   3.745   3.162   6.368 -0.2166 -0.3757 -0.0371
  166SAPE    HX18683   3.691   3.101   6.293  2.5362 -0.2593 -2.2864
  166SAPE    HY18684   3.671   3.222   6.425  0.6835 -0.2974  1.0795
  166SAPE   O3118685   3.835   3.086   6.452 -0.5795  0.3903 -0.0541
  166SAPE   C3118686   3.771   3.024   6.550 -0.6046  0.6462 -0.1678
  166SAPE   O3218687   3.652   3.036   6.568  0.3126  0.1520  0.3173
  166SAPE   C3218688   3.857   2.954   6.649 -0.7761 -0.5523  0.1449
  166SAPE   H2X18689   3.936   3.031   6.658 -0.4423 -0.7790 -0.7646
  166SAPE   H2Y18690   3.895   2.867   6.591 -1.1632 -1.5247  1.3228
  166SAPE   C2318691   3.798   3.583   6.602 -0.0953  0.0760 -0.4345
  166SAPE   H3R18692   3.706   3.642   6.582  0.6716  0.7363 -2.2485
  166SAPE   H3S18693   3.852   3.645   6.677 -1.6846  0.6185  0.3109
  166SAPE   C2418694   3.742   3.454   6.661 -0.7539  0.0352  0.3905
  166SAPE   H4R18695   3.692   3.395   6.581 -0.7100 -0.1201  0.4782
  166SAPE   H4S18696   3.667   3.483   6.737  1.3494  1.2026  2.1076
  166SAPE   C2518697   3.850   3.368   6.709  0.3495  0.4291 -0.3075
  166SAPE   H5R18698   3.893   3.297   6.637  0.2347 -1.0650  1.0441
  166SAPE   C2618699   3.891   3.363   6.837 -0.3896  0.3594 -1.2693
  166SAPE   H6R18700   3.973   3.295   6.863 -1.8559 -0.5838  1.2896
  166SAPE   C2718701   3.829   3.437   6.960 -0.4406 -0.1678 -0.1802
  166SAPE   H7R18702   3.826   3.547   6.941  3.9406  0.1416 -0.3070
  166SAPE   H7S18703   3.902   3.429   7.044  0.5525  0.7434 -0.9182
  166SAPE   C2818704   3.694   3.392   7.013 -1.0947 -0.0991  1.1129
  166SAPE   H8R18705   3.653   3.300   6.968 -1.6188  0.1751  1.0212
  166SAPE   C2918706   3.629   3.464   7.104  0.0430  0.3206  0.0962
  166SAPE   H9R18707   3.533   3.425   7.141 -0.3625  1.5890  0.4167
  166SAPE  C21018708   3.671   3.589   7.175 -0.3625 -0.5818  0.0868
  166SAPE  H10R18709   3.741   3.651   7.115  0.2149 -3.0784 -1.9697
  166SAPE  H10S18710   3.736   3.570   7.263  0.2579 -3.6006 -0.9237
  166SAPE  C21118711   3.549   3.673   7.196  0.0190 -0.2732  0.0752
  166SAPE  H11R18712   3.497   3.713   7.108 -1.7126  2.9455  2.3770
  166SAPE  C21218713   3.503   3.698   7.315 -0.2148  0.0750 -0.6740
  166SAPE  H12R18714   3.416   3.761   7.339  0.5865  0.8172  0.3771
  166SAPE  C21318715   3.565   3.651   7.446  0.1244  0.4559  0.2068
  166SAPE  H13R18716   3.525   3.706   7.534  0.9079 -1.6198  1.9364
  166SAPE  H13S18717   3.674   3.667   7.434 -0.2670  1.8389 -2.1320
  166SAPE  C21418718   3.545   3.502   7.474 -0.6046 -0.4440 -0.6393
  166SAPE  H14R18719   3.443   3.462   7.472  0.1781 -2.7908  1.0080
  166SAPE  C21518720   3.640   3.417   7.521  0.5262 -0.3130  0.2258
  166SAPE  H15R18721   3.611   3.313   7.541  2.7118 -1.1582 -0.6505
  166SAPE  C21618722   3.786   3.441   7.555 -0.7142  0.3526 -0.0029
  166SAPE  H16R18723   3.798   3.445   7.666  0.3768  0.0335 -0.0914
  166SAPE  H16S18724   3.836   3.531   7.515  1.3968 -0.5405  0.4336
  166SAPE  C21718725   3.878   3.324   7.501 -0.0928  0.1655  0.1524
  166SAPE  H17R18726   3.830   3.230   7.538 -0.6813  0.0428 -0.8584
  166SAPE  H17S18727   3.979   3.326   7.545 -0.9271 -0.5426  2.2130
  166SAPE  C21818728   3.882   3.322   7.345  0.4213 -0.1770 -0.2467
  166SAPE  H18R18729   3.937   3.410   7.307 -2.0234  0.7467 -1.8575
  166SAPE  H18S18730   3.779   3.350   7.314  0.8702 -0.5966 -2.2627
  166SAPE  C21918731   3.931   3.194   7.276  0.3667  0.3175  0.3150
  166SAPE  H19R18732   4.026   3.169   7.328  1.7071  2.4235 -0.9451
  166SAPE  H19S18733   3.959   3.225   7.173  1.6184 -1.6968 -0.0037
  166SAPE  C22018734   3.839   3.074   7.275  0.2238  0.2151 -0.2548
  166SAPE  H20R18735   3.811   3.064   7.382 -1.2463 -2.4180 -0.7942
  166SAPE  H20S18736   3.888   2.982   7.239  0.5376  1.1354 -2.3868
  166SAPE  H20T18737   3.753   3.097   7.208  1.1517 -0.9069 -1.9160
  166SAPE   C3318738   3.799   2.890   6.774 -0.1658  0.0097 -0.5362
  166SAPE   H3X18739   3.740   2.803   6.737 -1.4792  0.0771  1.2629
  166SAPE   H3Y18740   3.719   2.956   6.814 -3.0566 -2.2808 -2.0717
  166SAPE   C3418741   3.892   2.838   6.881 -0.7318 -0.4690  0.4314
  166SAPE   H4X18742   3.964   2.916   6.911  0.4230 -1.7610  1.1494
  166SAPE   H4Y18743   3.960   2.759   6.842 -0.1591 -0.2700  0.9972
  166SAPE   C3518744   3.823   2.799   7.005 -0.1729 -0.6512 -0.6660
  166SAPE   H5X18745   3.762   2.885   7.040  1.7787 -0.7701  3.7062
  166SAPE   H5Y18746   3.889   2.778   7.092 -0.3386  0.1540 -0.3344
  166SAPE   C3618747   3.732   2.686   6.984 -0.3037  0.7910 -0.9672
  166SAPE   H6X18748   3.767   2.606   6.917 -0.5394 -1.1622  1.1182
  166SAPE   H6Y18749   3.641   2.731   6.939  0.0381  1.6153 -0.8659
  166SAPE   C3718750   3.707   2.613   7.119  0.6706 -0.0421 -0.0460
  166SAPE   H7X18751   3.800   2.574   7.166 -0.2797 -2.7188 -0.2353
  166SAPE   H7Y18752   3.638   2.526   7.124 -0.8284  1.1219  3.5612
  166SAPE   C3818753   3.632   2.716   7.215  0.0598 -0.4784  0.2808
  166SAPE   H8X18754   3.536   2.736   7.163  1.1256  1.1549 -1.2018
  166SAPE   H8Y18755   3.676   2.818   7.222 -0.5929 -0.1304 -0.4757
  166SAPE   C3918756   3.618   2.673   7.363 -0.0991 -0.0029 -0.2183
  166SAPE   H9X18757   3.570   2.573   7.353  2.1807 -1.0024 -1.8512
  166SAPE   H9Y18758   3.537   2.737   7.405  0.3119  0.5741 -0.2929
  166SAPE  C31018759   3.734   2.702   7.459 -0.4560 -0.3185  1.0259
  166SAPE  H10X18760   3.746   2.812   7.454  0.6390 -0.4632 -0.9085
  166SAPE  H10Y18761   3.825   2.658   7.411 -0.7801 -1.3109  1.2906
  166SAPE  C31118762   3.701   2.658   7.606 -0.0498 -0.2548 -0.2287
  166SAPE  H11X18763   3.732   2.551   7.601  2.0886  0.3131 -0.3701
  166SAPE  H11Y18764   3.591   2.666   7.617 -0.2225 -1.6856 -0.7277
  166SAPE  C31218765   3.779   2.729   7.711 -0.1432  0.1370  0.3612
  166SAPE  H12X18766   3.743   2.834   7.713 -0.0821  0.2755 -2.4038
  166SAPE  H12Y18767   3.885   2.716   7.680 -0.0390  2.1031 -0.2188
  166SAPE  C31318768   3.767   2.668   7.850 -0.7862  0.0613 -0.5185
  166SAPE  H13X18769   3.868   2.689   7.893 -1.4145 -0.7581  1.4770
  166SAPE  H13Y18770   3.753   2.558   7.847 -0.3877 -0.0352  0.5095
  166SAPE  C31418771   3.653   2.724   7.942  0.3206 -0.1622 -0.2536
  166SAPE  H14X18772   3.555   2.714   7.890 -1.3082  1.5371  2.2813
  166SAPE  H14Y18773   3.661   2.834   7.952 -0.2544  0.0170 -1.4956
  166SAPE  C31518774   3.648   2.648   8.074  0.0005  0.3325 -0.4083
  166SAPE  H15X18775   3.757   2.642   8.090  0.2331 -0.1886 -2.0510
  166SAPE  H15Y18776   3.618   2.543   8.056  1.9904 -0.0214 -1.9261
  166SAPE  C31618777   3.581   2.721   8.194 -0.0815  0.3307  0.0004
  166SAPE  H16X18778   3.566   2.641   8.270 -0.0968 -0.1157 -0.4643
  166SAPE  H16Y18779   3.479   2.760   8.176  0.4796  3.5598  2.8299
  166SAPE  C31718780   3.661   2.835   8.256 -0.3063 -0.3829 -0.9550
  166SAPE  H17X18781   3.684   2.905   8.172 -1.0378  0.7072 -0.2731
  166SAPE  H17Y18782   3.756   2.791   8.291 -0.1351 -0.1679 -1.1416
  166SAPE  C31818783   3.596   2.918   8.372  0.7997 -0.0025 -0.2829
  166SAPE  H18X18784   3.548   2.863   8.456 -0.6283  0.1688 -0.9536
  166SAPE  H18Y18785   3.527   2.985   8.317  0.5609 -1.2719 -1.6008
  166SAPE  H18Z18786   3.671   2.981   8.425  0.8466  0.3598 -0.7779
  167SAPE     N18787   2.328   2.094   6.027  0.7596 -0.0898 -0.1377
  167SAPE   HN118788   2.263   2.133   6.098 -0.1169 -3.5691  1.2058
  167SAPE   HN218789   2.304   2.128   5.931 -0.1111 -2.0635 -0.6819
  167SAPE   HN318790   2.297   1.995   6.018 -1.0982  0.3437  1.0127
  167SAPE   C1218791   2.471   2.108   6.067 -0.0182 -0.3567 -0.1389
  167SAPE  H12A18792   2.475   2.073   6.173 -0.6321 -0.9860 -0.3163
  167SAPE  H12B18793   2.495   2.215   6.051  0.4804 -0.1777  1.5431
  167SAPE   C1118794   2.557   2.006   5.987 -0.0970  0.1372 -0.2535
  167SAPE  H11A18795   2.660   2.016   6.025  0.3784  0.2773 -1.5344
  167SAPE  H11B18796   2.553   2.041   5.881 -2.8270  3.2797  0.7124
  167SAPE     P18797   2.581   1.775   6.122 -0.0504 -0.0388 -0.0278
  167SAPE   O1318798   2.535   1.633   6.117 -0.3445 -0.2769 -0.1128
  167SAPE   O1418799   2.726   1.784   6.115  0.1078  0.0089 -0.0431
  167SAPE   O1218800   2.517   1.866   6.011  0.1348 -0.4211  0.3958
  167SAPE   O1118801   2.524   1.841   6.258  0.3094 -0.2493  0.2287
  167SAPE    C118802   2.387   1.819   6.288  0.4279  0.1056 -0.0097
  167SAPE    HA18803   2.329   1.909   6.257 -0.5933 -0.6465 -0.3058
  167SAPE    HB18804   2.338   1.733   6.240 -1.4060  0.7852  0.5564
  167SAPE    C218805   2.375   1.780   6.434  0.1692 -0.3380  0.4910
  167SAPE    HS18806   2.270   1.792   6.465 -0.1439  0.6244 -0.8394
  167SAPE   O2118807   2.455   1.868   6.512  0.3633 -0.3783  0.3702
  167SAPE   C2118808   2.400   1.993   6.530  0.3946 -0.0331 -0.3523
  167SAPE   O2218809   2.302   2.039   6.476 -0.2057 -0.5092  0.0036
  167SAPE   C2218810   2.464   2.058   6.646 -0.4821 -0.4245  0.0138
  167SAPE   H2R18811   2.477   1.984   6.728 -1.8682 -1.3111 -0.5380
  167SAPE   H2S18812   2.565   2.090   6.613 -1.1555  1.8825  0.0238
  167SAPE    C318813   2.417   1.628   6.451  0.2578  0.2947 -0.0308
  167SAPE    HX18814   2.526   1.617   6.433  0.4653 -0.2989  1.4585
  167SAPE    HY18815   2.349   1.575   6.381  0.9413  1.0919 -1.3412
  167SAPE   O3118816   2.366   1.585   6.582  0.2043  0.0110 -0.3215
  167SAPE   C3118817   2.462   1.549   6.669  0.4147  0.2339  0.1286
  167SAPE   O3218818   2.583   1.578   6.654 -0.2470 -0.1383 -0.2195
  167SAPE   C3218819   2.405   1.477   6.789  0.7699 -0.1947  0.3426
  167SAPE   H2X18820   2.295   1.462   6.789  0.6588  0.2837 -1.5132
  167SAPE   H2Y18821   2.420   1.538   6.880  0.1788 -0.2847  0.5023
  167SAPE   C2318822   2.380   2.177   6.698  0.1841  0.5797  0.3283
  167SAPE   H3R18823   2.278   2.138   6.717  0.3639  0.0853  0.2735
  167SAPE   H3S18824   2.377   2.253   6.617  1.1214 -0.1192 -0.3793
  167SAPE   C2418825   2.447   2.249   6.813 -0.4157  0.1322  0.8127
  167SAPE   H4R18826   2.554   2.266   6.789 -0.2211 -0.8802  0.8837
  167SAPE   H4S18827   2.440   2.187   6.905 -2.1529  2.1742  2.1506
  167SAPE   C2518828   2.379   2.381   6.839 -0.6782 -0.1597 -0.0339
  167SAPE   H5R18829   2.376   2.451   6.754 -1.8871 -0.3189 -0.1417
  167SAPE   C2618830   2.322   2.432   6.950 -0.4181  0.0451  0.2080
  167SAPE   H6R18831   2.288   2.537   6.951  0.4834  0.3400  0.3180
  167SAPE   C2718832   2.307   2.352   7.074  0.0042  0.2882  0.1463
  167SAPE   H7R18833   2.407   2.316   7.105 -1.0578 -0.7582  2.7044
  167SAPE   H7S18834   2.241   2.263   7.071 -0.1955  0.4672 -1.7117
  167SAPE   C2818835   2.256   2.438   7.186  0.0525  0.5031 -0.6874
  167SAPE   H8R18836   2.254   2.547   7.171 -3.4043  0.7079  0.3495
  167SAPE   C2918837   2.218   2.378   7.297  0.4372  0.0162 -0.0758
  167SAPE   H9R18838   2.173   2.443   7.374 -1.0871  1.0878 -1.7743
  167SAPE  C21018839   2.222   2.235   7.328  1.1431  0.6945 -0.2740
  167SAPE  H10R18840   2.277   2.170   7.256  1.1440 -1.1408  1.3081
  167SAPE  H10S18841   2.116   2.201   7.334  1.1155  0.9990  1.3450
  167SAPE  C21118842   2.285   2.219   7.476  0.1905  0.4303  0.2787
  167SAPE  H11R18843   2.229   2.274   7.553  0.7856  2.3494 -0.5973
  167SAPE  C21218844   2.392   2.146   7.520 -0.5567  0.2967 -0.2349
  167SAPE  H12R18845   2.414   2.145   7.628 -0.6928 -1.9595 -0.1619
  167SAPE  C21318846   2.498   2.072   7.441 -0.0013  0.7443 -0.5888
  167SAPE  H13R18847   2.552   2.158   7.397  1.3113 -0.0286 -0.5362
  167SAPE  H13S18848   2.459   2.017   7.353 -1.8283  1.0130  0.0110
  167SAPE  C21418849   2.586   1.981   7.522 -1.3140 -0.1448  0.1722
  167SAPE  H14R18850   2.553   1.877   7.532 -0.5730 -0.2285  2.2827
  167SAPE  C21518851   2.686   2.022   7.605 -0.3521 -0.3816  0.0865
  167SAPE  H15R18852   2.755   1.947   7.646 -0.3401  0.4311  1.6011
  167SAPE  C21618853   2.724   2.165   7.627  0.6356 -0.1486  0.3618
  167SAPE  H16R18854   2.627   2.212   7.653  0.1924 -0.9838  0.2485
  167SAPE  H16S18855   2.750   2.207   7.528 -0.6376 -1.0621 -0.3823
  167SAPE  C21718856   2.822   2.207   7.738  0.7776 -0.2760  0.2528
  167SAPE  H17R18857   2.846   2.315   7.726 -0.7075 -0.0848 -1.3843
  167SAPE  H17S18858   2.908   2.140   7.716 -1.1583 -2.8856  0.1323
  167SAPE  C21818859   2.764   2.183   7.874  0.7560  0.3393  0.0672
  167SAPE  H18R18860   2.740   2.076   7.887 -0.2185  0.6591  0.9501
  167SAPE  H18S18861   2.675   2.248   7.867  1.7353  1.9650  1.8005
  167SAPE  C21918862   2.855   2.231   7.985  0.5764 -0.7837  0.1404
  167SAPE  H19R18863   2.896   2.331   7.958 -2.2828  0.5546  0.3905
  167SAPE  H19S18864   2.947   2.169   7.994  0.8239 -0.6386 -1.1273
  167SAPE  C22018865   2.793   2.226   8.121  1.3640  0.3244 -1.1934
  167SAPE  H20R18866   2.788   2.117   8.141  0.0721  0.1545 -2.3074
  167SAPE  H20S18867   2.686   2.257   8.122  0.6129 -2.0768  0.3708
  167SAPE  H20T18868   2.851   2.286   8.194 -0.9634  1.1125  0.1089
  167SAPE   C3318869   2.463   1.333   6.813 -0.2928 -0.1215 -0.1292
  167SAPE   H3X18870   2.496   1.285   6.718 -1.5052 -0.1859 -0.5401
  167SAPE   H3Y18871   2.383   1.264   6.849  0.6524 -1.0892  0.1688
  167SAPE   C3418872   2.562   1.331   6.928 -0.6912 -0.2634  0.4488
  167SAPE   H4X18873   2.633   1.413   6.904 -1.5802  0.0179 -1.4707
  167SAPE   H4Y18874   2.613   1.233   6.936  1.3560  0.7672  0.7237
  167SAPE   C3518875   2.504   1.353   7.065  0.1580  0.8869  0.7975
  167SAPE   H5X18876   2.421   1.282   7.084 -0.6621  1.0388 -1.7994
  167SAPE   H5Y18877   2.460   1.455   7.068 -0.6138  0.5698  0.4396
  167SAPE   C3618878   2.604   1.343   7.170  0.2434 -0.7390 -0.3093
  167SAPE   H6X18879   2.705   1.383   7.146  0.2788  0.8635  2.1884
  167SAPE   H6Y18880   2.621   1.237   7.198 -1.4069 -1.1841 -0.8764
  167SAPE   C3718881   2.562   1.411   7.309 -0.4093  0.2116  0.1240
  167SAPE   H7X18882   2.485   1.346   7.357  0.6012  0.1817  1.7886
  167SAPE   H7Y18883   2.527   1.513   7.284 -0.5125  0.2634  0.4753
  167SAPE   C3818884   2.682   1.418   7.399  0.4909  0.3302  0.1422
  167SAPE   H8X18885   2.761   1.451   7.328  1.0102 -1.2653 -0.0664
  167SAPE   H8Y18886   2.708   1.319   7.444 -0.7367  0.0260  0.2308
  167SAPE   C3918887   2.660   1.516   7.519  1.2044  0.3383  0.4542
  167SAPE   H9X18888   2.587   1.482   7.595 -0.7373 -0.2429 -1.5806
  167SAPE   H9Y18889   2.624   1.616   7.485 -0.5923  0.1453  1.7022
  167SAPE  C31018890   2.792   1.536   7.598  1.1206 -0.0783  0.3495
  167SAPE  H10X18891   2.872   1.540   7.521  2.6603 -0.0609  1.8891
  167SAPE  H10Y18892   2.815   1.440   7.648 -1.5701 -2.2954 -2.2719
  167SAPE  C31118893   2.792   1.660   7.690 -1.3847  0.1110 -0.5313
  167SAPE  H11X18894   2.723   1.649   7.776  3.0449 -0.5225  3.3520
  167SAPE  H11Y18895   2.764   1.751   7.633 -0.5395 -0.1867 -1.4518
  167SAPE  C31218896   2.935   1.695   7.749  0.1098  0.4262  0.2089
  167SAPE  H12X18897   2.991   1.723   7.657  2.4980 -0.5911  1.2616
  167SAPE  H12Y18898   2.991   1.609   7.793 -1.4651  0.2208  1.9057
  167SAPE  C31318899   2.930   1.808   7.852  0.4805 -1.2432  0.3152
  167SAPE  H13X18900   2.894   1.895   7.793 -1.8282 -0.7480  2.2872
  167SAPE  H13Y18901   3.033   1.827   7.891  0.6803 -1.3602 -0.1516
  167SAPE  C31418902   2.830   1.780   7.963  0.6131 -0.3137 -0.2050
  167SAPE  H14X18903   2.727   1.803   7.926  0.9197  1.3175 -0.1442
  167SAPE  H14Y18904   2.862   1.855   8.039  1.6707 -0.2215 -0.7300
  167SAPE  C31518905   2.850   1.647   8.038 -0.0442 -0.2246  0.3993
  167SAPE  H15X18906   2.893   1.566   7.976 -0.1137  0.0538 -0.0126
  167SAPE  H15Y18907   2.753   1.601   8.066 -0.5270 -0.0109 -0.8473
  167SAPE  C31618908   2.943   1.666   8.163  0.2735  0.2230  0.5308
  167SAPE  H16X18909   3.031   1.729   8.135  0.7547 -1.5379 -2.2870
  167SAPE  H16Y18910   2.985   1.568   8.193 -1.8367 -0.9524 -0.1231
  167SAPE  C31718911   2.866   1.723   8.278  0.1655 -0.3384 -0.1616
  167SAPE  H17X18912   2.767   1.676   8.298  0.4083 -1.2473 -1.0490
  167SAPE  H17Y18913   2.839   1.827   8.249 -0.9858 -0.9730 -1.5082
  167SAPE  C31818914   2.937   1.719   8.413  0.1050  0.4773  0.1868
  167SAPE  H18X18915   3.046   1.736   8.400  0.1763 -0.8619 -1.3936
  167SAPE  H18Y18916   2.923   1.631   8.479 -1.4288  1.1008  0.7369
  167SAPE  H18Z18917   2.901   1.801   8.477  1.2114 -0.2865  1.8441
  168SAPE     N18918   5.757   4.308   5.935  0.1161  0.2103 -0.4090
  168SAPE   HN118919   5.817   4.225   5.949  0.5710  0.8340  1.9048
  168SAPE   HN218920   5.734   4.311   5.834  0.9060  0.4416 -0.5818
  168SAPE   HN318921   5.815   4.389   5.967  0.8521 -0.5254  0.1547
  168SAPE   C1218922   5.631   4.290   6.012  0.4128 -0.1067 -0.6246
  168SAPE  H12A18923   5.592   4.189   5.984  1.2334 -0.7741  0.5583
  168SAPE  H12B18924   5.552   4.361   5.980 -0.5541  0.1566  2.1413
  168SAPE   C1118925   5.645   4.297   6.168  0.9247  0.6709  0.3765
  168SAPE  H11A18926   5.543   4.286   6.211  1.2906 -0.3935  1.0054
  168SAPE  H11B18927   5.671   4.399   6.203  0.6252  0.1225  2.2761
  168SAPE     P18928   5.747   4.183   6.376 -0.0691 -0.0652 -0.0706
  168SAPE   O1318929   5.681   4.060   6.431 -0.5096 -0.1423 -0.0531
  168SAPE   O1418930   5.897   4.176   6.386 -0.0500 -0.1966 -0.0353
  168SAPE   O1218931   5.728   4.197   6.212  0.1041 -0.1919  0.0907
  168SAPE   O1118932   5.702   4.322   6.431 -0.1211 -0.2202  0.0975
  168SAPE    C118933   5.798   4.411   6.494 -0.0643 -0.3987 -0.0348
  168SAPE    HA18934   5.904   4.407   6.463 -0.1986  2.0570 -1.0637
  168SAPE    HB18935   5.771   4.518   6.482 -0.3440 -0.3042  1.2122
  168SAPE    C218936   5.788   4.403   6.655 -0.1691  0.0493  0.0688
  168SAPE    HS18937   5.870   4.336   6.691  1.1460  1.1767 -0.7338
  168SAPE   O2118938   5.656   4.368   6.697  0.0724  0.0364  0.2470
  168SAPE   C2118939   5.645   4.250   6.745 -0.3792 -0.2353  0.3867
  168SAPE   O2218940   5.733   4.186   6.800 -0.1479  0.4562 -0.6784
  168SAPE   C2218941   5.502   4.203   6.707 -0.2796  0.2307 -0.7041
  168SAPE   H2R18942   5.438   4.293   6.711  1.9747  1.8572  0.9333
  168SAPE   H2S18943   5.498   4.173   6.600 -2.4538  0.9893 -0.8863
  168SAPE    C318944   5.829   4.540   6.716  0.1565  0.2047 -0.2655
  168SAPE    HX18945   5.761   4.622   6.687  1.7368  1.6641 -0.0169
  168SAPE    HY18946   5.927   4.562   6.667 -0.8223 -0.7574 -2.8109
  168SAPE   O3118947   5.839   4.536   6.863  0.0596  0.1215 -0.2133
  168SAPE   C3118948   5.948   4.476   6.916  0.6264 -0.9875  0.3852
  168SAPE   O3218949   6.036   4.423   6.858 -0.2462  0.0847 -0.2102
  168SAPE   C3218950   5.945   4.479   7.066 -0.6021 -0.0541 -0.2777
  168SAPE   H2X18951   5.886   4.564   7.107  1.7479  2.3537 -1.6019
  168SAPE   H2Y18952   6.053   4.482   7.092 -0.2145 -2.2177 -1.3339
  168SAPE   C2318953   5.429   4.105   6.802 -0.3221  0.4820 -0.1457
  168SAPE   H3R18954   5.474   4.004   6.792  3.0938  1.7348  1.1046
  168SAPE   H3S18955   5.326   4.096   6.761  0.8496 -0.8685 -3.1049
  168SAPE   C2418956   5.423   4.158   6.948  0.1804  0.5470  0.5436
  168SAPE   H4R18957   5.368   4.255   6.946 -0.2176  0.3434  1.1803
  168SAPE   H4S18958   5.520   4.188   6.992  0.6812  1.1995 -0.9434
  168SAPE   C2518959   5.358   4.067   7.046  0.2818 -0.3748 -0.2796
  168SAPE   H5R18960   5.282   4.003   7.001  0.5843 -0.0306 -1.3107
  168SAPE   C2618961   5.374   4.069   7.178  0.0816 -0.7417 -1.0516
  168SAPE   H6R18962   5.332   3.988   7.239 -0.1879 -0.0918 -0.3605
  168SAPE   C2718963   5.470   4.157   7.261  0.5700 -0.1217 -0.4307
  168SAPE   H7R18964   5.412   4.239   7.309  2.5325 -0.4735  2.8251
  168SAPE   H7S18965   5.545   4.216   7.204  0.5664 -1.1368 -1.5126
  168SAPE   C2818966   5.538   4.076   7.371  0.5386  0.4240 -0.4366
  168SAPE   H8R18967   5.592   3.988   7.334  2.7071  1.3832  0.3037
  168SAPE   C2918968   5.546   4.099   7.503  0.2733  0.7485 -0.0082
  168SAPE   H9R18969   5.605   4.030   7.566 -0.8121 -0.2954 -0.1106
  168SAPE  C21018970   5.490   4.214   7.586  0.0444 -0.6561 -0.0340
  168SAPE  H10R18971   5.510   4.312   7.539 -3.4990  0.9393  1.3890
  168SAPE  H10S18972   5.535   4.201   7.687 -0.1090  0.2168  0.1592
  168SAPE  C21118973   5.341   4.206   7.611 -0.6129  0.1388  0.1372
  168SAPE  H11R18974   5.290   4.182   7.516  2.2139 -0.5480 -1.3258
  168SAPE  C21218975   5.280   4.221   7.730  1.0900  0.4121  0.0361
  168SAPE  H12R18976   5.171   4.204   7.726  1.1149  0.4852 -1.7864
  168SAPE  C21318977   5.340   4.265   7.862 -0.1899  0.5821 -0.0239
  168SAPE  H13R18978   5.267   4.311   7.933 -0.9608 -1.3917  0.5218
  168SAPE  H13S18979   5.417   4.338   7.829 -0.8724  0.7468 -1.3288
  168SAPE  C21418980   5.417   4.144   7.924 -0.4375 -0.8282 -0.0578
  168SAPE  H14R18981   5.426   4.057   7.858 -0.9975 -1.4104  0.6188
  168SAPE  C21518982   5.457   4.138   8.055  0.5752  0.1557 -0.3557
  168SAPE  H15R18983   5.522   4.055   8.083  2.4472  2.3042  2.1390
  168SAPE  C21618984   5.449   4.250   8.159  0.2990  0.4781 -0.6255
  168SAPE  H16R18985   5.431   4.351   8.118 -1.2655  1.3748  2.0630
  168SAPE  H16S18986   5.549   4.249   8.208 -0.2884 -1.1172  0.6558
  168SAPE  C21718987   5.346   4.215   8.268 -0.1072  0.3258  0.7322
  168SAPE  H17R18988   5.365   4.124   8.329 -0.6700 -0.6529 -0.4772
  168SAPE  H17S18989   5.254   4.194   8.208  0.1668  1.4626 -0.1161
  168SAPE  C21818990   5.325   4.326   8.367  0.0357 -0.4858 -0.1890
  168SAPE  H18R18991   5.315   4.426   8.321  1.5121  0.7877  2.0746
  168SAPE  H18S18992   5.416   4.336   8.430 -0.1689 -0.0351  0.0371
  168SAPE  C21918993   5.205   4.304   8.460  0.6946 -0.2481 -0.0953
  168SAPE  H19R18994   5.201   4.386   8.534 -1.8982  0.6529 -1.1172
  168SAPE  H19S18995   5.210   4.211   8.521 -0.9029  0.2365  0.8197
  168SAPE  C22018996   5.069   4.299   8.388 -0.0787 -0.2169  0.5912
  168SAPE  H20R18997   5.058   4.197   8.346  0.6657 -0.1323  0.1683
  168SAPE  H20S18998   5.065   4.376   8.308 -0.8068 -1.6455 -0.8010
  168SAPE  H20T18999   4.982   4.319   8.453  0.5083 -1.6563  1.8898
  168SAPE   C3319000   5.882   4.347   7.115  0.8500 -0.1563  0.2884
  168SAPE   H3X19001   5.793   4.322   7.054  0.7066 -0.6464  0.6936
  168SAPE   H3Y19002   5.854   4.368   7.220 -1.8348  0.8419 -0.5539
  168SAPE   C3419003   5.973   4.227   7.105  0.4284  0.0209 -0.0101
  168SAPE   H4X19004   6.070   4.268   7.140 -0.0908  0.7635  0.5703
  168SAPE   H4Y19005   5.972   4.186   7.002  0.2250 -0.2617  0.1017
  168SAPE   C3519006   5.939   4.103   7.192  1.0011  0.5266  0.5284
  168SAPE   H5X19007   5.993   4.014   7.154  1.6382  0.1591  2.1797
  168SAPE   H5Y19008   5.830   4.086   7.202  0.6832  0.9396 -1.8044
  168SAPE   C3619009   5.996   4.108   7.332  0.0439  0.2244 -0.3718
  168SAPE   H6X19010   5.930   4.177   7.389 -1.4865 -0.9101 -0.6895
  168SAPE   H6Y19011   6.100   4.146   7.331 -0.2792  1.1965  0.8524
  168SAPE   C3719012   5.988   3.966   7.398 -0.4407  0.0514  0.4126
  168SAPE   H7X19013   6.033   3.883   7.340  2.0411  0.9293  0.9790
  168SAPE   H7Y19014   5.879   3.946   7.391 -0.8575  2.2750 -0.2541
  168SAPE   C3819015   6.031   3.978   7.542  0.7339 -0.1845 -0.4762
  168SAPE   H8X19016   6.123   4.040   7.554  0.4618 -0.2782  2.9665
  168SAPE   H8Y19017   6.056   3.877   7.583  1.6678  0.8611  1.6562
  168SAPE   C3919018   5.919   4.046   7.624  0.3418 -0.2134 -0.1330
  168SAPE   H9X19019   5.824   3.997   7.595 -0.8757  2.2115 -0.4277
  168SAPE   H9Y19020   5.916   4.149   7.583 -1.2085 -0.4207 -0.6042
  168SAPE  C31019021   5.941   4.058   7.773 -0.7547  0.1123 -0.2461
  168SAPE  H10X19022   5.869   4.135   7.807 -1.2670 -0.4947  0.0733
  168SAPE  H10Y19023   6.046   4.087   7.795 -0.4223 -0.6133 -0.8199
  168SAPE  C31119024   5.913   3.923   7.842 -0.1952  0.5548  0.0867
  168SAPE  H11X19025   6.010   3.870   7.836  1.4215  3.5217 -2.7632
  168SAPE  H11Y19026   5.847   3.872   7.769  1.8070 -0.3187 -1.2072
  168SAPE  C31219027   5.865   3.928   7.980 -0.4550  0.4837 -0.8476
  168SAPE  H12X19028   5.825   3.828   8.005  1.0731 -0.2510 -1.2512
  168SAPE  H12Y19029   5.786   4.005   7.998  0.4710  1.0677  0.9376
  168SAPE  C31319030   5.976   3.969   8.085 -0.4772 -0.7649  0.2640
  168SAPE  H13X19031   6.014   4.063   8.038  1.6128 -2.7071 -2.2349
  168SAPE  H13Y19032   6.067   3.906   8.074 -0.3527 -0.9991  2.2947
  168SAPE  C31419033   5.938   3.975   8.236  0.1390 -0.2082  0.5426
  168SAPE  H14X19034   5.981   3.890   8.292  2.5869 -0.2474 -1.2387
  168SAPE  H14Y19035   5.827   3.970   8.233  0.1556 -0.0960 -0.5631
  168SAPE  C31519036   5.972   4.110   8.284 -0.5295 -0.2283 -0.2069
  168SAPE  H15X19037   5.943   4.182   8.204  2.7250 -0.9399 -2.2199
  168SAPE  H15Y19038   6.081   4.110   8.306 -0.1800 -0.0332 -1.7692
  168SAPE  C31619039   5.901   4.167   8.408 -0.3002 -0.4597  0.4331
  168SAPE  H16X19040   5.909   4.081   8.478 -1.9681 -0.0729  1.1561
  168SAPE  H16Y19041   5.793   4.185   8.386 -0.3975 -1.1657  0.3066
  168SAPE  C31719042   5.957   4.295   8.459 -0.3780  0.4699  0.4990
  168SAPE  H17X19043   5.956   4.363   8.370  1.2713  0.5428  0.5128
  168SAPE  H17Y19044   6.061   4.284   8.497 -0.3218  1.5127  0.6792
  168SAPE  C31819045   5.873   4.372   8.567 -0.5174  0.3974 -0.0654
  168SAPE  H18X19046   5.949   4.430   8.623  0.7431  1.0436 -2.3027
  168SAPE  H18Y19047   5.839   4.299   8.643  1.4507 -1.1128 -0.5197
  168SAPE  H18Z19048   5.801   4.445   8.525 -0.4186  0.0583 -0.8595
  169SAPE     N19049   3.732   6.051   6.162  0.4975  0.3780 -0.8069
  169SAPE   HN119050   3.640   6.083   6.199  1.8477  0.0397  3.3664
  169SAPE   HN219051   3.790   6.128   6.202  2.6143 -0.8072 -1.4772
  169SAPE   HN319052   3.739   6.054   6.058  0.9804 -0.0071 -0.7873
  169SAPE   C1219053   3.771   5.921   6.228 -0.2478 -0.4252  0.2081
  169SAPE  H12A19054   3.878   5.908   6.200 -0.3630  0.5442 -0.7584
  169SAPE  H12B19055   3.710   5.839   6.184  1.2921 -0.6899 -1.5480
  169SAPE   C1119056   3.754   5.924   6.375  0.2242  0.8086 -0.9472
  169SAPE  H11A19057   3.811   6.011   6.412 -0.1728  0.7941 -0.2795
  169SAPE  H11B19058   3.784   5.825   6.418  1.3486  2.1838  1.7152
  169SAPE     P19059   3.511   5.867   6.432  0.2476  0.1058 -0.0428
  169SAPE   O1319060   3.434   5.877   6.303 -0.0633  0.1098  0.0630
  169SAPE   O1419061   3.561   5.733   6.470 -0.2330  0.3437  0.0777
  169SAPE   O1219062   3.624   5.964   6.413 -0.1795 -0.2866  0.1087
  169SAPE   O1119063   3.418   5.912   6.558 -0.1291  0.0137  0.0167
  169SAPE    C119064   3.364   6.042   6.553 -0.3164  0.1595  0.1909
  169SAPE    HA19065   3.440   6.122   6.542  0.2777 -0.3956  0.1857
  169SAPE    HB19066   3.292   6.057   6.470  1.2040  0.3425 -1.1505
  169SAPE    C219067   3.296   6.068   6.690 -0.5219  0.4231 -0.1010
  169SAPE    HS19068   3.207   6.002   6.695 -0.2614  0.0146 -0.8680
  169SAPE   O2119069   3.258   6.206   6.699  0.5813  0.7025 -0.4737
  169SAPE   C2119070   3.144   6.238   6.640  0.2272  0.5124 -0.1376
  169SAPE   O2219071   3.072   6.159   6.577  0.1026  0.0750 -0.4210
  169SAPE   C2219072   3.119   6.390   6.645 -0.2635  0.2086  0.4552
  169SAPE   H2R19073   3.217   6.423   6.687  0.9305  0.5095 -2.3569
  169SAPE   H2S19074   3.118   6.424   6.540 -1.2514  1.7536  0.9346
  169SAPE    C319075   3.385   6.032   6.810 -0.0359  0.3592 -0.0464
  169SAPE    HX19076   3.486   6.075   6.792  0.4925 -1.4816 -1.9146
  169SAPE    HY19077   3.398   5.922   6.798 -0.3470  0.1491  1.3773
  169SAPE   O3119078   3.328   6.059   6.940  0.4088  0.1398  0.3656
  169SAPE   C3119079   3.397   6.138   7.022  0.7015 -0.2349 -0.3285
  169SAPE   O3219080   3.499   6.200   6.999 -0.3422 -0.0236  0.2816
  169SAPE   C3219081   3.342   6.122   7.160  0.9020 -0.2806 -0.5429
  169SAPE   H2X19082   3.319   6.016   7.187 -0.6810  0.0911 -0.3600
  169SAPE   H2Y19083   3.240   6.165   7.160  0.5645 -1.0567 -0.4418
  169SAPE   C2319084   2.994   6.436   6.723  0.1964  0.3152 -1.2779
  169SAPE   H3R19085   2.899   6.407   6.674 -1.0270  2.5841 -0.4108
  169SAPE   H3S19086   3.001   6.547   6.718 -0.6116  0.4195 -0.5414
  169SAPE   C2419087   2.997   6.375   6.870  0.1586 -0.2001 -0.5274
  169SAPE   H4R19088   2.997   6.264   6.861 -0.0110 -0.5007  2.2643
  169SAPE   H4S19089   2.891   6.393   6.898  0.0837 -0.6244 -0.5318
  169SAPE   C2519090   3.107   6.416   6.963 -0.4835  0.5227  0.9159
  169SAPE   H5R19091   3.202   6.375   6.925 -1.4557 -1.4985  0.4881
  169SAPE   C2619092   3.099   6.477   7.077  0.2572 -0.4983  0.7931
  169SAPE   H6R19093   3.185   6.484   7.145  0.1718 -1.2118  0.9872
  169SAPE   C2719094   2.962   6.515   7.139 -0.0430 -0.4686  0.4010
  169SAPE   H7R19095   2.897   6.558   7.059 -2.1272  0.6118  2.5641
  169SAPE   H7S19096   2.980   6.601   7.207 -1.0011  1.6317 -1.8257
  169SAPE   C2819097   2.895   6.404   7.212 -0.3517  0.0121 -0.8489
  169SAPE   H8R19098   2.823   6.351   7.147 -0.7506  0.9565 -1.1948
  169SAPE   C2919099   2.902   6.380   7.343  0.3514 -0.6138 -0.0462
  169SAPE   H9R19100   2.841   6.300   7.388  0.1011 -0.4692 -0.1286
  169SAPE  C21019101   2.983   6.460   7.439  0.1989  0.0623  0.2046
  169SAPE  H10R19102   2.940   6.563   7.435  2.9663  1.2646 -1.4160
  169SAPE  H10S19103   3.085   6.471   7.397  0.0549 -1.9723 -0.8321
  169SAPE  C21119104   2.991   6.407   7.578 -0.3367 -0.0500  0.4863
  169SAPE  H11R19105   2.996   6.297   7.586 -0.6921 -0.0226  1.2157
  169SAPE  C21219106   2.989   6.483   7.691  1.3739 -0.1479  0.4880
  169SAPE  H12R19107   3.002   6.430   7.787 -0.7106  0.5989  1.2389
  169SAPE  C21319108   2.971   6.633   7.694 -0.0806  0.1336  0.5524
  169SAPE  H13R19109   2.879   6.662   7.750  0.0321 -0.0497  0.8344
  169SAPE  H13S19110   2.954   6.683   7.595 -3.3342 -0.4592  0.6841
  169SAPE  C21419111   3.092   6.691   7.774 -0.2403  0.0964  0.1596
  169SAPE  H14R19112   3.165   6.752   7.719 -0.9420 -1.1747 -2.3317
  169SAPE  C21519113   3.110   6.673   7.908  0.4662  0.1418 -0.7121
  169SAPE  H15R19114   3.198   6.712   7.961  1.0380 -3.5585  1.3887
  169SAPE  C21619115   3.023   6.594   8.008 -0.7152 -0.2340  0.4887
  169SAPE  H16R19116   3.086   6.503   8.018 -1.2550 -0.6058  0.5170
  169SAPE  H16S19117   2.925   6.562   7.968 -0.5771 -1.8089  1.3584
  169SAPE  C21719118   3.009   6.652   8.151 -0.0685 -0.3452  0.0825
  169SAPE  H17R19119   2.957   6.750   8.145  1.2104  0.2861 -1.5743
  169SAPE  H17S19120   3.114   6.667   8.185 -1.1108  0.2703  3.3865
  169SAPE  C21819121   2.954   6.552   8.247 -0.0375 -0.6461  0.1344
  169SAPE  H18R19122   2.976   6.595   8.347  0.4626 -0.3486 -0.0952
  169SAPE  H18S19123   3.015   6.460   8.239  0.3911 -0.3186 -0.4852
  169SAPE  C21919124   2.805   6.512   8.226 -0.9378 -0.7425  0.1756
  169SAPE  H19R19125   2.816   6.430   8.152  1.8355 -1.8645  1.6604
  169SAPE  H19S19126   2.743   6.597   8.191  1.8036  0.8302 -1.1956
  169SAPE  C22019127   2.742   6.456   8.354  0.1704  0.0048 -0.4845
  169SAPE  H20R19128   2.804   6.377   8.402  0.6279  0.8424  0.3597
  169SAPE  H20S19129   2.641   6.412   8.343  0.1980 -0.4354  0.8995
  169SAPE  H20T19130   2.732   6.536   8.431 -1.4984  0.3135 -0.9682
  169SAPE   C3319131   3.417   6.195   7.282 -0.2143  0.5154  0.4924
  169SAPE   H3X19132   3.419   6.305   7.267  3.5985  0.5038  0.0289
  169SAPE   H3Y19133   3.511   6.151   7.322  1.9315  2.5235 -2.0119
  169SAPE   C3419134   3.325   6.174   7.410 -0.7846  0.0442  0.1355
  169SAPE   H4X19135   3.347   6.070   7.445 -1.1362  0.5090  1.8582
  169SAPE   H4Y19136   3.217   6.186   7.384 -0.7069 -0.2498 -0.3391
  169SAPE   C3519137   3.359   6.273   7.516  0.6118  0.9103 -0.6811
  169SAPE   H5X19138   3.324   6.377   7.497  3.8070  2.4538  1.0714
  169SAPE   H5Y19139   3.470   6.279   7.520  0.5815  0.8404  2.2768
  169SAPE   C3619140   3.317   6.220   7.656 -0.1888 -0.7212  0.3119
  169SAPE   H6X19141   3.336   6.111   7.652  1.4925 -0.4149 -1.1025
  169SAPE   H6Y19142   3.207   6.231   7.674 -0.0255 -0.6519  1.3513
  169SAPE   C3719143   3.379   6.293   7.777 -0.5729 -0.3263  0.8021
  169SAPE   H7X19144   3.366   6.402   7.759 -1.1032 -0.7053 -1.4280
  169SAPE   H7Y19145   3.488   6.273   7.773 -0.7025 -0.8880 -1.9954
  169SAPE   C3819146   3.321   6.262   7.916  0.8038  0.0754 -0.1709
  169SAPE   H8X19147   3.331   6.153   7.938 -0.2818 -0.3111 -1.4584
  169SAPE   H8Y19148   3.217   6.297   7.903  1.2235  1.6348  0.5243
  169SAPE   C3919149   3.387   6.354   8.020  0.1771  0.2935 -0.1160
  169SAPE   H9X19150   3.365   6.455   7.980  0.4295  0.6963  0.7372
  169SAPE   H9Y19151   3.497   6.343   8.036  0.0767  1.2061  1.4153
  169SAPE  C31019152   3.323   6.359   8.162  0.3750  0.3794 -0.0289
  169SAPE  H10X19153   3.351   6.264   8.213  1.1571  0.8026  0.3484
  169SAPE  H10Y19154   3.212   6.361   8.159  0.2909 -1.2038  0.7525
  169SAPE  C31119155   3.386   6.474   8.243  0.3169  0.8229  0.0112
  169SAPE  H11X19156   3.332   6.571   8.233 -4.9760 -1.6186  1.0660
  169SAPE  H11Y19157   3.493   6.498   8.228 -0.3120  4.0019 -0.2352
  169SAPE  C31219158   3.375   6.443   8.396  0.3342 -0.0714 -0.0500
  169SAPE  H12X19159   3.409   6.536   8.447 -1.9894  1.3156 -0.8589
  169SAPE  H12Y19160   3.448   6.367   8.428  1.4105  2.0059  2.8876
  169SAPE  C31319161   3.241   6.412   8.465  0.1125 -0.4049  0.0818
  169SAPE  H13X19162   3.209   6.305   8.464 -2.1075  0.1791  1.6390
  169SAPE  H13Y19163   3.160   6.472   8.419 -0.5041 -1.3664 -0.1197
  169SAPE  C31419164   3.249   6.436   8.620  0.9329  0.1651  0.1683
  169SAPE  H14X19165   3.152   6.411   8.669  1.0327  1.3741  1.0236
  169SAPE  H14Y19166   3.275   6.540   8.648  0.9022 -0.0520  1.0286
  169SAPE  C31519167   3.355   6.346   8.684 -0.4280  0.1802  0.2435
  169SAPE  H15X19168   3.450   6.402   8.670  0.2893 -1.3476 -1.4259
  169SAPE  H15Y19169   3.366   6.245   8.638 -1.9844 -0.3175  0.9056
  169SAPE  C31619170   3.336   6.317   8.838 -0.7955  0.3053  0.3202
  169SAPE  H16X19171   3.238   6.267   8.854 -0.6724  0.2171  0.8307
  169SAPE  H16Y19172   3.332   6.417   8.887 -0.8263  0.1184  0.7023
  169SAPE  C31719173   3.451   6.228   8.890 -0.4168  0.3904  0.1424
  169SAPE  H17X19174   3.445   6.125   8.848  0.1476  1.0276 -1.5854
  169SAPE  H17Y19175   3.450   6.213   9.000  1.6127  1.6314  0.3887
  169SAPE  C31819176   3.593   6.280   8.862  0.0090  0.1448  0.0649
  169SAPE  H18X19177   3.668   6.224   8.921 -1.3150 -1.2528  0.4955
  169SAPE  H18Y19178   3.608   6.386   8.892  1.3041  0.0909 -0.3327
  169SAPE  H18Z19179   3.618   6.280   8.754 -0.1804 -1.0425  0.0081
  170SAPE     N19180   5.465   2.375   6.015  0.4076  0.1122 -0.4031
  170SAPE   HN119181   5.495   2.276   6.008  2.3400  0.7244 -1.6894
  170SAPE   HN219182   5.365   2.384   5.989  0.1539 -1.2693  0.0445
  170SAPE   HN319183   5.529   2.429   5.952  2.5875 -1.0921  0.6528
  170SAPE   C1219184   5.485   2.418   6.159 -0.3932 -0.0350  0.3610
  170SAPE  H12A19185   5.417   2.365   6.230 -0.3292 -0.1337  0.3488
  170SAPE  H12B19186   5.457   2.524   6.170  1.6468  0.4906  0.8619
  170SAPE   C1119187   5.626   2.412   6.208 -0.9986 -0.6671  0.8688
  170SAPE  H11A19188   5.625   2.448   6.313 -0.6675  0.7342  0.4107
  170SAPE  H11B19189   5.686   2.489   6.155 -0.0140 -1.4660  0.7997
  170SAPE     P19190   5.834   2.268   6.171 -0.0435  0.0723  0.0434
  170SAPE   O1319191   5.842   2.165   6.066  0.0390  0.7401 -0.3013
  170SAPE   O1419192   5.895   2.401   6.137  0.9422  0.2755  0.0516
  170SAPE   O1219193   5.680   2.282   6.206 -0.2451  0.4867  0.2567
  170SAPE   O1119194   5.911   2.209   6.300 -0.2907  0.3457 -0.1259
  170SAPE    C119195   5.830   2.189   6.423 -0.2279 -0.1868  0.6593
  170SAPE    HA19196   5.729   2.151   6.396 -0.1643 -0.3426  0.6381
  170SAPE    HB19197   5.874   2.107   6.484  0.8594 -0.2050 -0.1355
  170SAPE    C219198   5.826   2.328   6.502 -0.2252  0.0806 -0.0601
  170SAPE    HS19199   5.830   2.409   6.426  0.0376 -0.9794 -1.2200
  170SAPE   O2119200   5.946   2.338   6.585  0.3707 -0.1102  0.1082
  170SAPE   C2119201   5.989   2.466   6.597 -0.1843  0.0470 -0.5704
  170SAPE   O2219202   5.945   2.568   6.549 -0.5927  0.0322  0.0603
  170SAPE   C2219203   6.106   2.455   6.693 -0.0115  0.0222 -0.1441
  170SAPE   H2R19204   6.085   2.387   6.778  0.9726  0.3813  0.4081
  170SAPE   H2S19205   6.202   2.413   6.655  0.3640  0.3793  0.3844
  170SAPE    C319206   5.703   2.355   6.595  0.6764 -1.0193  0.5352
  170SAPE    HX19207   5.713   2.276   6.673 -0.7144  0.4423  2.2692
  170SAPE    HY19208   5.609   2.343   6.535 -0.4837  1.5885  1.6731
  170SAPE   O3119209   5.717   2.485   6.659  0.4120  0.0720  0.0329
  170SAPE   C3119210   5.621   2.579   6.625  0.0270  0.6787  0.0791
  170SAPE   O3219211   5.548   2.570   6.530  0.8302 -0.5674 -0.3616
  170SAPE   C3219212   5.621   2.694   6.729  0.4926 -0.3494  0.2781
  170SAPE   H2X19213   5.568   2.783   6.688  1.5941  0.0489 -0.3360
  170SAPE   H2Y19214   5.726   2.729   6.740  0.2496  0.1570  1.0905
  170SAPE   C2319215   6.158   2.592   6.747  0.1334  0.5807  0.1350
  170SAPE   H3R19216   6.149   2.668   6.666 -0.4054  2.3106  1.7471
  170SAPE   H3S19217   6.269   2.592   6.748  0.1530  0.9603 -0.8959
  170SAPE   C2419218   6.091   2.644   6.876 -0.4807 -0.6312 -0.2337
  170SAPE   H4R19219   5.983   2.654   6.850 -0.2604  0.7567 -0.6603
  170SAPE   H4S19220   6.128   2.746   6.899 -1.6016  0.4428 -2.7572
  170SAPE   C2519221   6.114   2.550   6.993  0.2661  0.4793 -0.2132
  170SAPE   H5R19222   6.105   2.443   6.968 -2.8584  0.6800 -0.4213
  170SAPE   C2619223   6.154   2.575   7.118 -0.8168  0.2040 -0.5420
  170SAPE   H6R19224   6.156   2.494   7.192  1.6128  1.1719  0.5839
  170SAPE   C2719225   6.170   2.703   7.189 -0.3766  0.2697  0.2477
  170SAPE   H7R19226   6.239   2.761   7.125 -0.7081  0.6455  0.2285
  170SAPE   H7S19227   6.236   2.694   7.278 -1.5867 -0.5045  1.1026
  170SAPE   C2819228   6.043   2.770   7.229  0.2779  0.2380  0.1692
  170SAPE   H8R19229   5.996   2.836   7.155 -0.3606 -0.9430 -0.5091
  170SAPE   C2919230   5.982   2.755   7.341  0.2833  0.5729  0.6556
  170SAPE   H9R19231   5.880   2.798   7.342 -1.0648 -2.3416 -0.0493
  170SAPE  C21019232   6.015   2.667   7.462  0.4213 -0.8778  0.0500
  170SAPE  H10R19233   6.052   2.568   7.430 -1.1841 -1.4814 -0.0263
  170SAPE  H10S19234   5.918   2.653   7.514 -0.4550  2.3655 -0.4785
  170SAPE  C21119235   6.110   2.739   7.558  0.4532  0.9834 -0.2988
  170SAPE  H11R19236   6.155   2.834   7.528  0.1671  2.5288  3.5586
  170SAPE  C21219237   6.140   2.703   7.685 -0.2557  0.1725  0.2290
  170SAPE  H12R19238   6.203   2.766   7.749  0.8395 -3.5148  3.1812
  170SAPE  C21319239   6.089   2.575   7.750 -0.1836  0.2715  0.1500
  170SAPE  H13R19240   6.164   2.514   7.805 -2.6846 -1.4746  1.8689
  170SAPE  H13S19241   6.069   2.496   7.674  0.4028 -0.4728  0.7486
  170SAPE  C21419242   5.961   2.592   7.831 -0.0190  0.3702 -0.3173
  170SAPE  H14R19243   5.884   2.658   7.789 -0.7875 -0.0195  0.4433
  170SAPE  C21519244   5.937   2.541   7.953 -0.2297  0.1107  0.0789
  170SAPE  H15R19245   5.841   2.552   8.005 -0.6972 -4.0213  0.4130
  170SAPE  C21619246   6.038   2.459   8.024 -0.0053 -0.5076  0.1499
  170SAPE  H16R19247   6.117   2.408   7.965  0.0500 -1.0946  0.7131
  170SAPE  H16S19248   5.979   2.373   8.064  0.8392 -1.3196 -0.3060
  170SAPE  C21719249   6.099   2.542   8.137  0.8698  0.0680 -0.3020
  170SAPE  H17R19250   6.023   2.602   8.191  0.4996  1.4070 -2.2079
  170SAPE  H17S19251   6.164   2.622   8.094  1.3884 -0.5789 -0.7378
  170SAPE  C21819252   6.175   2.464   8.248 -0.1151  0.8609  0.3582
  170SAPE  H18R19253   6.269   2.437   8.195 -0.0606  1.4555  0.1481
  170SAPE  H18S19254   6.117   2.372   8.270  0.4058  0.3875 -0.2051
  170SAPE  C21919255   6.197   2.551   8.373  0.0171  0.2827  0.6401
  170SAPE  H19R19256   6.099   2.586   8.412 -1.1112 -2.3545  0.3947
  170SAPE  H19S19257   6.261   2.641   8.360  0.4994 -0.1295  0.1213
  170SAPE  C22019258   6.267   2.466   8.478  0.0292  0.4217  0.3635
  170SAPE  H20R19259   6.212   2.370   8.488  1.6275 -0.9736 -2.8637
  170SAPE  H20S19260   6.264   2.525   8.573  0.8141  1.0352  0.0155
  170SAPE  H20T19261   6.363   2.423   8.443 -0.1816  0.3327 -0.1060
  170SAPE   C3319262   5.566   2.646   6.868 -0.8054 -0.2394  0.2153
  170SAPE   H3X19263   5.638   2.572   6.912 -3.2624 -1.9527  1.6160
  170SAPE   H3Y19264   5.473   2.588   6.850  0.3691 -2.9972  2.2713
  170SAPE   C3419265   5.527   2.754   6.961  0.0019  0.5292  0.6244
  170SAPE   H4X19266   5.430   2.797   6.926  0.2225  1.7206  1.4043
  170SAPE   H4Y19267   5.606   2.830   6.983  0.2190  0.1957  0.9946
  170SAPE   C3519268   5.506   2.674   7.094  0.0962 -0.4157 -0.4260
  170SAPE   H5X19269   5.603   2.627   7.123  0.3593 -0.0891 -0.7744
  170SAPE   H5Y19270   5.424   2.599   7.087 -0.0383 -0.2040 -1.2961
  170SAPE   C3619271   5.475   2.769   7.211 -0.0368 -0.2436 -0.1517
  170SAPE   H6X19272   5.371   2.803   7.193 -0.8258 -2.0791  0.6888
  170SAPE   H6Y19273   5.547   2.854   7.212  0.0458 -0.3199  0.7477
  170SAPE   C3719274   5.474   2.702   7.347  0.7042 -0.2371  0.6110
  170SAPE   H7X19275   5.556   2.627   7.348  1.1141  0.1577 -1.0469
  170SAPE   H7Y19276   5.377   2.648   7.357  0.7646 -0.3714  0.4771
  170SAPE   C3819277   5.492   2.805   7.462 -0.4137 -0.6168 -0.4407
  170SAPE   H8X19278   5.425   2.891   7.442  1.8091  1.7639  1.6684
  170SAPE   H8Y19279   5.592   2.852   7.459 -0.1802 -0.8382  2.1388
  170SAPE   C3919280   5.485   2.738   7.598  0.0896  0.0884 -0.2823
  170SAPE   H9X19281   5.572   2.669   7.596 -0.8538 -1.4269  3.3830
  170SAPE   H9Y19282   5.398   2.671   7.604  0.0229 -0.0065 -1.8025
  170SAPE  C31019283   5.511   2.821   7.720  0.0072 -0.5654 -0.8017
  170SAPE  H10X19284   5.456   2.917   7.717  1.2067  0.1406 -0.8288
  170SAPE  H10Y19285   5.618   2.852   7.716 -0.4322  0.9436 -1.5761
  170SAPE  C31119286   5.487   2.757   7.857 -0.1748 -0.2606 -0.1367
  170SAPE  H11X19287   5.544   2.662   7.864  0.0650 -0.1235 -0.2275
  170SAPE  H11Y19288   5.377   2.744   7.872 -0.1455  0.8757  1.2696
  170SAPE  C31219289   5.535   2.842   7.973 -0.4694 -0.1476 -0.7305
  170SAPE  H12X19290   5.478   2.937   7.966  1.6134  1.3138  0.8105
  170SAPE  H12Y19291   5.644   2.862   7.960 -0.8599  1.1870 -2.2514
  170SAPE  C31319292   5.516   2.778   8.114 -0.4093  0.3867  0.7932
  170SAPE  H13X19293   5.416   2.731   8.109  0.5340 -1.6119 -1.9193
  170SAPE  H13Y19294   5.511   2.861   8.188  0.2087  1.2876 -0.1438
  170SAPE  C31419295   5.626   2.674   8.145  0.7179  0.5887 -0.3965
  170SAPE  H14X19296   5.725   2.711   8.111  2.5353 -2.4896  1.1362
  170SAPE  H14Y19297   5.614   2.584   8.080  1.2641 -0.1534  0.5080
  170SAPE  C31519298   5.639   2.645   8.293 -0.2454  0.5552  0.0654
  170SAPE  H15X19299   5.541   2.612   8.335  0.9659 -0.2729  2.3751
  170SAPE  H15Y19300   5.660   2.739   8.347  0.3058  0.7175 -0.4240
  170SAPE  C31619301   5.754   2.549   8.330  0.0237 -0.4257  0.2987
  170SAPE  H16X19302   5.846   2.580   8.277 -0.7188 -2.1325 -2.1706
  170SAPE  H16Y19303   5.741   2.444   8.294  0.1088 -0.0878 -0.7401
  170SAPE  C31719304   5.779   2.533   8.480 -0.8179  0.3075 -0.3699
  170SAPE  H17X19305   5.854   2.454   8.500  0.5733  1.4130 -1.0802
  170SAPE  H17Y19306   5.689   2.500   8.536  1.5776  0.3013  3.9187
  170SAPE  C31819307   5.839   2.656   8.549  0.0064 -0.1577 -0.2595
  170SAPE  H18X19308   5.756   2.731   8.555 -2.0260 -2.3517  0.6336
  170SAPE  H18Y19309   5.926   2.701   8.497  0.5659  1.2358  1.7638
  170SAPE  H18Z19310   5.880   2.626   8.647 -1.4778 -2.9288 -0.4076
  171SAPE     N19311   6.026   3.964   6.495  0.2112 -0.2254 -0.3136
  171SAPE   HN119312   6.120   3.981   6.455  0.6221 -4.9813 -2.0065
  171SAPE   HN219313   5.998   3.866   6.476 -1.6940  0.4852 -1.3947
  171SAPE   HN319314   5.949   4.018   6.449  0.1008  1.2785  1.4972
  171SAPE   C1219315   6.027   3.986   6.645  0.5766 -0.0497  0.6690
  171SAPE  H12A19316   6.070   3.899   6.699  0.7669  0.1676  0.8679
  171SAPE  H12B19317   5.922   3.998   6.680 -1.0424  0.4011 -3.6703
  171SAPE   C1119318   6.124   4.102   6.679 -0.0262  0.1603  0.5819
  171SAPE  H11A19319   6.122   4.104   6.790 -0.4139  1.3422  0.5617
  171SAPE  H11B19320   6.089   4.200   6.640 -1.0031 -0.9108 -1.4042
  171SAPE     P19321   6.326   4.156   6.516 -0.4899  0.1866 -0.0707
  171SAPE   O1319322   6.263   4.113   6.387 -0.5566 -0.0684  0.4757
  171SAPE   O1419323   6.328   4.302   6.543  0.2568  0.2297 -0.1120
  171SAPE   O1219324   6.260   4.078   6.633 -0.0055 -0.4365 -0.3904
  171SAPE   O1119325   6.477   4.102   6.507  0.0588 -0.2218 -0.3023
  171SAPE    C119326   6.506   3.969   6.551 -0.3825  0.3183 -0.3424
  171SAPE    HA19327   6.416   3.913   6.586  0.9218 -1.8011 -0.1769
  171SAPE    HB19328   6.540   3.911   6.462 -1.0228 -0.6314  0.0142
  171SAPE    C219329   6.617   3.953   6.663 -0.5945  0.4695  0.2415
  171SAPE    HS19330   6.637   3.844   6.668 -3.9514 -0.2582  0.6372
  171SAPE   O2119331   6.582   3.998   6.794 -0.6195  0.1513  0.0285
  171SAPE   C2119332   6.487   3.936   6.858  0.2208 -0.0146  0.3419
  171SAPE   O2219333   6.432   3.836   6.814  0.4906  0.0096  0.0289
  171SAPE   C2219334   6.443   4.012   6.981  0.0627  0.5511 -0.8272
  171SAPE   H2R19335   6.533   4.042   7.037 -0.3705 -1.8134  1.2974
  171SAPE   H2S19336   6.382   4.099   6.947 -4.0822 -0.3884  3.1947
  171SAPE    C319337   6.738   4.037   6.609  0.4383  0.4754  0.2754
  171SAPE    HX19338   6.703   4.140   6.631  0.5014  0.9925 -1.8546
  171SAPE    HY19339   6.755   4.023   6.500 -0.2265 -0.1800  0.2419
  171SAPE   O3119340   6.858   3.995   6.676  0.0166 -0.3173  0.4328
  171SAPE   C3119341   6.969   4.082   6.651  1.0504  0.2742  0.3395
  171SAPE   O3219342   6.975   4.170   6.566  0.3984 -0.4245  0.0035
  171SAPE   C3219343   7.072   4.034   6.755 -1.1561  0.2407  0.0812
  171SAPE   H2X19344   7.174   4.061   6.720  0.4632 -3.5262  1.4099
  171SAPE   H2Y19345   7.070   3.931   6.795 -2.7615 -0.2490 -1.1555
  171SAPE   C2319346   6.348   3.934   7.080 -0.2237  0.0443  0.1215
  171SAPE   H3R19347   6.273   3.868   7.031 -0.8155  0.4907  0.4181
  171SAPE   H3S19348   6.291   4.013   7.132  1.7283  2.5621 -1.3070
  171SAPE   C2419349   6.410   3.853   7.190 -1.0659  0.5116  0.2391
  171SAPE   H4R19350   6.461   3.915   7.267  1.4102 -1.1083  0.0162
  171SAPE   H4S19351   6.488   3.786   7.148 -1.0544 -0.4462  1.7294
  171SAPE   C2519352   6.322   3.754   7.265 -0.3741  0.2237  1.0348
  171SAPE   H5R19353   6.244   3.712   7.199  0.8889 -1.1946  0.3980
  171SAPE   C2619354   6.331   3.715   7.394 -0.6787 -0.2726 -0.3804
  171SAPE   H6R19355   6.248   3.660   7.440  0.0355 -1.5270 -0.5404
  171SAPE   C2719356   6.432   3.765   7.495  0.4209 -0.6704  0.2136
  171SAPE   H7R19357   6.518   3.806   7.438  1.1196  1.4887  2.6040
  171SAPE   H7S19358   6.480   3.673   7.535  1.5364 -0.1617  0.0736
  171SAPE   C2819359   6.384   3.869   7.598  0.3237  0.3968 -0.2602
  171SAPE   H8R19360   6.344   3.954   7.540  2.8648  0.2896 -2.3932
  171SAPE   C2919361   6.390   3.873   7.734 -0.2405  0.0069 -0.3472
  171SAPE   H9R19362   6.352   3.960   7.791 -1.3441 -0.6235 -0.0848
  171SAPE  C21019363   6.455   3.765   7.812  0.4149 -0.3841 -0.4349
  171SAPE  H10R19364   6.543   3.819   7.852  1.6573 -2.4961 -0.1433
  171SAPE  H10S19365   6.488   3.683   7.744 -0.4841  1.0066 -2.6652
  171SAPE  C21119366   6.366   3.703   7.922  0.1026 -0.2414  0.3400
  171SAPE  H11R19367   6.324   3.606   7.890 -3.2076  1.3718 -0.6213
  171SAPE  C21219368   6.325   3.754   8.037 -0.0841  0.3564  0.2097
  171SAPE  H12R19369   6.249   3.693   8.089 -1.8682 -0.3773 -3.0179
  171SAPE  C21319370   6.361   3.887   8.093 -0.5338  1.3727 -0.3417
  171SAPE  H13R19371   6.285   3.917   8.168 -0.2179 -0.4335  0.7589
  171SAPE  H13S19372   6.353   3.966   8.015 -0.2282  1.1917 -0.5557
  171SAPE  C21419373   6.499   3.895   8.151 -0.1998  0.3103 -0.6862
  171SAPE  H14R19374   6.568   3.822   8.106 -2.1643 -3.3843  1.7576
  171SAPE  C21519375   6.538   3.982   8.243 -0.0368 -0.2733  0.3838
  171SAPE  H15R19376   6.646   3.973   8.263  0.0767 -0.4641 -0.2958
  171SAPE  C21619377   6.460   4.093   8.321  0.1294  0.3587 -0.2227
  171SAPE  H16R19378   6.375   4.125   8.257  0.5420 -2.6033 -2.4893
  171SAPE  H16S19379   6.513   4.189   8.337  3.0329 -0.8395 -1.8387
  171SAPE  C21719380   6.394   4.039   8.450 -0.0152  0.9207 -0.4707
  171SAPE  H17R19381   6.300   3.982   8.435  0.0675 -0.1196  2.3533
  171SAPE  H17S19382   6.363   4.128   8.510 -0.4886 -0.8872  2.1191
  171SAPE  C21819383   6.491   3.967   8.547  0.5785  0.6208  0.0829
  171SAPE  H18R19384   6.528   3.867   8.514 -2.2089 -1.8094  3.6230
  171SAPE  H18S19385   6.432   3.951   8.640  0.1556 -3.0676 -0.6442
  171SAPE  C21919386   6.614   4.065   8.583  0.2487 -0.1007  0.3839
  171SAPE  H19R19387   6.580   4.169   8.602  0.3827  0.2998 -1.4099
  171SAPE  H19S19388   6.687   4.064   8.499  0.4352  2.0701  0.4718
  171SAPE  C22019389   6.682   4.018   8.707 -0.6083  0.2440  0.1475
  171SAPE  H20R19390   6.636   4.052   8.802  1.3802  1.8076  0.6186
  171SAPE  H20S19391   6.780   4.067   8.726 -1.1177  1.1777  0.4094
  171SAPE  H20T19392   6.689   3.907   8.712 -2.2124  0.1679  1.8311
  171SAPE   C3319393   7.059   4.132   6.878  0.6604 -0.0623 -0.3024
  171SAPE   H3X19394   6.960   4.121   6.925  0.5440 -0.2704 -0.5949
  171SAPE   H3Y19395   7.067   4.238   6.846 -1.3323  0.2958  0.2690
  171SAPE   C3419396   7.140   4.104   7.003  0.1596  0.5028  0.0615
  171SAPE   H4X19397   7.248   4.117   6.981  0.2620  0.3831  0.4890
  171SAPE   H4Y19398   7.121   4.002   7.043 -1.7672  0.9659  0.3973
  171SAPE   C3519399   7.089   4.197   7.112 -0.4700  0.0367  0.1255
  171SAPE   H5X19400   6.983   4.195   7.146 -1.1459  0.0557 -1.8982
  171SAPE   H5Y19401   7.103   4.301   7.074  0.2749  0.3287  1.1583
  171SAPE   C3619402   7.173   4.182   7.244  0.6284 -0.1823 -0.3503
  171SAPE   H6X19403   7.280   4.202   7.222  0.3244  0.6909 -1.0785
  171SAPE   H6Y19404   7.166   4.076   7.276  1.4665 -0.5242 -1.2302
  171SAPE   C3719405   7.116   4.273   7.356  0.1150 -0.5279 -0.4974
  171SAPE   H7X19406   7.157   4.228   7.449 -3.2457 -0.8835  0.9731
  171SAPE   H7Y19407   7.010   4.239   7.366 -0.0001  0.1505  0.9266
  171SAPE   C3819408   7.143   4.421   7.347  0.5000  0.1547  0.4400
  171SAPE   H8X19409   7.115   4.449   7.244 -1.1395 -0.9873  0.5350
  171SAPE   H8Y19410   7.249   4.454   7.354  0.1253  1.5114  0.0945
  171SAPE   C3919411   7.070   4.510   7.448  0.8024  0.3211 -0.1720
  171SAPE   H9X19412   6.966   4.473   7.460  1.4683 -1.6120  0.0067
  171SAPE   H9Y19413   7.049   4.616   7.421 -2.6651 -0.6323 -1.7858
  171SAPE  C31019414   7.131   4.506   7.586 -0.5416  0.0957 -0.2046
  171SAPE  H10X19415   7.179   4.598   7.625  1.2487 -0.7808 -0.2397
  171SAPE  H10Y19416   7.221   4.441   7.582 -0.7993 -0.2216 -0.8445
  171SAPE  C31119417   7.046   4.432   7.692 -0.1400 -0.4067  1.1621
  171SAPE  H11X19418   7.018   4.334   7.648  2.2958 -0.5674 -0.2583
  171SAPE  H11Y19419   6.960   4.500   7.707 -1.7901 -1.7054 -1.6490
  171SAPE  C31219420   7.127   4.411   7.821 -0.0630  0.3240  0.1205
  171SAPE  H12X19421   7.142   4.510   7.869  0.8875  0.3032 -0.0953
  171SAPE  H12Y19422   7.222   4.360   7.794  0.0170  0.4870  0.0935
  171SAPE  C31319423   7.051   4.332   7.924 -0.1110 -0.3911 -0.0281
  171SAPE  H13X19424   7.119   4.283   7.997  0.7930 -0.8606 -1.1527
  171SAPE  H13Y19425   6.979   4.257   7.885 -1.2880  1.2099 -1.0755
  171SAPE  C31419426   6.962   4.424   8.014  0.8901 -0.4648 -0.6258
  171SAPE  H14X19427   6.899   4.493   7.953 -1.4406 -1.4555  0.5342
  171SAPE  H14Y19428   7.023   4.495   8.075 -1.1460  0.6497  0.2361
  171SAPE  C31519429   6.878   4.342   8.114  0.0614 -0.6586  0.7514
  171SAPE  H15X19430   6.808   4.285   8.049 -0.9513  0.1357  1.1309
  171SAPE  H15Y19431   6.824   4.419   8.172 -2.0519 -1.2103 -0.3808
  171SAPE  C31619432   6.957   4.257   8.207 -0.7921 -0.9579  0.0504
  171SAPE  H16X19433   7.039   4.322   8.243 -0.6414 -1.1267  0.0119
  171SAPE  H16Y19434   7.006   4.177   8.147 -1.4839 -1.6152  0.3490
  171SAPE  C31719435   6.879   4.208   8.335  0.2079 -0.0760 -0.7222
  171SAPE  H17X19436   6.791   4.146   8.310  0.4640 -1.9938  2.5807
  171SAPE  H17Y19437   6.836   4.293   8.392 -0.5713 -1.0921  0.2373
  171SAPE  C31819438   6.965   4.117   8.429  0.6494 -0.7473 -0.3077
  171SAPE  H18X19439   7.038   4.171   8.492  0.3301 -2.1291  1.2957
  171SAPE  H18Y19440   7.020   4.056   8.354  1.5231 -0.8928  0.4329
  171SAPE  H18Z19441   6.910   4.046   8.494  0.6360 -0.3580  0.1074
  172SAPE     N19442   1.307   2.440   5.986  0.3047  0.4677  0.1881
  172SAPE   HN119443   1.315   2.337   5.971 -1.1453 -0.0365  2.4543
  172SAPE   HN219444   1.380   2.474   5.921 -0.2596 -1.1636 -1.3922
  172SAPE   HN319445   1.328   2.455   6.086 -0.4812 -2.4811  0.8954
  172SAPE   C1219446   1.169   2.484   5.955  0.4006 -0.1306  0.4862
  172SAPE  H12A19447   1.151   2.446   5.852  1.0613 -1.6400  0.9072
  172SAPE  H12B19448   1.163   2.594   5.949 -0.0090 -0.2393 -2.9065
  172SAPE   C1119449   1.080   2.432   6.064  0.3118  0.6445  0.2248
  172SAPE  H11A19450   0.978   2.472   6.047 -0.1833 -0.1353  1.2440
  172SAPE  H11B19451   1.104   2.460   6.169 -0.2098  1.2914  0.1767
  172SAPE     P19452   0.975   2.190   6.124  0.5413  0.3778 -0.1212
  172SAPE   O1319453   0.845   2.247   6.160  0.2113 -0.2981  1.0135
  172SAPE   O1419454   0.957   2.071   6.044  0.0347 -0.4107 -1.0384
  172SAPE   O1219455   1.072   2.286   6.043  0.1223 -0.6970 -0.1482
  172SAPE   O1119456   1.066   2.166   6.253 -0.9316  0.1357 -0.4508
  172SAPE    C119457   1.055   2.243   6.377  0.1329  0.1329 -0.0512
  172SAPE    HA19458   1.140   2.226   6.447 -1.6171 -0.0563  2.1747
  172SAPE    HB19459   1.038   2.352   6.363  1.6195  0.4113  0.1552
  172SAPE    C219460   0.934   2.191   6.466  0.1482  0.2759  0.9117
  172SAPE    HS19461   0.843   2.234   6.419  1.3319  0.7321 -1.0736
  172SAPE   O2119462   0.958   2.229   6.606 -0.4463 -0.6614  0.4957
  172SAPE   C2119463   0.858   2.259   6.672 -0.1711 -0.2724  0.2310
  172SAPE   O2219464   0.743   2.268   6.619 -0.0447 -0.0728 -0.4359
  172SAPE   C2219465   0.887   2.287   6.816 -0.1421  0.8856  0.3153
  172SAPE   H2R19466   0.970   2.221   6.849 -0.7375 -0.2637 -0.4283
  172SAPE   H2S19467   0.915   2.394   6.826 -0.0562  0.7718  1.3395
  172SAPE    C319468   0.931   2.040   6.464  0.3507  0.9526 -0.7401
  172SAPE    HX19469   1.016   1.997   6.521 -0.9565 -2.4694 -1.1262
  172SAPE    HY19470   0.940   1.998   6.362 -0.3865  0.3659 -0.5748
  172SAPE   O3119471   0.824   1.973   6.537 -0.1269  0.1561 -0.5129
  172SAPE   C3119472   0.701   1.990   6.485 -0.5493  0.3282  0.2722
  172SAPE   O3219473   0.680   2.047   6.381  0.6673 -0.5410  0.0570
  172SAPE   C3219474   0.586   1.915   6.569  0.7751  0.3608  0.6672
  172SAPE   H2X19475   0.604   1.805   6.565  0.3158  0.3176 -1.3273
  172SAPE   H2Y19476   0.496   1.924   6.505 -0.7621  3.5684  3.0631
  172SAPE   C2319477   0.764   2.255   6.910 -0.0824  0.1966  0.5511
  172SAPE   H3R19478   0.741   2.146   6.907  1.8115 -0.2306 -1.6349
  172SAPE   H3S19479   0.675   2.310   6.874 -1.9854 -2.0635  1.5719
  172SAPE   C2419480   0.780   2.317   7.050 -0.8000  0.8378  0.4977
  172SAPE   H4R19481   0.841   2.407   7.026  1.3083 -0.0148  2.3267
  172SAPE   H4S19482   0.847   2.246   7.103 -0.3940 -0.0737 -1.1676
  172SAPE   C2519483   0.657   2.349   7.136 -0.8815  0.3006  0.0580
  172SAPE   H5R19484   0.578   2.410   7.091 -1.0844  0.0759  0.1083
  172SAPE   C2619485   0.642   2.296   7.263 -0.1638 -0.2016  0.4457
  172SAPE   H6R19486   0.556   2.321   7.327 -0.6498  1.7321 -0.8853
  172SAPE   C2719487   0.742   2.202   7.328 -0.6190 -0.2518  0.4423
  172SAPE   H7R19488   0.841   2.249   7.348 -0.1176 -2.0356  2.5354
  172SAPE   H7S19489   0.765   2.124   7.253 -3.5935 -0.0168 -0.8648
  172SAPE   C2819490   0.688   2.123   7.451  0.0968  0.3716 -0.0130
  172SAPE   H8R19491   0.624   2.042   7.414  1.4326 -2.3332  3.1324
  172SAPE   C2919492   0.730   2.128   7.583 -0.2598  0.3035  0.1657
  172SAPE   H9R19493   0.694   2.057   7.659  0.9131  0.2003  0.6545
  172SAPE  C21019494   0.846   2.207   7.638  0.4774 -0.4379 -0.1196
  172SAPE  H10R19495   0.935   2.196   7.573 -0.3199 -1.9593 -1.0330
  172SAPE  H10S19496   0.873   2.172   7.740 -2.6463  0.1419  1.0373
  172SAPE  C21119497   0.815   2.356   7.633 -0.3479 -0.1269  0.4515
  172SAPE  H11R19498   0.790   2.398   7.534  1.9900 -0.8689 -0.5211
  172SAPE  C21219499   0.828   2.440   7.735  0.1787 -0.3952 -0.2288
  172SAPE  H12R19500   0.809   2.548   7.729 -0.2022 -0.2191  2.5859
  172SAPE  C21319501   0.855   2.401   7.880 -0.1716 -0.1056 -0.5366
  172SAPE  H13R19502   0.800   2.306   7.898 -0.3157 -0.6491 -3.3364
  172SAPE  H13S19503   0.807   2.478   7.944 -0.5742  0.7327 -1.7858
  172SAPE  C21419504   1.006   2.386   7.909  0.6247 -0.3564 -0.2905
  172SAPE  H14R19505   1.045   2.283   7.903  0.9497 -0.4458  2.2073
  172SAPE  C21519506   1.087   2.481   7.950 -0.8977 -0.1902 -0.0581
  172SAPE  H15R19507   1.194   2.457   7.965 -0.5304  1.4792  0.2465
  172SAPE  C21619508   1.047   2.622   7.977 -0.1930 -0.5148 -0.0395
  172SAPE  H16R19509   1.057   2.641   8.086 -0.5335 -0.6077  0.0116
  172SAPE  H16S19510   0.953   2.659   7.930 -0.4857 -0.8998  0.2405
  172SAPE  C21719511   1.155   2.698   7.900 -0.1067  0.3105 -0.1282
  172SAPE  H17R19512   1.247   2.671   7.957 -1.7885  0.6103  2.9476
  172SAPE  H17S19513   1.142   2.807   7.917  2.9892  0.8607 -0.6324
  172SAPE  C21819514   1.165   2.677   7.747  0.5915 -0.1070  0.0236
  172SAPE  H18R19515   1.073   2.706   7.692  1.2685  3.3373  0.4725
  172SAPE  H18S19516   1.185   2.572   7.716  1.3032 -0.3160  1.1449
  172SAPE  C21919517   1.274   2.770   7.691 -0.7454 -0.1883  0.2226
  172SAPE  H19R19518   1.372   2.740   7.734 -0.8006  0.8321  1.1102
  172SAPE  H19S19519   1.261   2.872   7.733 -0.0094 -0.4560  1.1519
  172SAPE  C22019520   1.285   2.785   7.539  0.2982  0.0739  0.5303
  172SAPE  H20R19521   1.187   2.813   7.494 -0.2992  1.2175  2.4389
  172SAPE  H20S19522   1.309   2.681   7.509  0.7581 -0.0867  1.4295
  172SAPE  H20T19523   1.372   2.846   7.507 -0.4576  1.7620  1.5803
  172SAPE   C3319524   0.560   1.964   6.714  0.5500 -0.3536 -0.3051
  172SAPE   H3X19525   0.647   2.001   6.772  0.4048 -4.0421  2.6919
  172SAPE   H3Y19526   0.535   1.879   6.782  0.7436  0.1367  0.3838
  172SAPE   C3419527   0.451   2.079   6.715  0.0405 -0.5864 -0.5856
  172SAPE   H4X19528   0.359   2.044   6.665 -1.0517 -0.9039  1.5471
  172SAPE   H4Y19529   0.484   2.169   6.658  0.2716 -0.0989  0.2997
  172SAPE   C3519530   0.419   2.130   6.856  0.4172 -0.2095 -0.2036
  172SAPE   H5X19531   0.434   2.240   6.860  2.4378 -0.3905 -1.4999
  172SAPE   H5Y19532   0.489   2.080   6.927 -0.0344 -0.0747  0.3454
  172SAPE   C3619533   0.270   2.107   6.899 -0.3530  0.1237  0.2371
  172SAPE   H6X19534   0.253   1.997   6.896 -0.3586  0.1329 -0.1134
  172SAPE   H6Y19535   0.199   2.152   6.826  0.4680 -0.2416 -0.8150
  172SAPE   C3719536   0.226   2.143   7.040 -0.2415 -0.3887  0.1777
  172SAPE   H7X19537   0.115   2.144   7.049 -0.1500 -0.4464  1.6262
  172SAPE   H7Y19538   0.254   2.249   7.064 -1.5313  0.0382 -0.1306
  172SAPE   C3819539   0.280   2.042   7.146 -0.2728 -0.2066  0.2651
  172SAPE   H8X19540   0.390   2.032   7.132 -0.3573  1.6251 -2.6236
  172SAPE   H8Y19541   0.221   1.949   7.139 -2.0391  0.9616 -1.1609
  172SAPE   C3919542   0.275   2.100   7.291 -0.1025  0.6345  0.1996
  172SAPE   H9X19543   0.198   2.179   7.300 -1.6970 -0.8580  0.3989
  172SAPE   H9Y19544   0.374   2.140   7.320  1.0719 -1.5446 -0.5566
  172SAPE  C31019545   0.236   1.988   7.392  0.6345 -0.0661  0.2458
  172SAPE  H10X19546   0.303   1.901   7.375  0.2229 -0.8747  2.4492
  172SAPE  H10Y19547   0.137   1.944   7.370  1.4442 -0.3235 -3.4606
  172SAPE  C31119548   0.219   2.037   7.539 -0.4401  0.5200 -0.1618
  172SAPE  H11X19549   0.175   1.951   7.593 -0.6475 -1.4828 -3.2330
  172SAPE  H11Y19550   0.146   2.120   7.532 -0.9082  0.1250  0.0536
  172SAPE  C31219551   0.351   2.078   7.620  0.0927 -0.5602 -0.2257
  172SAPE  H12X19552   0.381   2.170   7.565 -1.9320  0.8516  0.8607
  172SAPE  H12Y19553   0.435   2.007   7.613  0.9290  0.1827  1.6416
  172SAPE  C31319554   0.323   2.103   7.767 -1.2261 -0.5587 -0.5767
  172SAPE  H13X19555   0.272   2.017   7.815 -0.1721 -1.1956 -0.5485
  172SAPE  H13Y19556   0.243   2.179   7.774  0.0222  0.6796  1.8169
  172SAPE  C31419557   0.450   2.131   7.848  0.1850  0.3809  0.2465
  172SAPE  H14X19558   0.489   2.231   7.822 -0.2526  0.6231  0.5075
  172SAPE  H14Y19559   0.531   2.058   7.827 -1.3188 -1.4534  0.4746
  172SAPE  C31519560   0.435   2.147   7.996 -0.1041  0.3915 -0.2099
  172SAPE  H15X19561   0.358   2.224   8.017  1.0294  1.1534  1.4110
  172SAPE  H15Y19562   0.537   2.159   8.040  0.8069  1.4771 -2.4329
  172SAPE  C31619563   0.390   2.013   8.061  0.2069  0.2618  0.6942
  172SAPE  H16X19564   0.447   1.926   8.020  1.6637  1.9093 -0.9172
  172SAPE  H16Y19565   0.286   1.985   8.031 -0.5288  0.3669  2.9835
  172SAPE  C31719566   0.381   2.003   8.214 -0.2423 -0.0446 -0.8660
  172SAPE  H17X19567   0.483   2.032   8.249  0.3144 -0.8841 -1.7263
  172SAPE  H17Y19568   0.362   1.898   8.245 -1.1461  0.3501 -0.0235
  172SAPE  C31819569   0.270   2.091   8.277 -0.3444  0.0692 -0.1366
  172SAPE  H18X19570   0.246   2.062   8.382 -1.6110 -1.1151 -0.7248
  172SAPE  H18Y19571   0.175   2.088   8.220 -0.9917 -0.0393  0.9059
  172SAPE  H18Z19572   0.310   2.195   8.277  0.9884 -0.4339 -0.0176
  173SOPE     N19573   0.369   6.039  11.414  0.0162  0.0852 -0.3257
  173SOPE   HN119574   0.340   5.940  11.431 -0.9159  0.6194  1.5050
  173SOPE   HN219575   0.470   6.043  11.394  0.5169 -0.9479  1.6947
  173SOPE   HN319576   0.358   6.096  11.500 -2.4530  0.5619 -0.8806
  173SOPE   C1219577   0.280   6.091  11.308 -0.1346  0.2561  0.3402
  173SOPE  H12A19578   0.319   6.193  11.289  2.4944 -0.6622  0.4281
  173SOPE  H12B19579   0.180   6.111  11.353 -0.4467 -0.6230  0.0798
  173SOPE   C1119580   0.280   6.012  11.176 -0.9748  0.5134 -0.0012
  173SOPE  H11A19581   0.207   6.048  11.100  0.4461  0.5801 -1.3687
  173SOPE  H11B19582   0.240   5.909  11.191  1.3260 -1.0078 -3.2187
  173SOPE     P19583   0.497   6.077  11.044  0.3816 -0.1189 -0.3661
  173SOPE   O1319584   0.595   5.993  10.981  0.5786 -0.1199  0.1356
  173SOPE   O1419585   0.545   6.191  11.121  0.3140 -0.2725  0.2394
  173SOPE   O1219586   0.412   5.985  11.136  0.2207  0.0903  1.0025
  173SOPE   O1119587   0.402   6.129  10.930 -0.3798  0.5416  0.4814
  173SOPE    C119588   0.395   6.050  10.807 -0.3587  0.8559 -0.2036
  173SOPE    HA19589   0.297   6.081  10.765 -2.1496 -1.5040  1.8968
  173SOPE    HB19590   0.411   5.941  10.818 -0.0934  0.7574 -1.4175
  173SOPE    C219591   0.501   6.098  10.700 -0.7092  0.3958  0.8164
  173SOPE    HS19592   0.598   6.105  10.754 -0.4128  2.1896  0.1137
  173SOPE   O2119593   0.474   6.233  10.653 -0.3644  0.1786  0.2997
  173SOPE   C2119594   0.573   6.287  10.584  0.5218 -0.4682  0.0896
  173SOPE   O2219595   0.687   6.248  10.581  0.0423  0.1180  0.8227
  173SOPE   C2219596   0.527   6.394  10.482  0.3577  0.4632  0.5338
  173SOPE   H2R19597   0.478   6.475  10.539  0.8190  0.9789  0.2152
  173SOPE   H2S19598   0.454   6.342  10.417  3.4997 -2.0843 -1.2592
  173SOPE    C319599   0.526   6.003  10.585 -0.1351  0.4199  0.9035
  173SOPE    HX19600   0.514   5.899  10.622 -2.3660 -0.6282 -2.3205
  173SOPE    HY19601   0.633   6.000  10.555 -0.0987  0.3912  1.0334
  173SOPE   O3119602   0.440   6.040  10.473 -0.1200 -0.2759 -0.0995
  173SOPE   C3119603   0.333   5.966  10.451 -0.1744 -0.1707  0.1445
  173SOPE   O3219604   0.315   5.856  10.500 -0.2745 -0.5414  0.2418
  173SOPE   C3219605   0.239   6.044  10.357 -0.6920  0.3283 -0.2348
  173SOPE   H2X19606   0.304   6.090  10.279  2.0511  0.0082  1.6942
  173SOPE   H2Y19607   0.187   6.122  10.417  0.3294 -0.7574  2.2170
  173SOPE   C2319608   0.635   6.446  10.389 -0.0991  0.0632 -0.3641
  173SOPE   H3R19609   0.674   6.354  10.340  1.0883  0.5064 -0.2757
  173SOPE   H3S19610   0.717   6.502  10.438  0.0387  1.4647 -2.0876
  173SOPE   C2419611   0.574   6.530  10.272  0.0192  0.1542 -0.1531
  173SOPE   H4R19612   0.483   6.483  10.229 -0.2735 -0.8307  1.4504
  173SOPE   H4S19613   0.540   6.628  10.311 -0.0478 -0.3008  0.9810
  173SOPE   C2519614   0.672   6.548  10.157 -0.1728 -0.4689 -0.4546
  173SOPE   H5R19615   0.764   6.608  10.173  0.6217 -2.2957  2.4860
  173SOPE   H5S19616   0.716   6.449  10.132  1.5935 -0.3906  1.9921
  173SOPE   C2619617   0.604   6.600  10.023 -0.1430  0.5213 -0.8441
  173SOPE   H6R19618   0.538   6.519   9.987 -1.3009  0.3639  1.4541
  173SOPE   H6S19619   0.551   6.695  10.045  0.7430  0.8613 -0.0646
  173SOPE   C2719620   0.710   6.637   9.915  0.4074 -0.6111 -0.4547
  173SOPE   H7R19621   0.779   6.717   9.950  0.5382  0.7092 -3.4203
  173SOPE   H7S19622   0.773   6.550   9.888 -0.0916 -1.2521  0.3872
  173SOPE   C2819623   0.643   6.695   9.789 -0.3186 -0.1621 -0.3859
  173SOPE   H8R19624   0.608   6.618   9.716  3.0004 -0.6918 -1.5894
  173SOPE   H8S19625   0.559   6.762   9.816  2.1893  2.6991  0.8606
  173SOPE   C2919626   0.745   6.778   9.719 -0.4368  0.3428  0.1941
  173SOPE   H9119627   0.731   6.887   9.722  1.1344  0.5697  0.1508
  173SOPE  C21019628   0.829   6.730   9.626 -0.0543 -0.1675  0.2030
  173SOPE  H10119629   0.895   6.803   9.576  1.1701 -1.5985 -0.3441
  173SOPE  C21119630   0.834   6.588   9.571 -0.5906 -0.2055 -0.4784
  173SOPE  H11R19631   0.729   6.558   9.553 -0.6384 -0.0633 -0.4362
  173SOPE  H11S19632   0.880   6.518   9.645 -3.6396 -2.3488 -0.4200
  173SOPE  C21219633   0.920   6.585   9.447 -0.1482  0.0806  0.1701
  173SOPE  H12R19634   0.935   6.476   9.438  0.6448  0.2337 -0.4417
  173SOPE  H12S19635   1.023   6.627   9.456  0.0614  1.1573 -4.5128
  173SOPE  C21319636   0.854   6.655   9.328 -0.6869 -0.4896  0.5597
  173SOPE  H13R19637   0.843   6.765   9.343 -0.4997 -0.3572 -0.2501
  173SOPE  H13S19638   0.748   6.627   9.310 -0.5844 -0.7771  0.3905
  173SOPE  C21419639   0.936   6.640   9.200 -0.0513  0.5498 -0.0652
  173SOPE  H14R19640   1.035   6.689   9.206 -0.6056  1.5695  1.0536
  173SOPE  H14S19641   0.874   6.686   9.121  0.2096  0.2481 -0.4490
  173SOPE  C21519642   0.934   6.494   9.147 -0.1900  0.7930 -0.2319
  173SOPE  H15R19643   0.831   6.455   9.150 -0.2026  0.5808 -2.3376
  173SOPE  H15S19644   0.989   6.426   9.216 -0.0642  0.7497 -0.3737
  173SOPE  C21619645   1.011   6.478   9.012 -0.0266  0.4836  0.1693
  173SOPE  H16R19646   1.120   6.492   9.029  0.4516 -0.7884 -1.5304
  173SOPE  H16S19647   0.982   6.552   8.934 -1.5609 -1.5739 -1.2976
  173SOPE  C21719648   1.005   6.338   8.950  0.4364  0.2274 -0.0444
  173SOPE  H17R19649   1.028   6.263   9.028  0.3668 -0.3283 -0.5546
  173SOPE  H17S19650   1.064   6.327   8.857  0.6443  1.5779 -0.1032
  173SOPE  C21819651   0.860   6.326   8.904  0.5131  0.0674  0.5860
  173SOPE  H18R19652   0.836   6.400   8.825 -0.2100  0.7945  1.4608
  173SOPE  H18S19653   0.777   6.330   8.978 -1.3276 -0.9817 -1.3164
  173SOPE  H18T19654   0.851   6.234   8.843  2.9765  1.4832 -2.1274
  173SOPE   C3319655   0.141   5.947  10.298  0.0022  0.5562 -0.1428
  173SOPE   H3X19656   0.073   5.916  10.380 -1.4230 -0.7192 -1.7483
  173SOPE   H3Y19657   0.187   5.857  10.251  0.9881  1.5501 -1.1575
  173SOPE   C3419658   0.059   6.022  10.188 -0.0900  0.6130 -0.5453
  173SOPE   H4X19659  -0.018   6.080  10.244 -0.6510  0.3029 -0.9828
  173SOPE   H4Y19660   0.001   5.940  10.139 -0.9883  0.7552  0.2357
  173SOPE   C3519661   0.150   6.096  10.088  0.0554  0.1897 -0.1090
  173SOPE   H5X19662   0.221   6.018  10.053 -2.7472 -2.1017 -1.1270
  173SOPE   H5Y19663   0.197   6.187  10.129  1.6709  0.6367 -2.7134
  173SOPE   C3619664   0.086   6.136   9.955  0.8150  0.3378  0.4132
  173SOPE   H6X19665  -0.012   6.179   9.985  0.6313 -1.3210  2.4390
  173SOPE   H6Y19666   0.059   6.042   9.902  4.9365 -1.3639  0.8999
  173SOPE   C3719667   0.159   6.234   9.866 -0.1109 -0.4455 -0.8498
  173SOPE   H7X19668   0.257   6.183   9.852 -0.0256 -1.1580  1.8427
  173SOPE   H7Y19669   0.177   6.327   9.923 -0.0312 -1.2673  0.5151
  173SOPE   C3819670   0.107   6.248   9.726 -0.1456 -0.2920 -0.9851
  173SOPE   H8X19671   0.003   6.286   9.737 -0.2532 -0.1723 -2.2532
  173SOPE   H8Y19672   0.098   6.159   9.659  0.3792 -0.2354 -1.1377
  173SOPE   C3919673   0.183   6.360   9.653 -0.0191 -0.0104 -0.5008
  173SOPE   H9X19674   0.293   6.353   9.655 -0.0251 -0.3713 -1.0625
  173SOPE   H9Y19675   0.154   6.446   9.716 -2.7513  0.6965 -2.5159
  173SOPE  C31019676   0.129   6.391   9.511  0.0237 -0.0803 -0.2328
  173SOPE  H10X19677   0.023   6.419   9.527  0.6717  1.7867  1.1574
  173SOPE  H10Y19678   0.130   6.306   9.439  0.2627  1.4237 -2.0769
  173SOPE  C31119679   0.192   6.522   9.465 -0.4898 -0.5159 -0.7371
  173SOPE  H11X19680   0.301   6.530   9.486 -1.0099  1.0606  1.8120
  173SOPE  H11Y19681   0.141   6.602   9.523 -1.2336 -0.3115 -1.6536
  173SOPE  C31219682   0.174   6.555   9.314  0.2053  0.3325  0.1318
  173SOPE  H12X19683   0.071   6.556   9.272  1.0658  0.2891 -2.1364
  173SOPE  H12Y19684   0.208   6.468   9.254  0.8611  1.0703 -0.6132
  173SOPE  C31319685   0.253   6.680   9.275  0.3741  0.3453 -0.0295
  173SOPE  H13X19686   0.355   6.648   9.302 -0.3484 -2.5348 -0.4147
  173SOPE  H13Y19687   0.226   6.771   9.333  2.9718  0.3760  1.2663
  173SOPE  C31419688   0.270   6.715   9.123 -0.6460  0.9082 -0.2883
  173SOPE  H14X19689   0.291   6.824   9.114 -0.4503  0.7873 -1.3894
  173SOPE  H14Y19690   0.170   6.702   9.078  0.1788 -0.3477 -1.8550
  173SOPE  C31519691   0.371   6.615   9.060  0.1331 -0.1278 -0.1405
  173SOPE  H15X19692   0.336   6.510   9.072 -1.2422  0.2426 -0.6972
  173SOPE  H15Y19693   0.467   6.634   9.112  0.3822  1.2693 -1.0436
  173SOPE  C31619694   0.404   6.634   8.908  0.0681 -0.8988 -0.1231
  173SOPE  H16X19695   0.431   6.741   8.906 -1.4822 -0.4236  1.7584
  173SOPE  H16Y19696   0.315   6.617   8.843  1.2455 -1.0798 -1.7362
  173SOPE  C31719697   0.523   6.549   8.870  0.7771 -0.3206 -0.5198
  173SOPE  H17X19698   0.488   6.447   8.844 -2.3721  0.7657 -0.9696
  173SOPE  H17Y19699   0.587   6.558   8.961 -0.2553  0.2515  0.1777
  173SOPE  C31819700   0.598   6.607   8.747 -0.8809 -0.0246 -0.7724
  173SOPE  H18X19701   0.554   6.589   8.647  0.4494  4.0072 -2.2890
  173SOPE  H18Y19702   0.696   6.555   8.739 -1.9118 -2.6953  1.8794
  173SOPE  H18Z19703   0.611   6.717   8.752  0.5171 -0.2016  0.4644
  174SOPE     N19704   6.574   5.486  11.249 -0.1116  0.0391 -0.0144
  174SOPE   HN119705   6.584   5.475  11.351  1.2449  1.4954  0.0415
  174SOPE   HN219706   6.556   5.395  11.203 -1.5758  0.0856  0.4055
  174SOPE   HN319707   6.667   5.522  11.220  0.8898 -0.7575  2.0679
  174SOPE   C1219708   6.472   5.599  11.206 -0.7746  0.9861  0.0081
  174SOPE  H12A19709   6.510   5.688  11.261  0.7718  0.6460 -0.4710
  174SOPE  H12B19710   6.371   5.564  11.238  0.6529 -2.1695  1.4920
  174SOPE   C1119711   6.483   5.630  11.055  0.1487  0.1500 -0.0397
  174SOPE  H11A19712   6.587   5.642  11.018  0.5004  0.4873  1.0128
  174SOPE  H11B19713   6.430   5.726  11.037 -2.0343 -1.3320 -2.1174
  174SOPE     P19714   6.292   5.551  10.889  0.1082  0.4032  0.0308
  174SOPE   O1319715   6.184   5.603  10.979 -0.5922  0.1681  0.9125
  174SOPE   O1419716   6.270   5.426  10.811 -0.0506  0.1762  0.0575
  174SOPE   O1219717   6.416   5.528  10.986  0.0495 -0.0361 -0.0956
  174SOPE   O1119718   6.344   5.667  10.789 -0.3843 -0.0333  0.3264
  174SOPE    C119719   6.465   5.647  10.725 -0.1470  0.6388  0.1075
  174SOPE    HA19720   6.540   5.595  10.787  0.0576  0.7784 -0.0207
  174SOPE    HB19721   6.512   5.747  10.708  1.2036  0.1143  0.6381
  174SOPE    C219722   6.442   5.595  10.583 -0.3369 -0.1105  0.4530
  174SOPE    HS19723   6.392   5.496  10.571 -0.7990  0.3179 -1.3495
  174SOPE   O2119724   6.561   5.619  10.507  0.5542 -0.0094 -0.0060
  174SOPE   C2119725   6.609   5.515  10.448 -0.1337  1.0326  0.6869
  174SOPE   O2219726   6.569   5.398  10.453 -0.2636 -0.1718  0.1235
  174SOPE   C2219727   6.731   5.554  10.358 -0.7892 -0.8215  0.2728
  174SOPE   H2R19728   6.767   5.452  10.333  1.7156  0.2067 -0.5850
  174SOPE   H2S19729   6.800   5.601  10.431  0.7056  0.8393 -2.0591
  174SOPE    C319730   6.332   5.682  10.514  0.5342  0.0041  0.2232
  174SOPE    HX19731   6.374   5.782  10.539  2.3704 -0.7440  0.3574
  174SOPE    HY19732   6.240   5.661  10.571  0.8895  0.8932  1.1557
  174SOPE   O3119733   6.328   5.654  10.373  0.1659  0.3548 -0.3591
  174SOPE   C3119734   6.245   5.556  10.324  0.1655  0.0470  0.0901
  174SOPE   O3219735   6.146   5.502  10.373 -0.8110  0.1385  0.2439
  174SOPE   C3219736   6.278   5.530  10.180 -0.3593 -0.6480  0.5681
  174SOPE   H2X19737   6.360   5.456  10.177  0.4064  0.1995 -1.7336
  174SOPE   H2Y19738   6.325   5.626  10.151 -0.4433 -0.8514 -0.2478
  174SOPE   C2319739   6.699   5.643  10.239  0.8860 -0.0929 -0.4245
  174SOPE   H3R19740   6.670   5.740  10.285  0.5968 -0.2140 -0.3495
  174SOPE   H3S19741   6.611   5.605  10.183  0.1523  1.5743 -0.4639
  174SOPE   C2419742   6.816   5.658  10.147 -0.0393 -0.4115  0.3682
  174SOPE   H4R19743   6.827   5.759  10.101 -3.1623 -0.4728 -0.7971
  174SOPE   H4S19744   6.906   5.640  10.209 -0.0961  0.2756  0.6695
  174SOPE   C2519745   6.807   5.576  10.029 -0.1068  0.6780  0.8793
  174SOPE   H5R19746   6.816   5.471  10.066  1.6116  0.0761 -1.0801
  174SOPE   H5S19747   6.716   5.587   9.966  0.3847 -1.5859 -0.3634
  174SOPE   C2619748   6.926   5.584   9.931  0.6939  0.3829 -0.0551
  174SOPE   H6R19749   7.021   5.572   9.988  0.5021  1.1480  0.4432
  174SOPE   H6S19750   6.914   5.512   9.847 -0.1948 -0.3487  0.6849
  174SOPE   C2719751   6.931   5.725   9.869  0.3927 -0.2375  0.1957
  174SOPE   H7R19752   6.830   5.771   9.867  0.3824 -0.1606  1.5395
  174SOPE   H7S19753   6.985   5.782   9.947  0.0779 -0.8433  0.8777
  174SOPE   C2819754   7.006   5.734   9.735  0.0357  0.0424 -0.0915
  174SOPE   H8R19755   7.051   5.835   9.719  2.8620 -1.1637 -0.4560
  174SOPE   H8S19756   7.091   5.662   9.740  1.1172  1.0920 -2.0564
  174SOPE   C2919757   6.921   5.685   9.624 -1.3142 -0.4671 -0.4324
  174SOPE   H9119758   6.884   5.582   9.641  1.0047 -1.0636  1.7884
  174SOPE  C21019759   6.902   5.754   9.511  0.1326  0.1859  0.4696
  174SOPE  H10119760   6.832   5.711   9.439  0.7468 -1.8707  1.0273
  174SOPE  C21119761   6.954   5.895   9.486  0.0888 -0.3153  0.7270
  174SOPE  H11R19762   7.057   5.917   9.520 -0.4225  2.1530  0.8362
  174SOPE  H11S19763   6.890   5.961   9.548  0.3792 -1.1937  2.0000
  174SOPE  C21219764   6.943   5.951   9.342 -0.3051 -0.4511 -0.4537
  174SOPE  H12R19765   7.000   5.887   9.271 -2.1883 -1.4150 -1.1618
  174SOPE  H12S19766   6.994   6.050   9.334  0.7113 -0.7066  1.9287
  174SOPE  C21319767   6.803   5.974   9.282 -0.0178 -0.0943 -0.5718
  174SOPE  H13R19768   6.749   6.052   9.339 -2.3499 -0.6578 -1.8983
  174SOPE  H13S19769   6.750   5.877   9.296  0.9033 -0.5669 -0.2781
  174SOPE  C21419770   6.807   6.026   9.133  1.1960 -0.2228  0.2358
  174SOPE  H14R19771   6.704   6.016   9.093  1.6408 -1.1653 -0.7046
  174SOPE  H14S19772   6.878   5.968   9.070 -2.1605 -1.3290 -2.8635
  174SOPE  C21519773   6.856   6.176   9.124 -0.3960  0.4141 -0.7308
  174SOPE  H15R19774   6.964   6.187   9.148 -0.9537  0.7870  1.9050
  174SOPE  H15S19775   6.807   6.239   9.201 -2.7849 -1.3082 -0.7093
  174SOPE  C21619776   6.824   6.241   8.982  0.4115 -0.5338 -0.3390
  174SOPE  H16R19777   6.715   6.254   8.966  0.3873  1.1748  0.8654
  174SOPE  H16S19778   6.854   6.167   8.905  1.4621  0.5079 -0.9544
  174SOPE  C21719779   6.870   6.386   8.953 -0.6975  0.4966 -0.0078
  174SOPE  H17R19780   6.975   6.390   8.990 -0.3862  0.2350 -0.8359
  174SOPE  H17S19781   6.799   6.460   8.996  0.3915  2.8801 -2.0193
  174SOPE  C21819782   6.883   6.417   8.800 -0.4648 -0.9574  0.1403
  174SOPE  H18R19783   6.784   6.395   8.753 -0.3605 -1.1097 -0.0123
  174SOPE  H18S19784   6.959   6.360   8.742 -1.1566 -1.4523 -0.3074
  174SOPE  H18T19785   6.903   6.525   8.788  0.0274 -0.8670  1.5908
  174SOPE   C3319786   6.151   5.507  10.089 -0.0105  0.1929 -0.4454
  174SOPE   H3X19787   6.070   5.579  10.115 -0.2452 -0.2747  0.1268
  174SOPE   H3Y19788   6.119   5.403  10.110  1.7541 -0.1889  0.5551
  174SOPE   C3419789   6.166   5.532   9.939 -0.2362  0.4598  0.2388
  174SOPE   H4X19790   6.231   5.449   9.905  0.1118  0.8466 -0.0480
  174SOPE   H4Y19791   6.206   5.633   9.919  2.1298  0.4344  3.9473
  174SOPE   C3519792   6.029   5.502   9.871  0.0160  0.1047  0.0888
  174SOPE   H5X19793   5.960   5.586   9.892  0.0977 -0.3343  2.3963
  174SOPE   H5Y19794   5.986   5.413   9.920 -0.6041  0.5517  0.3646
  174SOPE   C3619795   6.028   5.462   9.722 -0.4102  0.1256 -0.4722
  174SOPE   H6X19796   5.925   5.429   9.695 -0.1836 -1.6025  0.6311
  174SOPE   H6Y19797   6.099   5.377   9.714 -1.0736 -0.4851  0.0014
  174SOPE   C3719798   6.073   5.574   9.632  0.5745 -0.0611  0.1941
  174SOPE   H7X19799   6.180   5.584   9.660  0.8060 -2.6961  0.5339
  174SOPE   H7Y19800   6.006   5.660   9.652 -2.7244 -2.6105  0.9784
  174SOPE   C3819801   6.067   5.547   9.479  0.2928 -0.2052  0.0850
  174SOPE   H8X19802   6.104   5.627   9.412  0.9814  3.3248  4.2093
  174SOPE   H8Y19803   5.960   5.526   9.454  0.6174 -1.2711 -0.4362
  174SOPE   C3919804   6.156   5.425   9.445  0.2110  0.4081 -0.5811
  174SOPE   H9X19805   6.110   5.335   9.491 -1.0697  1.4486  0.2728
  174SOPE   H9Y19806   6.259   5.437   9.486  1.1436 -1.0388 -2.3438
  174SOPE  C31019807   6.168   5.414   9.296 -0.1203  0.0070 -0.1807
  174SOPE  H10X19808   6.201   5.502   9.237 -1.6068  0.9387  0.3101
  174SOPE  H10Y19809   6.065   5.408   9.254 -0.4355 -0.1347  0.5969
  174SOPE  C31119810   6.247   5.298   9.244 -0.6355 -0.0503 -0.0788
  174SOPE  H11X19811   6.192   5.202   9.256 -0.9860  0.1841  0.2169
  174SOPE  H11Y19812   6.342   5.303   9.300 -0.5810  2.9093 -0.2730
  174SOPE  C31219813   6.266   5.320   9.091 -0.1631 -0.4552 -0.0507
  174SOPE  H12X19814   6.334   5.407   9.080  0.1741 -0.9099 -1.8216
  174SOPE  H12Y19815   6.172   5.348   9.037 -1.3858 -1.5516  1.4163
  174SOPE  C31319816   6.329   5.208   9.011 -0.1324  0.6069 -0.1863
  174SOPE  H13X19817   6.281   5.109   9.028  3.9132 -1.3700  0.8866
  174SOPE  H13Y19818   6.430   5.177   9.044 -0.3796 -1.1967 -1.0220
  174SOPE  C31419819   6.339   5.220   8.863  0.1389 -0.2247  0.0211
  174SOPE  H14X19820   6.392   5.125   8.838  0.8395 -0.1795  1.2429
  174SOPE  H14Y19821   6.411   5.302   8.842 -0.7036  0.3121 -0.8387
  174SOPE  C31519822   6.204   5.254   8.792  0.1218  0.0353  0.1643
  174SOPE  H15X19823   6.161   5.351   8.825 -1.2560  0.0876 -1.6500
  174SOPE  H15Y19824   6.133   5.172   8.814  1.0969 -0.7560  0.4767
  174SOPE  C31619825   6.209   5.241   8.634  0.7612 -0.0143  0.1366
  174SOPE  H16X19826   6.281   5.313   8.589  0.9643  0.1926  0.7914
  174SOPE  H16Y19827   6.111   5.277   8.594 -0.4532 -0.3915  2.6198
  174SOPE  C31719828   6.228   5.096   8.585 -0.4437 -0.2616  0.2591
  174SOPE  H17X19829   6.137   5.041   8.618 -1.4176  0.1047 -1.6542
  174SOPE  H17Y19830   6.320   5.067   8.639 -0.8604 -0.2732  0.9686
  174SOPE  C31819831   6.242   5.070   8.438  0.0308 -0.3249 -0.3793
  174SOPE  H18X19832   6.288   4.972   8.413  0.5193 -0.3723  0.6521
  174SOPE  H18Y19833   6.309   5.150   8.398 -2.1407  0.5062 -2.5609
  174SOPE  H18Z19834   6.144   5.074   8.387 -0.0921 -2.3103 -0.3537
  175SOPE     N19835   2.091   0.959  10.655  0.5164  0.9143 -0.2751
  175SOPE   HN119836   2.061   0.886  10.723 -0.0218  1.4936  0.1188
  175SOPE   HN219837   2.194   0.971  10.651  0.5347  0.9605  0.2515
  175SOPE   HN319838   2.046   1.049  10.678 -0.8137  0.9230 -2.6220
  175SOPE   C1219839   2.065   0.923  10.522 -0.0426 -0.3947  0.3774
  175SOPE  H12A19840   1.956   0.930  10.504  0.1117  0.0355 -0.4774
  175SOPE  H12B19841   2.107   0.824  10.493  1.6071  0.4396 -0.2815
  175SOPE   C1119842   2.143   1.014  10.427 -0.1744 -0.9423 -0.8042
  175SOPE  H11A19843   2.109   1.116  10.453 -0.2214 -1.5171  1.5941
  175SOPE  H11B19844   2.128   0.983  10.321 -2.0284 -2.3993 -0.1626
  175SOPE     P19845   2.382   1.099  10.514 -0.1472  0.0600  0.0948
  175SOPE   O1319846   2.520   1.042  10.527  0.1421  0.5578  0.0618
  175SOPE   O1419847   2.326   1.162  10.632  0.0731  0.0223 -0.3672
  175SOPE   O1219848   2.278   0.993  10.462  0.2468  0.1218 -0.0075
  175SOPE   O1119849   2.372   1.210  10.395 -0.5628 -0.3125  0.3490
  175SOPE    C119850   2.492   1.233  10.322 -0.4438 -0.7129 -0.1087
  175SOPE    HA19851   2.526   1.132  10.290 -0.9972 -0.4154 -1.7280
  175SOPE    HB19852   2.579   1.278  10.373  1.2827 -0.1469 -3.2906
  175SOPE    C219853   2.451   1.326  10.206 -0.0103  0.2023  0.5012
  175SOPE    HS19854   2.419   1.425  10.245 -0.1652  0.9311 -1.3725
  175SOPE   O2119855   2.361   1.265  10.118 -0.4185 -0.3305 -0.2196
  175SOPE   C2119856   2.237   1.299  10.138  0.0991  0.0676 -0.1899
  175SOPE   O2219857   2.198   1.383  10.217  0.1251  0.8623 -0.2498
  175SOPE   C2219858   2.163   1.201  10.054  0.0308  0.1877 -0.4775
  175SOPE   H2R19859   2.054   1.216  10.068  0.0917  0.6307 -0.4531
  175SOPE   H2S19860   2.190   1.097  10.081  1.0250  0.6592  0.4186
  175SOPE    C319861   2.575   1.359  10.127 -0.0871 -0.3800  0.1434
  175SOPE    HX19862   2.642   1.271  10.121  2.0883  1.2476 -0.3986
  175SOPE    HY19863   2.633   1.433  10.185 -3.1358  2.2855  0.1216
  175SOPE   O3119864   2.547   1.403   9.993 -0.3561  0.4141  0.0633
  175SOPE   C3119865   2.520   1.532   9.978  0.3733 -0.0486 -0.3015
  175SOPE   O3219866   2.526   1.618  10.069 -0.0481  0.3992  0.1634
  175SOPE   C3219867   2.502   1.567   9.826 -0.4996  0.7846 -0.1247
  175SOPE   H2X19868   2.591   1.616   9.779  0.0396 -0.9350 -0.9972
  175SOPE   H2Y19869   2.414   1.632   9.811 -1.8245 -0.9371 -0.0354
  175SOPE   C2319870   2.195   1.219   9.904 -0.4418 -0.6302 -0.2694
  175SOPE   H3R19871   2.292   1.166   9.892  0.5611  0.7579  1.3723
  175SOPE   H3S19872   2.202   1.324   9.868 -0.5420 -0.3003  0.6510
  175SOPE   C2419873   2.089   1.148   9.817  0.1922 -0.4170  0.8970
  175SOPE   H4R19874   2.088   1.039   9.838  1.0284 -0.2272  2.0075
  175SOPE   H4S19875   1.989   1.189   9.839  0.6356 -0.3410  2.9375
  175SOPE   C2519876   2.128   1.164   9.669 -0.4584 -0.1596  0.5970
  175SOPE   H5R19877   2.139   1.272   9.647 -0.5171 -0.6785 -2.3257
  175SOPE   H5S19878   2.233   1.129   9.658 -0.9407 -0.9532 -1.9860
  175SOPE   C2619879   2.042   1.093   9.561 -0.3934  0.4146 -0.3597
  175SOPE   H6R19880   2.045   0.982   9.567 -1.3143  0.3791 -0.4796
  175SOPE   H6S19881   1.935   1.119   9.573 -0.5431 -0.7342  1.0888
  175SOPE   C2719882   2.086   1.130   9.412  0.3545 -0.5228 -0.0759
  175SOPE   H7R19883   2.063   1.237   9.395  0.1224 -0.3401  1.2259
  175SOPE   H7S19884   2.196   1.119   9.423  0.8880  2.6365 -1.1191
  175SOPE   C2819885   2.027   1.043   9.297 -0.9111 -0.3207  0.6530
  175SOPE   H8R19886   2.015   0.942   9.342 -0.6571  0.0294  1.5382
  175SOPE   H8S19887   1.920   1.073   9.290 -1.2010 -1.2879  0.7498
  175SOPE   C2919888   2.088   1.030   9.155 -0.0415  0.3235  0.6247
  175SOPE   H9119889   2.196   1.018   9.139 -0.5289 -1.5865 -1.7811
  175SOPE  C21019890   2.021   1.019   9.041  0.0230 -0.2900 -0.2904
  175SOPE  H10119891   2.070   1.010   8.943  0.8148  2.9570 -0.3138
  175SOPE  C21119892   1.878   1.041   9.031  0.6860 -0.4389 -0.5080
  175SOPE  H11R19893   1.835   1.126   9.088 -1.2517 -1.4797 -0.3226
  175SOPE  H11S19894   1.835   0.953   9.084 -1.9280  1.5209  0.8717
  175SOPE  C21219895   1.841   1.050   8.882 -0.2244  0.6311 -0.3273
  175SOPE  H12R19896   1.857   0.954   8.830  2.7572  0.8515  0.0035
  175SOPE  H12S19897   1.915   1.119   8.836 -0.5793  0.7816 -0.6824
  175SOPE  C21319898   1.696   1.099   8.858 -0.6518 -0.0745 -0.2670
  175SOPE  H13R19899   1.686   1.194   8.916  0.7667 -0.5430  0.8211
  175SOPE  H13S19900   1.614   1.036   8.899  1.0952 -1.6026  1.0178
  175SOPE  C21419901   1.668   1.120   8.712  0.3208  0.3549  0.9050
  175SOPE  H14R19902   1.661   1.029   8.650 -0.9632  0.1488  1.3148
  175SOPE  H14S19903   1.751   1.174   8.661  1.0945 -2.0730 -0.5424
  175SOPE  C21519904   1.540   1.203   8.695 -0.1297 -1.0521 -0.0143
  175SOPE  H15R19905   1.557   1.299   8.748 -1.1809 -1.3547  0.9054
  175SOPE  H15S19906   1.458   1.139   8.735  0.7014 -1.8484  0.4738
  175SOPE  C21619907   1.505   1.243   8.551  0.1093  0.2005  0.1319
  175SOPE  H16R19908   1.399   1.276   8.557  0.3696  0.8663  1.2743
  175SOPE  H16S19909   1.506   1.158   8.479 -1.4146  0.6224 -0.4270
  175SOPE  C21719910   1.589   1.361   8.503 -0.2007  0.0717 -0.2275
  175SOPE  H17R19911   1.697   1.337   8.518  0.0969  2.4275  2.1573
  175SOPE  H17S19912   1.583   1.453   8.566 -0.7552 -1.2255  1.7159
  175SOPE  C21819913   1.567   1.404   8.358  0.2196  0.3434 -0.4279
  175SOPE  H18R19914   1.554   1.312   8.297 -0.4763 -0.0301  0.2669
  175SOPE  H18S19915   1.651   1.454   8.305 -1.7405  1.7882 -2.3440
  175SOPE  H18T19916   1.475   1.466   8.350 -1.0880 -0.9918  2.6664
  175SOPE   C3319917   2.463   1.434   9.750  1.0912  0.4034  0.1436
  175SOPE   H3X19918   2.387   1.378   9.809  1.0317 -1.9736 -2.0316
  175SOPE   H3Y19919   2.563   1.386   9.745  1.6292  1.5445 -0.3749
  175SOPE   C3419920   2.389   1.472   9.622  0.0223  0.4391 -0.1544
  175SOPE   H4X19921   2.291   1.524   9.630  0.9605  2.9381 -2.9758
  175SOPE   H4Y19922   2.372   1.372   9.576  0.1772 -0.3010  1.3348
  175SOPE   C3519923   2.467   1.565   9.537  0.1060 -0.6275  0.0060
  175SOPE   H5X19924   2.573   1.533   9.528  0.6921  1.5875 -2.0085
  175SOPE   H5Y19925   2.478   1.659   9.595 -1.9908 -0.4959  0.2362
  175SOPE   C3619926   2.414   1.597   9.398  0.2055 -0.8886 -0.7867
  175SOPE   H6X19927   2.492   1.659   9.348 -0.2139 -0.7527 -1.2825
  175SOPE   H6Y19928   2.318   1.652   9.407 -0.9945 -2.7855 -1.4812
  175SOPE   C3719929   2.381   1.479   9.302 -0.0912  0.8053 -0.2495
  175SOPE   H7X19930   2.313   1.410   9.358 -0.6447 -1.2741 -3.2776
  175SOPE   H7Y19931   2.475   1.432   9.267  0.7332  1.1979  1.2968
  175SOPE   C3819932   2.289   1.516   9.187 -0.9464  0.8094 -0.0946
  175SOPE   H8X19933   2.207   1.579   9.228 -2.1352  0.1849 -1.4392
  175SOPE   H8Y19934   2.261   1.419   9.141 -0.1976 -0.1955  1.4688
  175SOPE   C3919935   2.368   1.594   9.080 -0.4893 -0.7791 -0.0558
  175SOPE   H9X19936   2.457   1.530   9.064  1.5569  1.0670  2.9731
  175SOPE   H9Y19937   2.407   1.683   9.134 -2.4181 -1.0474  1.9236
  175SOPE  C31019938   2.294   1.632   8.949  0.1233 -0.1754 -0.7252
  175SOPE  H10X19939   2.211   1.702   8.972  0.3321 -0.7509  2.1233
  175SOPE  H10Y19940   2.251   1.540   8.904 -0.5679  1.4477 -3.6354
  175SOPE  C31119941   2.387   1.679   8.845 -0.4014 -0.7633  0.6985
  175SOPE  H11X19942   2.344   1.676   8.743 -0.3294  0.0313  0.6394
  175SOPE  H11Y19943   2.467   1.602   8.847  1.4963  0.9963 -1.6864
  175SOPE  C31219944   2.423   1.823   8.881  0.2291  0.2404  0.4376
  175SOPE  H12X19945   2.436   1.831   8.991  0.0772  0.4230  0.4428
  175SOPE  H12Y19946   2.336   1.888   8.856  0.1756 -0.1021 -0.3112
  175SOPE  C31319947   2.547   1.884   8.816  0.3357  0.1513  0.1945
  175SOPE  H13X19948   2.626   1.810   8.841 -0.3767 -0.3175  1.0954
  175SOPE  H13Y19949   2.559   1.985   8.861 -2.4791 -0.9811  3.9686
  175SOPE  C31419950   2.540   1.908   8.661 -1.1101  0.1303  0.1233
  175SOPE  H14X19951   2.479   1.999   8.645 -0.1480  1.3439  2.7949
  175SOPE  H14Y19952   2.469   1.837   8.614  0.0309 -1.0455  0.1179
  175SOPE  C31519953   2.679   1.926   8.603 -0.7415 -1.1079 -0.7278
  175SOPE  H15X19954   2.680   1.894   8.497  0.9888 -1.2126 -0.7160
  175SOPE  H15Y19955   2.750   1.856   8.652 -1.7561 -0.4910  1.7799
  175SOPE  C31619956   2.729   2.072   8.626  0.5064  0.4989  0.5993
  175SOPE  H16X19957   2.763   2.092   8.730  3.1156  1.6900 -0.3909
  175SOPE  H16Y19958   2.640   2.134   8.602  0.1593  0.2807  1.3016
  175SOPE  C31719959   2.842   2.114   8.534 -0.1506 -1.4714  0.3855
  175SOPE  H17X19960   2.793   2.114   8.435 -0.6599  0.9529  0.5656
  175SOPE  H17Y19961   2.917   2.032   8.542  0.6384 -0.8230 -0.1431
  175SOPE  C31819962   2.894   2.253   8.591  0.1279  0.0052 -0.0141
  175SOPE  H18X19963   2.816   2.329   8.571  0.4664 -0.0432 -1.6906
  175SOPE  H18Y19964   2.991   2.266   8.537  0.1291  0.1547  0.0263
  175SOPE  H18Z19965   2.912   2.249   8.700  1.9213  0.7186 -0.2544
  176SOPE     N19966   2.521   0.085  10.875  0.2909 -0.1459  0.0677
  176SOPE   HN119967   2.567   0.175  10.854 -0.3527  0.0763 -0.4332
  176SOPE   HN219968   2.504   0.027  10.790 -0.0528 -2.3172  1.5322
  176SOPE   HN319969   2.426   0.108  10.910 -0.0511 -0.2632 -0.7590
  176SOPE   C1219970   2.613   0.013  10.971  0.3908 -0.8411  0.0733
  176SOPE  H12A19971   2.700  -0.034  10.920  1.2024  1.4945 -0.8387
  176SOPE  H12B19972   2.554  -0.051  11.039 -2.0958  1.4894  0.2633
  176SOPE   C1119973   2.681   0.116  11.071  0.1318  0.2204 -0.6624
  176SOPE  H11A19974   2.754   0.053  11.127 -0.4117  0.1254 -0.0506
  176SOPE  H11B19975   2.610   0.152  11.149 -1.4412  0.3261 -2.0883
  176SOPE     P19976   2.878   0.289  11.013  0.0275 -0.1331 -0.0365
  176SOPE   O1319977   2.959   0.241  11.134 -0.3082 -0.0125 -0.2207
  176SOPE   O1419978   2.856   0.430  11.003 -0.9043 -0.2850  0.1919
  176SOPE   O1219979   2.738   0.224  11.006 -0.1667 -0.1940  0.3598
  176SOPE   O1119980   2.953   0.241  10.884  0.1544 -0.1580  0.8597
  176SOPE    C119981   2.967   0.115  10.821 -0.2036  0.0893 -0.1220
  176SOPE    HA19982   2.912   0.031  10.868  0.4886  0.3854  1.2855
  176SOPE    HB19983   3.073   0.084  10.836  0.3842  2.1283  0.3230
  176SOPE    C219984   2.940   0.134  10.665  0.3050  0.2744 -1.0481
  176SOPE    HS19985   3.033   0.181  10.627  1.5402  1.5079  2.9394
  176SOPE   O2119986   2.813   0.203  10.637  0.5965  0.0691  0.0469
  176SOPE   C2119987   2.818   0.305  10.554  0.2625  0.2120 -0.6232
  176SOPE   O2219988   2.921   0.369  10.536 -0.0511  0.0274 -0.5128
  176SOPE   C2219989   2.684   0.337  10.490 -0.0420  0.0085  0.5230
  176SOPE   H2R19990   2.622   0.389  10.566  1.9540  0.7122  1.7152
  176SOPE   H2S19991   2.648   0.235  10.465  0.8383 -0.4534  1.0943
  176SOPE    C319992   2.915  -0.007  10.609  0.0794 -0.5592 -0.3322
  176SOPE    HX19993   2.828  -0.049  10.665 -0.8517 -0.9118 -1.9709
  176SOPE    HY19994   3.009  -0.064  10.621 -0.7376 -1.7680  0.6836
  176SOPE   O3119995   2.874  -0.004  10.469 -0.1942 -0.1946  0.1797
  176SOPE   C3119996   2.900  -0.121  10.408  0.6962 -0.3609  0.2776
  176SOPE   O3219997   2.972  -0.206  10.453 -0.0389 -0.1779  0.0731
  176SOPE   C3219998   2.854  -0.116  10.264  0.5460  0.1594  0.2904
  176SOPE   H2X19999   2.783  -0.030  10.256  0.1905 -0.3019 -2.5924
  176SOPE   H2Y20000   2.794  -0.209  10.264 -3.3148  2.4184 -0.2129
  176SOPE   C2320001   2.690   0.426  10.361 -0.2228  0.3309 -0.3437
  176SOPE   H3R20002   2.749   0.519  10.374 -1.0931  0.9805 -0.9040
  176SOPE   H3S20003   2.587   0.457  10.332  0.1109  0.5959 -1.2830
  176SOPE   C2420004   2.751   0.351  10.236  0.0658 -0.3819  0.3810
  176SOPE   H4R20005   2.847   0.303  10.265 -0.1047 -0.6960  0.4399
  176SOPE   H4S20006   2.682   0.264  10.223  0.0955 -0.7775  2.4839
  176SOPE   C2520007   2.758   0.424  10.099 -0.0191 -0.3697 -0.1813
  176SOPE   H5R20008   2.655   0.457  10.073 -0.2452 -0.9177  0.0122
  176SOPE   H5S20009   2.827   0.511  10.108  1.0034 -1.3490  1.8469
  176SOPE   C2620010   2.791   0.334   9.981 -0.2355 -0.1473 -0.5222
  176SOPE   H6R20011   2.892   0.299  10.011 -0.0140  2.1380  1.7420
  176SOPE   H6S20012   2.729   0.242   9.974 -1.4461  0.7909 -4.2141
  176SOPE   C2720013   2.806   0.399   9.843  0.2937 -0.4962  0.4505
  176SOPE   H7R20014   2.708   0.443   9.818  0.3548  0.8762  2.3784
  176SOPE   H7S20015   2.877   0.485   9.846  1.1307 -1.0994 -0.8509
  176SOPE   C2820016   2.860   0.304   9.733 -1.2765  0.1222 -0.2208
  176SOPE   H8R20017   2.955   0.263   9.773 -1.3854  0.8308  0.8158
  176SOPE   H8S20018   2.796   0.216   9.712  0.0002 -0.3183 -2.6499
  176SOPE   C2920019   2.887   0.381   9.606 -0.1188  0.0114  0.0234
  176SOPE   H9120020   2.973   0.449   9.598  0.0975 -0.3661 -1.0347
  176SOPE  C21020021   2.804   0.388   9.502 -0.2037 -0.8310  0.0171
  176SOPE  H10120022   2.831   0.451   9.416  2.9807 -3.4242 -1.1021
  176SOPE  C21120023   2.673   0.311   9.507 -0.0124  0.4299  0.3413
  176SOPE  H11R20024   2.610   0.340   9.594 -1.0147 -0.9203  0.0922
  176SOPE  H11S20025   2.685   0.201   9.523 -1.0965  0.2939  0.2810
  176SOPE  C21220026   2.585   0.336   9.390  0.4984 -0.0520  0.1741
  176SOPE  H12R20027   2.592   0.444   9.363  0.2007 -0.0310  0.1808
  176SOPE  H12S20028   2.480   0.317   9.422 -0.3819  1.1631 -1.8017
  176SOPE  C21320029   2.623   0.256   9.264  0.3021  0.4587  0.2313
  176SOPE  H13R20030   2.625   0.150   9.298 -3.3281  0.4811  0.8711
  176SOPE  H13S20031   2.725   0.281   9.228  0.8099  0.6297  1.7131
  176SOPE  C21420032   2.519   0.257   9.148 -0.0472 -0.4903 -0.1731
  176SOPE  H14R20033   2.422   0.239   9.198  0.8457 -2.5981  0.9266
  176SOPE  H14S20034   2.536   0.174   9.076 -1.9528 -0.7768 -0.3435
  176SOPE  C21520035   2.514   0.390   9.067  0.8552 -1.1277 -0.3020
  176SOPE  H15R20036   2.497   0.468   9.144 -1.3659 -0.9193 -0.9364
  176SOPE  H15S20037   2.427   0.392   8.999 -0.4239  1.0908  1.2513
  176SOPE  C21620038   2.628   0.411   8.973  0.5759 -0.2022 -0.4414
  176SOPE  H16R20039   2.639   0.327   8.901  2.6847  0.7532 -1.3312
  176SOPE  H16S20040   2.724   0.416   9.030  0.5017 -0.9995 -0.2296
  176SOPE  C21720041   2.599   0.546   8.895  0.2058  0.3607 -0.1118
  176SOPE  H17R20042   2.591   0.620   8.978 -0.7191 -0.0261  0.1645
  176SOPE  H17S20043   2.497   0.532   8.853  0.2136  1.9579 -0.7558
  176SOPE  C21820044   2.698   0.585   8.787  0.2722 -0.4364  0.3895
  176SOPE  H18R20045   2.658   0.682   8.750 -0.3568 -0.5733  0.6974
  176SOPE  H18S20046   2.705   0.497   8.720  0.5455 -0.5409  0.5608
  176SOPE  H18T20047   2.799   0.602   8.828  0.6021 -1.8728  0.2291
  176SOPE   C3320048   2.960  -0.094  10.156 -0.3340  0.4444  0.4367
  176SOPE   H3X20049   3.041  -0.169  10.157 -1.5191 -0.8846  2.1179
  176SOPE   H3Y20050   3.018  -0.000  10.168  0.1030  0.2956 -0.3961
  176SOPE   C3420051   2.911  -0.095  10.011  0.5313  0.5875  0.5220
  176SOPE   H4X20052   2.820  -0.031  10.006  0.2535  0.1421 -0.2993
  176SOPE   H4Y20053   2.885  -0.198   9.980 -2.4927  1.0199  1.2671
  176SOPE   C3520054   3.011  -0.040   9.911  0.0447 -1.0190 -0.1063
  176SOPE   H5X20055   3.102  -0.099   9.934  0.1530 -0.8848 -0.1892
  176SOPE   H5Y20056   3.032   0.067   9.930  0.0670 -1.0848  0.2337
  176SOPE   C3620057   2.979  -0.047   9.759  0.1408 -0.0171 -0.1573
  176SOPE   H6X20058   2.921   0.043   9.729 -0.3688  0.6400  2.5745
  176SOPE   H6Y20059   2.913  -0.134   9.740  0.4679 -0.2307 -0.3396
  176SOPE   C3720060   3.106  -0.061   9.673  0.0763 -0.2465  0.5500
  176SOPE   H7X20061   3.175  -0.138   9.714  1.1852 -0.5624 -1.7540
  176SOPE   H7Y20062   3.169   0.030   9.674 -0.9652  0.5164 -0.8668
  176SOPE   C3820063   3.061  -0.116   9.529 -0.1760  0.0642 -0.2015
  176SOPE   H8X20064   3.015  -0.032   9.471 -1.4548 -0.6502 -0.2582
  176SOPE   H8Y20065   2.983  -0.194   9.540  0.4166 -0.3319  1.4876
  176SOPE   C3920066   3.182  -0.160   9.448 -0.4134 -0.2451  0.0898
  176SOPE   H9X20067   3.218  -0.265   9.454  1.1076  0.1922 -0.7189
  176SOPE   H9Y20068   3.271  -0.096   9.463 -0.4796 -0.5518  1.9876
  176SOPE  C31020069   3.150  -0.155   9.295 -0.1385 -0.0679 -0.4928
  176SOPE  H10X20070   3.115  -0.054   9.267 -0.6102 -0.1860 -0.3399
  176SOPE  H10Y20071   3.065  -0.226   9.287  1.2988 -2.6589  3.7098
  176SOPE  C31120072   3.266  -0.194   9.206 -0.3162  0.1383 -0.2717
  176SOPE  H11X20073   3.232  -0.200   9.100 -0.4373  2.5210 -0.4238
  176SOPE  H11Y20074   3.282  -0.302   9.228 -0.3181  0.8138  3.6523
  176SOPE  C31220075   3.394  -0.113   9.223 -0.2840 -0.0983  0.5499
  176SOPE  H12X20076   3.441  -0.148   9.318  1.5852  0.5015 -0.1203
  176SOPE  H12Y20077   3.376  -0.003   9.229 -1.1279 -0.2473  0.9393
  176SOPE  C31320078   3.492  -0.134   9.111  0.5204 -0.5682  0.7258
  176SOPE  H13X20079   3.497  -0.240   9.079 -1.4797 -1.1430  2.1047
  176SOPE  H13Y20080   3.595  -0.106   9.140 -0.0786  1.1519  1.3084
  176SOPE  C31420081   3.448  -0.045   8.985 -0.1408 -1.0298 -0.1955
  176SOPE  H14X20082   3.442   0.064   9.006 -2.9830 -0.9506 -0.9929
  176SOPE  H14Y20083   3.350  -0.081   8.948 -0.0215 -2.1398  0.5074
  176SOPE  C31520084   3.552  -0.049   8.868 -0.2637  0.6378  0.5713
  176SOPE  H15X20085   3.574  -0.154   8.839 -1.5954  0.2055  1.0288
  176SOPE  H15Y20086   3.647  -0.001   8.901 -0.7128  1.9005  0.1032
  176SOPE  C31620087   3.499   0.021   8.741  0.3315  0.2809 -0.4205
  176SOPE  H16X20088   3.517   0.130   8.749  0.8171  0.1529  0.2848
  176SOPE  H16Y20089   3.388   0.009   8.733  0.6299 -3.1955 -0.6908
  176SOPE  C31720090   3.554  -0.028   8.611 -0.4096 -0.1429 -0.1314
  176SOPE  H17X20091   3.530  -0.136   8.618 -2.8036  0.3357  0.2141
  176SOPE  H17Y20092   3.660  -0.006   8.587 -0.7297  0.2089 -1.3449
  176SOPE  C31820093   3.463   0.022   8.493  0.0704 -0.0777  0.4382
  176SOPE  H18X20094   3.444   0.132   8.494  1.9428  0.3065 -0.9783
  176SOPE  H18Y20095   3.366  -0.033   8.491 -0.1849  0.3538 -1.7570
  176SOPE  H18Z20096   3.506   0.002   8.392 -0.3999  1.6640 -0.1482
  177SOPE     N20097   1.799   5.198  11.151 -0.3074 -0.3683  0.7155
  177SOPE   HN120098   1.900   5.217  11.164 -0.4014 -0.1997  1.2565
  177SOPE   HN220099   1.774   5.239  11.059 -0.7905 -1.1753  0.4692
  177SOPE   HN320100   1.745   5.255  11.220 -0.1632  0.3430  0.2464
  177SOPE   C1220101   1.773   5.056  11.174 -0.1004  0.3218  0.5694
  177SOPE  H12A20102   1.793   5.031  11.280  0.0537  1.6037  0.8671
  177SOPE  H12B20103   1.855   5.002  11.122 -0.0972  0.0298  0.8754
  177SOPE   C1120104   1.632   5.016  11.131  0.5315 -0.1139 -0.1384
  177SOPE  H11A20105   1.549   5.062  11.189 -0.3757 -0.9835 -0.7175
  177SOPE  H11B20106   1.624   4.905  11.137  5.0532 -0.6831 -1.3085
  177SOPE     P20107   1.493   4.997  10.920  0.3969  0.1694  0.3274
  177SOPE   O1320108   1.374   4.974  11.007 -0.7484 -0.3307 -0.3591
  177SOPE   O1420109   1.544   4.880  10.847 -0.2600 -0.1345  0.3054
  177SOPE   O1220110   1.609   5.064  10.998  0.4259 -0.0316  0.3167
  177SOPE   O1120111   1.448   5.107  10.813  0.2556  0.3509  0.5457
  177SOPE    C120112   1.516   5.119  10.687 -0.0140 -0.7879 -0.3364
  177SOPE    HA20113   1.612   5.063  10.691 -1.1065 -2.7534 -0.0582
  177SOPE    HB20114   1.541   5.223  10.658 -1.6446 -0.2423  0.0887
  177SOPE    C220115   1.443   5.063  10.570 -0.4311  0.4520  0.6513
  177SOPE    HS20116   1.464   4.955  10.559 -1.3561  0.3821 -0.7146
  177SOPE   O2120117   1.467   5.141  10.451  0.7331 -0.4874  0.2539
  177SOPE   C2120118   1.573   5.118  10.386 -0.0081 -0.3914  0.0121
  177SOPE   O2220119   1.672   5.050  10.421  0.1350  0.2702 -0.0642
  177SOPE   C2220120   1.564   5.201  10.251  0.3308  0.0719 -0.3621
  177SOPE   H2R20121   1.658   5.256  10.228  0.7893 -0.1545  0.8423
  177SOPE   H2S20122   1.495   5.284  10.276  0.7435 -0.1020  1.5279
  177SOPE    C320123   1.288   5.062  10.601  0.3856  0.4352  0.4007
  177SOPE    HX20124   1.259   5.166  10.625  2.0029  0.8642  0.5604
  177SOPE    HY20125   1.269   4.987  10.680  1.9595 -0.3330  0.0967
  177SOPE   O3120126   1.214   5.024  10.486 -0.5911 -0.5618  0.7833
  177SOPE   C3120127   1.083   5.032  10.497  0.7085 -0.5373 -0.0144
  177SOPE   O3220128   1.025   5.055  10.606  0.4759  0.4011 -0.3422
  177SOPE   C3220129   1.014   5.010  10.366 -0.4398 -0.1575  0.0365
  177SOPE   H2X20130   1.052   4.908  10.342 -0.2664 -1.1867  3.9886
  177SOPE   H2Y20131   1.066   5.085  10.301 -0.0629 -0.4878 -0.0493
  177SOPE   C2320132   1.517   5.107  10.139  0.1041 -0.0068  0.3800
  177SOPE   H3R20133   1.425   5.055  10.172 -1.1843  2.2976  0.6364
  177SOPE   H3S20134   1.605   5.042  10.120 -0.6807 -1.1034  0.4120
  177SOPE   C2420135   1.479   5.186  10.013 -0.3552 -0.3051  0.0215
  177SOPE   H4R20136   1.439   5.285  10.043  1.6856  0.5933 -0.0618
  177SOPE   H4S20137   1.574   5.211   9.960  0.5117 -0.4563  1.4397
  177SOPE   C2520138   1.390   5.097   9.922 -0.4578 -0.3293  0.2294
  177SOPE   H5R20139   1.443   5.008   9.883  0.1062  0.2474 -0.3531
  177SOPE   H5S20140   1.297   5.077   9.979  1.2334 -1.9012  2.6496
  177SOPE   C2620141   1.343   5.173   9.794  0.1783  0.5906  0.1480
  177SOPE   H6R20142   1.297   5.272   9.813 -2.1993 -0.0176 -1.8930
  177SOPE   H6S20143   1.436   5.191   9.736  0.9140  3.0181  1.8907
  177SOPE   C2720144   1.244   5.091   9.717  0.1178  0.1541 -0.2311
  177SOPE   H7R20145   1.284   5.002   9.664 -0.4211  0.5070 -1.2603
  177SOPE   H7S20146   1.187   5.045   9.801 -0.1223  0.0018 -0.4777
  177SOPE   C2820147   1.156   5.177   9.627  0.2771 -0.4365  0.6073
  177SOPE   H8R20148   1.095   5.249   9.686 -1.4719 -0.1749 -1.3986
  177SOPE   H8S20149   1.223   5.239   9.564  0.9160 -2.1889 -0.5297
  177SOPE   C2920150   1.075   5.080   9.544  0.5479 -0.4273 -0.5974
  177SOPE   H9120151   0.982   5.048   9.592  1.2198 -0.5494  0.6729
  177SOPE  C21020152   1.111   5.015   9.431 -0.2061  0.1698 -0.4586
  177SOPE  H10120153   1.041   4.943   9.387 -0.7016  0.5819 -0.3454
  177SOPE  C21120154   1.243   5.036   9.355 -0.3248  0.0292 -0.0980
  177SOPE  H11R20155   1.295   4.937   9.359  1.7127  1.0097 -0.8990
  177SOPE  H11S20156   1.324   5.093   9.405  1.0338 -0.3794 -1.7483
  177SOPE  C21220157   1.232   5.072   9.205 -0.1407  0.4438  0.7715
  177SOPE  H12R20158   1.180   4.991   9.150 -1.0129  0.7526  1.1249
  177SOPE  H12S20159   1.338   5.073   9.170  1.5480 -1.1907  5.1435
  177SOPE  C21320160   1.156   5.198   9.165  0.3932 -1.1685  0.3168
  177SOPE  H13R20161   1.214   5.290   9.188  2.3103 -1.5955 -2.2271
  177SOPE  H13S20162   1.061   5.200   9.222  0.8451  0.8182  1.0739
  177SOPE  C21420163   1.143   5.213   9.014  0.1541  0.0448 -0.6158
  177SOPE  H14R20164   1.081   5.131   8.971 -0.9371  0.7584 -0.4738
  177SOPE  H14S20165   1.247   5.204   8.978  1.0174  1.6500  1.3043
  177SOPE  C21520166   1.074   5.340   8.966 -0.2011 -0.0600 -0.1474
  177SOPE  H15R20167   1.103   5.350   8.859 -3.0279  1.3781 -0.8810
  177SOPE  H15S20168   1.110   5.432   9.015  0.3670  0.9468 -2.3496
  177SOPE  C21620169   0.919   5.321   8.978  0.1247 -0.7138  0.1004
  177SOPE  H16R20170   0.885   5.273   9.072  1.2445 -2.2486 -0.2371
  177SOPE  H16S20171   0.882   5.255   8.897 -0.0568  0.5866 -0.9044
  177SOPE  C21720172   0.849   5.451   8.948  0.2811 -0.1582 -0.0705
  177SOPE  H17R20173   0.876   5.474   8.843  2.4027  1.2856  0.7282
  177SOPE  H17S20174   0.905   5.528   9.006  0.6116 -0.0741 -0.5014
  177SOPE  C21820175   0.695   5.444   8.963 -0.2988  0.0946  0.0682
  177SOPE  H18R20176   0.670   5.435   9.071 -1.8616  1.4840 -0.1398
  177SOPE  H18S20177   0.648   5.360   8.908  1.6539 -1.4129  0.5600
  177SOPE  H18T20178   0.652   5.541   8.931 -0.9464  0.4163  1.8052
  177SOPE   C3320179   0.861   5.022  10.355 -0.0802 -0.2952 -0.3835
  177SOPE   H3X20180   0.837   5.130  10.367  0.5070 -0.3984  2.3748
  177SOPE   H3Y20181   0.820   4.964  10.440  0.6918  1.4167  1.2366
  177SOPE   C3420182   0.820   4.969  10.222 -0.5207 -0.2726  0.2798
  177SOPE   H4X20183   0.710   4.962  10.215 -0.7464  0.6109  2.1838
  177SOPE   H4Y20184   0.866   4.868  10.218 -1.2353 -0.7170  2.1911
  177SOPE   C3520185   0.876   5.045  10.102  0.8557 -0.0440  0.6589
  177SOPE   H5X20186   0.985   5.064  10.107  0.9830 -1.0032  1.9624
  177SOPE   H5Y20187   0.843   5.151  10.112  1.2665  0.0915  0.5864
  177SOPE   C3620188   0.837   4.980   9.966  0.1806 -0.2241  0.3355
  177SOPE   H6X20189   0.831   4.870   9.980 -0.1056  0.1056  3.4160
  177SOPE   H6Y20190   0.903   5.012   9.882 -1.3936  1.5061 -0.3159
  177SOPE   C3720191   0.698   5.031   9.920  0.7519  0.8863 -0.5042
  177SOPE   H7X20192   0.695   5.139   9.896  0.0220  1.8618  3.2568
  177SOPE   H7Y20193   0.633   5.026  10.010 -0.4340 -1.3490 -1.4052
  177SOPE   C3820194   0.643   4.942   9.809  0.8289  0.4339  0.0644
  177SOPE   H8X20195   0.545   4.981   9.774 -0.5642 -3.0474 -0.2421
  177SOPE   H8Y20196   0.633   4.838   9.846  2.3150  0.4919  0.6866
  177SOPE   C3920197   0.736   4.936   9.688 -0.4843  0.6048 -0.5777
  177SOPE   H9X20198   0.834   4.887   9.707 -0.6192  0.1505 -1.0409
  177SOPE   H9Y20199   0.773   5.039   9.667  0.0834  0.3168 -1.0202
  177SOPE  C31020200   0.685   4.869   9.561 -0.0983 -0.0657 -0.7432
  177SOPE  H10X20201   0.580   4.904   9.554 -0.2883 -0.0169  1.4235
  177SOPE  H10Y20202   0.680   4.759   9.573 -1.8016  0.0873  0.2846
  177SOPE  C31120203   0.773   4.895   9.433  0.4783 -0.8211 -0.5615
  177SOPE  H11X20204   0.872   4.848   9.457  1.1725  0.3191 -1.1130
  177SOPE  H11Y20205   0.799   5.003   9.426  0.8138 -1.0079 -3.3102
  177SOPE  C31220206   0.722   4.840   9.299 -0.5401  0.2359  0.7294
  177SOPE  H12X20207   0.636   4.905   9.272 -2.3972 -1.5548  2.0011
  177SOPE  H12Y20208   0.689   4.734   9.300  0.4641 -0.3013 -3.3729
  177SOPE  C31320209   0.827   4.848   9.188 -0.5514 -0.7083  0.0264
  177SOPE  H13X20210   0.889   4.756   9.191 -1.3534 -1.4508 -2.5488
  177SOPE  H13Y20211   0.893   4.936   9.191  0.4870 -1.4607 -0.2013
  177SOPE  C31420212   0.770   4.845   9.046  0.4488 -0.4536  0.2389
  177SOPE  H14X20213   0.699   4.931   9.045 -0.2023 -0.9784 -0.5794
  177SOPE  H14Y20214   0.715   4.751   9.022  1.2026 -0.2718 -2.5127
  177SOPE  C31520215   0.873   4.871   8.939  0.0704 -0.1051 -1.1963
  177SOPE  H15X20216   0.948   4.796   8.970  1.9717  1.3977 -1.9698
  177SOPE  H15Y20217   0.912   4.974   8.958  0.0566 -0.5146  1.4330
  177SOPE  C31620218   0.820   4.872   8.800  0.5356  0.2570  0.5917
  177SOPE  H16X20219   0.731   4.808   8.791  1.3244 -0.9990  1.4095
  177SOPE  H16Y20220   0.888   4.822   8.729  1.8192  2.6124  0.0381
  177SOPE  C31720221   0.802   5.014   8.734  0.2247  0.5513 -0.2036
  177SOPE  H17X20222   0.802   5.016   8.623  0.8097  0.7331 -0.2028
  177SOPE  H17Y20223   0.887   5.073   8.772 -0.6548  1.3291  0.6060
  177SOPE  C31820224   0.680   5.091   8.787 -0.3214 -0.1265  0.4038
  177SOPE  H18X20225   0.698   5.109   8.895 -0.9056  0.6446  0.3840
  177SOPE  H18Y20226   0.591   5.024   8.775  0.2231 -1.2840  2.3630
  177SOPE  H18Z20227   0.663   5.188   8.735  1.9669 -0.0712 -0.3427
  178SOPE     N20228   6.476   3.516  11.044  0.4215 -0.1373  0.2323
  178SOPE   HN120229   6.374   3.514  11.021  0.5112  1.2039 -0.3965
  178SOPE   HN220230   6.484   3.511  11.148  0.3202  1.6459  0.3648
  178SOPE   HN320231   6.505   3.613  11.021  1.0495 -0.2781  0.4133
  178SOPE   C1220232   6.553   3.416  10.969 -0.0051  0.4178  0.3006
  178SOPE  H12A20233   6.546   3.316  11.016 -3.4587 -0.2097 -1.2029
  178SOPE  H12B20234   6.658   3.452  10.978 -0.7270  2.1469  3.6721
  178SOPE   C1120235   6.510   3.395  10.821 -0.3319 -0.7344  0.6575
  178SOPE  H11A20236   6.565   3.313  10.771  0.3706 -0.5435  1.1016
  178SOPE  H11B20237   6.541   3.488  10.768  2.7072 -0.1081  3.2622
  178SOPE     P20238   6.268   3.268  10.809  0.2739  0.1264 -0.0155
  178SOPE   O1320239   6.134   3.332  10.799 -0.1166  0.0734  0.0432
  178SOPE   O1420240   6.291   3.180  10.924 -0.0079 -0.1513 -0.2110
  178SOPE   O1220241   6.373   3.383  10.799 -0.3931 -0.5968 -0.0898
  178SOPE   O1120242   6.287   3.188  10.672 -0.1202 -0.5734 -0.2222
  178SOPE    C120243   6.278   3.264  10.548 -0.3169 -0.2139 -0.2889
  178SOPE    HA20244   6.229   3.361  10.573  0.4355  0.3846 -1.0812
  178SOPE    HB20245   6.228   3.206  10.468  0.8569  0.0985 -1.2724
  178SOPE    C220246   6.417   3.298  10.494  0.0593  0.3496  0.1592
  178SOPE    HS20247   6.459   3.381  10.555  2.1639 -0.1476 -0.5413
  178SOPE   O2120248   6.386   3.357  10.367 -0.2837 -0.0400  0.6466
  178SOPE   C2120249   6.320   3.471  10.349  0.1753 -1.0948 -0.3178
  178SOPE   O2220250   6.257   3.533  10.437  0.0195  0.3718  0.1203
  178SOPE   C2220251   6.314   3.517  10.198  0.3809 -0.5561 -0.1737
  178SOPE   H2R20252   6.304   3.628  10.201 -0.6767 -0.6610  0.5687
  178SOPE   H2S20253   6.216   3.491  10.153 -0.0240 -1.6665  1.2656
  178SOPE    C320254   6.522   3.187  10.486 -0.0513  0.5600 -0.0324
  178SOPE    HX20255   6.557   3.188  10.591 -3.1477 -1.5866  1.1530
  178SOPE    HY20256   6.606   3.223  10.423  0.0751  0.3475  0.0151
  178SOPE   O3120257   6.461   3.062  10.459  0.2922  0.2668 -0.2969
  178SOPE   C3120258   6.546   2.969  10.411  0.1782 -0.4074 -0.0128
  178SOPE   O3220259   6.663   2.985  10.390 -0.0314  0.5916 -0.1290
  178SOPE   C3220260   6.460   2.858  10.357 -0.3859  0.0693  0.2315
  178SOPE   H2X20261   6.356   2.871  10.395 -0.6895  0.7315 -0.7910
  178SOPE   H2Y20262   6.498   2.763  10.399 -1.7531 -1.6152 -2.1276
  178SOPE   C2320263   6.430   3.460  10.122 -0.1549  0.0034 -0.4328
  178SOPE   H3R20264   6.408   3.467  10.013 -0.7925 -1.2159 -0.4007
  178SOPE   H3S20265   6.443   3.351  10.136 -1.2983 -0.1947 -0.8163
  178SOPE   C2420266   6.562   3.532  10.158  0.2922 -0.1930 -0.3413
  178SOPE   H4R20267   6.548   3.642  10.169  2.0986  0.0284  0.1526
  178SOPE   H4S20268   6.600   3.494  10.255  3.9887  2.8505 -0.3550
  178SOPE   C2520269   6.675   3.505  10.048 -0.0748  0.1007 -0.3860
  178SOPE   H5R20270   6.766   3.532  10.105 -1.3659  3.3374  0.3782
  178SOPE   H5S20271   6.678   3.397  10.024 -1.4741  0.5204 -2.7390
  178SOPE   C2620272   6.667   3.583   9.917 -0.0424  0.3834 -0.1305
  178SOPE   H6R20273   6.578   3.546   9.861  0.8401  0.8206 -1.8907
  178SOPE   H6S20274   6.656   3.690   9.941 -3.3456 -0.1967  1.4776
  178SOPE   C2720275   6.795   3.560   9.836  0.1049  0.2176 -0.0656
  178SOPE   H7R20276   6.876   3.629   9.868  2.7977 -2.3843 -0.8715
  178SOPE   H7S20277   6.834   3.457   9.854  0.3396  0.3830  0.3818
  178SOPE   C2820278   6.773   3.585   9.684 -0.3689  0.8737 -0.0528
  178SOPE   H8R20279   6.866   3.547   9.636 -1.2976 -0.5283 -0.8396
  178SOPE   H8S20280   6.691   3.520   9.646 -0.6008  2.9505 -3.4997
  178SOPE   C2920281   6.755   3.735   9.652  0.5265 -0.5546  0.2640
  178SOPE   H9120282   6.673   3.788   9.702  0.8404  1.1458 -0.9221
  178SOPE  C21020283   6.820   3.815   9.565  0.5332 -0.4855 -0.4359
  178SOPE  H10120284   6.789   3.920   9.553  0.1311 -0.5093  0.3415
  178SOPE  C21120285   6.944   3.784   9.480  0.6979 -0.4942 -0.0473
  178SOPE  H11R20286   6.979   3.681   9.502  1.3735 -0.6774 -1.8245
  178SOPE  H11S20287   7.023   3.861   9.499  1.2644 -1.5202  2.1334
  178SOPE  C21220288   6.916   3.787   9.328 -0.9542  0.0931  0.1981
  178SOPE  H12R20289   6.892   3.889   9.291  1.5062 -0.4873 -3.4625
  178SOPE  H12S20290   6.831   3.719   9.307 -0.6593  0.1309 -1.1902
  178SOPE  C21320291   7.028   3.723   9.244  0.3824  0.3683  0.7023
  178SOPE  H13R20292   7.041   3.616   9.273  2.2787 -0.2608 -2.1274
  178SOPE  H13S20293   7.129   3.759   9.270  1.4822 -1.5796 -0.6115
  178SOPE  C21420294   7.009   3.747   9.087  0.8723  0.2340 -0.4247
  178SOPE  H14R20295   7.026   3.854   9.062 -0.6286  0.3384 -1.1530
  178SOPE  H14S20296   6.902   3.738   9.059  0.8483  0.6768 -0.4829
  178SOPE  C21520297   7.095   3.666   8.989 -0.2790 -0.1361 -0.5589
  178SOPE  H15R20298   7.069   3.558   9.001 -0.6354 -0.1969 -1.7000
  178SOPE  H15S20299   7.199   3.684   9.023  0.3826 -0.3426 -2.3451
  178SOPE  C21620300   7.069   3.707   8.845 -0.1413  0.2977  0.4157
  178SOPE  H16R20301   7.098   3.813   8.835 -0.2175  0.2583 -0.2844
  178SOPE  H16S20302   6.962   3.691   8.818  0.3493 -2.2957 -0.2454
  178SOPE  C21720303   7.170   3.654   8.740  0.1313 -0.9558  0.4167
  178SOPE  H17R20304   7.163   3.543   8.738 -0.3218 -0.9268  0.3160
  178SOPE  H17S20305   7.269   3.694   8.770 -0.3817 -0.7235  1.8372
  178SOPE  C21820306   7.144   3.704   8.597 -0.3339 -0.0021 -0.6348
  178SOPE  H18R20307   7.213   3.648   8.530 -0.7672 -2.3790  0.8142
  178SOPE  H18S20308   7.155   3.814   8.584 -1.5278  0.0136 -1.6084
  178SOPE  H18T20309   7.042   3.671   8.569 -1.2072  2.1039 -0.1493
  178SOPE   C3320310   6.467   2.827  10.206  0.4119  0.3455  0.6196
  178SOPE   H3X20311   6.408   2.737  10.179 -0.4504  1.1347 -0.1712
  178SOPE   H3Y20312   6.571   2.802  10.175  0.6954  0.2889  1.5584
  178SOPE   C3420313   6.406   2.942  10.111 -0.5769  0.1827  0.4475
  178SOPE   H4X20314   6.460   3.032  10.145  1.6691 -1.1301  0.5489
  178SOPE   H4Y20315   6.297   2.961  10.114 -0.4287  1.8756 -1.7711
  178SOPE   C3520316   6.440   2.923   9.957  0.3377  0.0904  0.1741
  178SOPE   H5X20317   6.545   2.886   9.955  0.2888 -0.0581  0.3485
  178SOPE   H5Y20318   6.431   3.016   9.896  1.0883 -0.4636 -0.8179
  178SOPE   C3620319   6.355   2.815   9.888 -0.0002 -0.0382  0.6715
  178SOPE   H6X20320   6.248   2.844   9.883 -0.6983 -2.5591 -1.4921
  178SOPE   H6Y20321   6.360   2.740   9.970  0.0346  1.0346  1.6768
  178SOPE   C3720322   6.409   2.752   9.764 -0.0283  0.5721 -0.1589
  178SOPE   H7X20323   6.331   2.677   9.739  0.4178 -1.0609  2.9653
  178SOPE   H7Y20324   6.499   2.690   9.782 -0.2966  0.5146  1.0186
  178SOPE   C3820325   6.432   2.848   9.650 -0.7849  0.9805 -0.5090
  178SOPE   H8X20326   6.494   2.930   9.692 -0.4325 -0.1519  1.3100
  178SOPE   H8Y20327   6.343   2.910   9.628 -0.2539  2.8330  2.1363
  178SOPE   C3920328   6.486   2.777   9.523  0.4137 -0.1049 -0.2969
  178SOPE   H9X20329   6.403   2.708   9.495 -0.6998  1.3686 -0.7023
  178SOPE   H9Y20330   6.575   2.714   9.547  1.8287  2.1192  0.5410
  178SOPE  C31020331   6.511   2.882   9.421 -0.2316  0.2070 -0.1204
  178SOPE  H10X20332   6.588   2.951   9.461 -1.5467  0.4498  2.2131
  178SOPE  H10Y20333   6.425   2.948   9.394 -2.5069 -2.4419  0.1448
  178SOPE  C31120334   6.567   2.832   9.287  0.3566 -0.5665 -0.3886
  178SOPE  H11X20335   6.496   2.762   9.237  2.4089 -0.9453 -3.0086
  178SOPE  H11Y20336   6.661   2.776   9.308  1.7618  1.9746  0.4834
  178SOPE  C31220337   6.611   2.942   9.181 -0.1813  0.8989 -0.4524
  178SOPE  H12X20338   6.642   2.898   9.084 -2.3598  0.1623 -0.8739
  178SOPE  H12Y20339   6.694   3.008   9.216  0.8593 -2.0809  3.3780
  178SOPE  C31320340   6.491   3.032   9.144  0.0598 -0.8241 -0.2059
  178SOPE  H13X20341   6.462   3.098   9.228 -1.7087  0.0045 -1.4048
  178SOPE  H13Y20342   6.409   2.958   9.132  0.0008 -0.6102 -1.2514
  178SOPE  C31420343   6.488   3.121   9.016  0.4537  0.9518 -0.4227
  178SOPE  H14X20344   6.509   3.057   8.928  2.0654  0.2886  0.4056
  178SOPE  H14Y20345   6.567   3.199   9.027  0.5915  0.7242  0.2984
  178SOPE  C31520346   6.354   3.200   8.989 -1.0159  0.7360  0.0648
  178SOPE  H15X20347   6.344   3.280   9.064  2.8384 -0.0327  1.6446
  178SOPE  H15Y20348   6.273   3.127   9.010  0.3330 -0.9463 -0.2811
  178SOPE  C31620349   6.328   3.258   8.850  0.2121 -0.4378 -0.0066
  178SOPE  H16X20350   6.354   3.171   8.786  3.5885 -0.7209  1.5689
  178SOPE  H16Y20351   6.396   3.340   8.821 -2.5213  2.2832  0.7018
  178SOPE  C31720352   6.185   3.310   8.819  0.0354  0.3598 -0.2595
  178SOPE  H17X20353   6.169   3.405   8.874 -3.1955  0.5748 -1.3723
  178SOPE  H17Y20354   6.125   3.224   8.856 -0.5784 -0.1011 -2.1717
  178SOPE  C31820355   6.154   3.331   8.671 -0.2764  0.1299 -0.4261
  178SOPE  H18X20356   6.047   3.358   8.655  0.2168  2.7111  0.1646
  178SOPE  H18Y20357   6.181   3.234   8.623  1.0628 -0.3789  1.2638
  178SOPE  H18Z20358   6.210   3.416   8.629  1.0450 -0.4003  0.2269
  179SOPE     N20359   3.590   5.473   6.482  0.3984 -0.1394 -0.2576
  179SOPE   HN120360   3.534   5.415   6.416 -0.3336 -0.5118  0.6766
  179SOPE   HN220361   3.579   5.574   6.462 -2.1956 -0.4350 -0.7121
  179SOPE   HN320362   3.693   5.465   6.471  0.4086 -2.9885  0.9575
  179SOPE   C1220363   3.553   5.436   6.625  0.6705  0.2536 -0.7749
  179SOPE  H12A20364   3.525   5.331   6.648  1.8476 -0.2105 -1.4073
  179SOPE  H12B20365   3.475   5.509   6.653  0.4853  0.6723 -2.3271
  179SOPE   C1120366   3.671   5.470   6.730  0.7855 -0.0937 -0.6855
  179SOPE  H11A20367   3.630   5.463   6.833  1.0180 -1.1997 -0.6574
  179SOPE  H11B20368   3.709   5.575   6.729  0.5230  0.1649  3.0777
  179SOPE     P20369   3.908   5.417   6.628 -0.3000 -0.0594 -0.1748
  179SOPE   O1320370   3.861   5.465   6.502 -0.2125  0.7813  0.2814
  179SOPE   O1420371   4.015   5.310   6.623  0.3256 -0.0505  0.1727
  179SOPE   O1220372   3.779   5.369   6.713 -0.3913  0.0451 -0.1448
  179SOPE   O1120373   3.969   5.536   6.703  0.3939  0.3190 -0.7089
  179SOPE    C120374   3.974   5.547   6.849  0.5614  0.2646 -0.7020
  179SOPE    HA20375   3.891   5.498   6.906  0.7926  0.2620 -0.3668
  179SOPE    HB20376   3.969   5.657   6.865  1.6298  0.1481  0.5642
  179SOPE    C220377   4.093   5.487   6.920 -0.3992 -0.0389  0.1998
  179SOPE    HS20378   4.102   5.377   6.930  1.0949  0.0352 -0.0981
  179SOPE   O2120379   4.095   5.550   7.045 -0.5492 -0.3968 -0.4864
  179SOPE   C2120380   4.032   5.482   7.141  0.6241 -0.6234 -0.1695
  179SOPE   O2220381   3.963   5.379   7.120  0.4317 -0.0580  0.0560
  179SOPE   C2220382   4.056   5.553   7.278 -0.1903 -0.0659 -0.2299
  179SOPE   H2R20383   4.006   5.652   7.266  2.7521  1.6167  0.3408
  179SOPE   H2S20384   4.166   5.565   7.286 -0.2096 -0.8139  1.4540
  179SOPE    C320385   4.225   5.520   6.841  0.2073 -0.7150  0.6218
  179SOPE    HX20386   4.218   5.628   6.818 -0.0813 -1.1001 -1.2505
  179SOPE    HY20387   4.235   5.476   6.739 -1.8114  2.2663 -0.9941
  179SOPE   O3120388   4.340   5.482   6.925 -0.9556 -0.2764  0.0155
  179SOPE   C3120389   4.392   5.580   7.003 -0.7361 -0.8818  0.7794
  179SOPE   O3220390   4.344   5.689   7.019 -0.0662 -0.2642  0.1467
  179SOPE   C3220391   4.534   5.541   7.048  0.2597  0.0595  0.1594
  179SOPE   H2X20392   4.602   5.568   6.965  1.0949 -1.1042  0.4396
  179SOPE   H2Y20393   4.539   5.430   7.053 -0.8727  0.0354  1.3415
  179SOPE   C2320394   3.997   5.474   7.395 -0.3249 -0.6133  0.2799
  179SOPE   H3R20395   4.040   5.373   7.413  0.2507 -0.7211 -1.5267
  179SOPE   H3S20396   3.888   5.450   7.387 -0.1106 -1.4516 -0.2159
  179SOPE   C2420397   4.029   5.545   7.526  0.1307 -0.1379 -0.7000
  179SOPE   H4R20398   4.140   5.541   7.537  0.2610 -1.6813 -2.1045
  179SOPE   H4S20399   4.002   5.652   7.522 -0.2608 -0.1795  0.4100
  179SOPE   C2520400   3.964   5.470   7.643 -0.0409  0.1598  1.0211
  179SOPE   H5R20401   3.864   5.518   7.645  0.7795  2.0865 -0.9885
  179SOPE   H5S20402   3.936   5.366   7.616 -0.3345  0.5425 -0.1756
  179SOPE   C2620403   4.033   5.471   7.785  0.4669 -0.5634  0.9025
  179SOPE   H6R20404   4.121   5.404   7.787 -0.6673 -2.1675  0.0376
  179SOPE   H6S20405   4.061   5.578   7.787 -1.0763  0.4140 -5.8323
  179SOPE   C2720406   3.929   5.415   7.890  0.2398 -0.2407 -0.0250
  179SOPE   H7R20407   3.835   5.472   7.900  0.6149  0.3771  0.0473
  179SOPE   H7S20408   3.890   5.323   7.842 -0.9492  0.5781 -0.6556
  179SOPE   C2820409   3.992   5.388   8.021 -0.1345  0.0329  0.4818
  179SOPE   H8R20410   3.915   5.346   8.088 -1.2463  0.6168 -0.3978
  179SOPE   H8S20411   4.070   5.311   8.007 -0.3504 -0.2598  0.8897
  179SOPE   C2920412   4.048   5.524   8.062  0.4262 -0.1794 -0.4455
  179SOPE   H9120413   4.152   5.550   8.036  0.0380  1.4479 -0.4686
  179SOPE  C21020414   3.976   5.621   8.128 -0.5893 -0.6097 -0.1510
  179SOPE  H10120415   4.029   5.715   8.150 -1.1519  0.0990 -1.6632
  179SOPE  C21120416   3.831   5.611   8.179 -0.6131 -0.0271  0.7274
  179SOPE  H11R20417   3.784   5.517   8.143 -0.6073 -0.6173  2.1891
  179SOPE  H11S20418   3.764   5.687   8.134  0.0205  0.1836  0.1252
  179SOPE  C21220419   3.817   5.618   8.334 -0.0478 -0.2465 -0.0271
  179SOPE  H12R20420   3.707   5.621   8.353 -0.0622 -2.6419  0.5006
  179SOPE  H12S20421   3.855   5.718   8.364 -1.4874  0.4921 -0.5748
  179SOPE  C21320422   3.881   5.508   8.406  0.3135 -0.1538  1.0852
  179SOPE  H13R20423   3.986   5.507   8.369 -0.9161 -1.1985 -2.8316
  179SOPE  H13S20424   3.830   5.413   8.381  0.1409  0.4501 -1.0711
  179SOPE  C21420425   3.886   5.515   8.554 -0.4580  0.1026  0.0961
  179SOPE  H14R20426   3.781   5.524   8.590  0.0778  1.1615  1.4760
  179SOPE  H14S20427   3.932   5.614   8.573  2.2780 -1.0027 -0.3587
  179SOPE  C21520428   3.970   5.406   8.619  0.0848 -0.2391 -0.3765
  179SOPE  H15R20429   3.998   5.433   8.722  0.2591 -2.0309  0.0774
  179SOPE  H15S20430   4.067   5.416   8.566  0.5061  1.2878  0.6416
  179SOPE  C21620431   3.901   5.276   8.631  0.2152  0.3543  0.4968
  179SOPE  H16R20432   3.852   5.238   8.538  1.4876 -0.5807  0.1771
  179SOPE  H16S20433   3.817   5.298   8.700  1.1387  2.2439  1.0729
  179SOPE  C21720434   3.976   5.162   8.691 -0.8367  0.0348  0.0472
  179SOPE  H17R20435   3.901   5.101   8.746 -0.2852 -0.1332  0.6256
  179SOPE  H17S20436   4.060   5.197   8.754 -1.1959 -0.5785  0.8820
  179SOPE  C21820437   4.029   5.062   8.584 -0.6918 -0.5728 -0.1500
  179SOPE  H18R20438   4.089   5.120   8.512 -0.2280  0.0720  0.7306
  179SOPE  H18S20439   3.955   4.999   8.529  0.9367 -1.0774 -1.8562
  179SOPE  H18T20440   4.101   4.990   8.629  1.8555  0.6585 -2.0371
  179SOPE   C3320441   4.573   5.599   7.181 -0.2425  0.4526 -0.8860
  179SOPE   H3X20442   4.544   5.704   7.203  1.2763  0.6223  0.5133
  179SOPE   H3Y20443   4.683   5.614   7.187 -0.1990 -0.1614 -0.0529
  179SOPE   C3420444   4.508   5.517   7.298  0.3748 -0.3824 -0.1154
  179SOPE   H4X20445   4.555   5.417   7.304 -0.8647 -0.8641  3.4970
  179SOPE   H4Y20446   4.398   5.508   7.285  0.4936 -0.6327 -1.0306
  179SOPE   C3520447   4.530   5.596   7.430 -0.0398 -0.4502 -0.2283
  179SOPE   H5X20448   4.471   5.691   7.435  0.9644  0.1189  2.6728
  179SOPE   H5Y20449   4.635   5.631   7.427 -0.7997  1.9999 -0.3392
  179SOPE   C3620450   4.498   5.513   7.552 -0.0503 -0.1951  0.2654
  179SOPE   H6X20451   4.568   5.427   7.550  0.1003 -0.0907  0.8010
  179SOPE   H6Y20452   4.394   5.475   7.546  0.7124 -2.6537  1.3780
  179SOPE   C3720453   4.520   5.581   7.684 -0.3074  0.6111  1.2316
  179SOPE   H7X20454   4.457   5.673   7.676  1.4068  2.0326  3.0166
  179SOPE   H7Y20455   4.625   5.615   7.698  0.0815 -0.3164  0.6587
  179SOPE   C3820456   4.472   5.504   7.809  0.4464  0.1299  0.0290
  179SOPE   H8X20457   4.372   5.459   7.792  0.2936  1.6029 -4.3912
  179SOPE   H8Y20458   4.458   5.586   7.883 -2.1529 -0.3952  0.2207
  179SOPE   C3920459   4.574   5.419   7.869 -0.5342 -0.0344 -0.1691
  179SOPE   H9X20460   4.667   5.480   7.876 -0.7225  0.5109 -1.9985
  179SOPE   H9Y20461   4.608   5.337   7.804  0.1701 -0.0625  0.2268
  179SOPE  C31020462   4.518   5.384   8.005  0.1671 -0.7366 -0.0773
  179SOPE  H10X20463   4.414   5.347   7.993 -0.8435  1.6786  0.5817
  179SOPE  H10Y20464   4.506   5.464   8.081  1.5585  1.1589 -1.7866
  179SOPE  C31120465   4.599   5.271   8.071 -0.3692 -0.2248 -0.4529
  179SOPE  H11X20466   4.704   5.307   8.079 -0.7938  0.5885  4.8718
  179SOPE  H11Y20467   4.585   5.177   8.013  3.7280 -0.5125 -1.2376
  179SOPE  C31220468   4.547   5.234   8.215 -0.1386 -0.1282 -0.4553
  179SOPE  H12X20469   4.453   5.175   8.216  0.2551 -0.7867  0.9612
  179SOPE  H12Y20470   4.507   5.331   8.250 -0.0985  0.3605 -1.7075
  179SOPE  C31320471   4.652   5.177   8.308  0.4899  0.0612  0.1254
  179SOPE  H13X20472   4.732   5.116   8.260 -0.7560 -0.5803 -1.2070
  179SOPE  H13Y20473   4.601   5.104   8.374 -0.8973 -0.5620 -1.5599
  179SOPE  C31420474   4.718   5.278   8.400 -0.2778 -0.3347 -0.3655
  179SOPE  H14X20475   4.633   5.335   8.442  0.2476 -0.3476  0.7404
  179SOPE  H14Y20476   4.764   5.351   8.330  0.5701 -1.7094 -1.2881
  179SOPE  C31520477   4.824   5.228   8.492 -0.2683 -0.2487  0.6897
  179SOPE  H15X20478   4.803   5.126   8.530  2.4065 -1.1346 -0.0163
  179SOPE  H15Y20479   4.832   5.299   8.577 -2.2640  0.8084  0.0665
  179SOPE  C31620480   4.965   5.249   8.432 -0.3747  0.1689 -0.1280
  179SOPE  H16X20481   4.967   5.353   8.393  1.2971 -0.4186 -1.7511
  179SOPE  H16Y20482   4.987   5.175   8.351  2.5215  0.6549  0.1089
  179SOPE  C31720483   5.084   5.225   8.530 -0.0114 -0.1641 -0.3709
  179SOPE  H17X20484   5.083   5.303   8.609  1.2386 -1.7360  1.3086
  179SOPE  H17Y20485   5.188   5.234   8.490  0.8449  0.5370  1.8339
  179SOPE  C31820486   5.074   5.101   8.609 -0.5647 -0.1414  0.6519
  179SOPE  H18X20487   5.045   5.013   8.547  2.6846 -2.0601  1.6267
  179SOPE  H18Y20488   4.999   5.119   8.689 -0.6492  0.3475  0.4643
  179SOPE  H18Z20489   5.167   5.089   8.667 -1.7641 -0.8327  2.5473
  180SOPE     N20490   3.989   5.061   6.540  0.2237  0.2387 -0.4809
  180SOPE   HN120491   4.062   5.050   6.467  0.3014  0.3119 -0.4144
  180SOPE   HN220492   3.906   5.061   6.478  1.8859  0.4552 -2.8486
  180SOPE   HN320493   4.005   5.151   6.588  2.7611  0.3958 -1.4672
  180SOPE   C1220494   3.981   4.948   6.633  0.8710  0.8532 -0.1229
  180SOPE  H12A20495   3.896   4.965   6.702  0.3968  0.3509 -0.5787
  180SOPE  H12B20496   4.077   4.942   6.689 -0.3179 -1.0720  1.8983
  180SOPE   C1120497   3.953   4.819   6.559 -0.0796  0.0718  0.0007
  180SOPE  H11A20498   3.853   4.831   6.512 -0.6632 -0.5840  1.0589
  180SOPE  H11B20499   3.957   4.733   6.629 -1.3623  0.4162  0.5149
  180SOPE     P20500   4.086   4.688   6.370  0.0422  0.2354  0.2552
  180SOPE   O1320501   4.090   4.721   6.225 -0.2313 -0.0380 -0.0808
  180SOPE   O1420502   3.993   4.579   6.407 -0.6788 -0.2895  0.0535
  180SOPE   O1220503   4.044   4.814   6.452 -0.5881 -0.3059  0.0979
  180SOPE   O1120504   4.236   4.651   6.421  0.6648  0.2065  0.0881
  180SOPE    C120505   4.280   4.688   6.558  0.2968 -0.3199 -0.2868
  180SOPE    HA20506   4.252   4.793   6.580 -3.6070 -1.2428 -0.2427
  180SOPE    HB20507   4.391   4.691   6.561  0.3483  0.9402 -1.8169
  180SOPE    C220508   4.239   4.593   6.669  0.0856 -0.5413  0.1043
  180SOPE    HS20509   4.130   4.610   6.686  0.5768  0.8917  2.2253
  180SOPE   O2120510   4.314   4.623   6.793 -0.0713 -0.0561 -0.1506
  180SOPE   C2120511   4.262   4.720   6.862  0.2786 -0.2497 -0.9936
  180SOPE   O2220512   4.160   4.788   6.841 -0.1795  0.7750  0.8605
  180SOPE   C2220513   4.341   4.720   6.998 -0.3322 -0.0319 -0.5771
  180SOPE   H2R20514   4.449   4.742   6.982  0.4491 -0.1774  3.3797
  180SOPE   H2S20515   4.325   4.615   7.031 -0.6268 -0.1481 -1.0749
  180SOPE    C320516   4.259   4.446   6.625 -0.6307  0.1721 -0.5198
  180SOPE    HX20517   4.362   4.443   6.581 -0.9911  0.9581 -1.4653
  180SOPE    HY20518   4.198   4.414   6.538  0.8297 -1.7065 -0.9304
  180SOPE   O3120519   4.247   4.352   6.738  0.2370  0.0502 -0.2871
  180SOPE   C3120520   4.122   4.311   6.769 -0.3548  0.1015  0.9471
  180SOPE   O3220521   4.022   4.347   6.712  0.0421 -0.1811  0.4952
  180SOPE   C3220522   4.122   4.231   6.901 -0.0026 -0.0584  0.0395
  180SOPE   H2X20523   4.230   4.219   6.923 -0.1991  0.0050  1.0982
  180SOPE   H2Y20524   4.078   4.130   6.885 -0.8550 -0.1678  2.6692
  180SOPE   C2320525   4.294   4.827   7.104 -0.1298 -0.0980  0.1846
  180SOPE   H3R20526   4.235   4.905   7.050  2.2157  0.7799 -1.2777
  180SOPE   H3S20527   4.386   4.877   7.139  1.6892 -0.8596 -3.0481
  180SOPE   C2420528   4.228   4.760   7.228 -0.9085 -0.1736 -0.4812
  180SOPE   H4R20529   4.290   4.680   7.273 -0.0105  1.1370  0.7247
  180SOPE   H4S20530   4.221   4.845   7.300  0.8241 -1.3221  1.1387
  180SOPE   C2520531   4.084   4.705   7.214  0.4458 -0.1111  0.0898
  180SOPE   H5R20532   4.041   4.783   7.148 -1.0983 -2.0349 -1.3006
  180SOPE   H5S20533   4.081   4.612   7.153  0.1988 -0.2219  0.2670
  180SOPE   C2620534   4.004   4.679   7.340  0.3723 -0.0234 -0.4172
  180SOPE   H6R20535   4.038   4.591   7.399  0.8207  0.3078 -0.1729
  180SOPE   H6S20536   4.008   4.768   7.406 -3.2578 -0.9438  1.2861
  180SOPE   C2720537   3.856   4.671   7.302  0.0702 -0.0748  0.8567
  180SOPE   H7R20538   3.813   4.765   7.261 -2.6962 -2.0063 -1.0452
  180SOPE   H7S20539   3.849   4.608   7.211 -2.7099  1.6526 -0.2610
  180SOPE   C2820540   3.761   4.612   7.412 -0.0114  0.0679  0.3202
  180SOPE   H8R20541   3.826   4.534   7.456  0.5663 -0.6218 -1.6610
  180SOPE   H8S20542   3.744   4.686   7.493 -1.5281 -1.3912  1.3984
  180SOPE   C2920543   3.642   4.550   7.335 -0.0337  0.2692 -0.2781
  180SOPE   H9120544   3.666   4.454   7.288  0.2318 -0.0147  0.4261
  180SOPE  C21020545   3.525   4.614   7.317 -0.1278 -0.3302 -0.1430
  180SOPE  H10120546   3.451   4.573   7.247 -1.8181  2.0374  0.1297
  180SOPE  C21120547   3.487   4.753   7.366  0.5889 -0.0956 -0.4022
  180SOPE  H11R20548   3.411   4.802   7.300  0.4419  1.2351  0.7259
  180SOPE  H11S20549   3.574   4.822   7.357 -0.3776  1.0362 -1.7169
  180SOPE  C21220550   3.416   4.757   7.503  0.2429 -1.0648 -0.6184
  180SOPE  H12R20551   3.497   4.724   7.571  1.9702  1.7489 -1.1074
  180SOPE  H12S20552   3.334   4.682   7.503  1.0604 -2.0587  2.0169
  180SOPE  C21320553   3.365   4.900   7.547  0.9091 -0.1897  0.3001
  180SOPE  H13R20554   3.285   4.947   7.485 -2.1820 -1.7451  2.8488
  180SOPE  H13S20555   3.457   4.961   7.534  1.3314 -1.2112 -1.9654
  180SOPE  C21420556   3.307   4.888   7.689 -0.4357 -0.4815 -1.0110
  180SOPE  H14R20557   3.392   4.868   7.757 -0.4763  0.6922 -0.5910
  180SOPE  H14S20558   3.230   4.809   7.697  1.3938 -2.1817  1.0525
  180SOPE  C21520559   3.254   5.030   7.731 -0.1487  0.8343 -0.0685
  180SOPE  H15R20560   3.178   5.063   7.658 -0.0701 -0.4383 -0.7512
  180SOPE  H15S20561   3.338   5.102   7.718 -1.3394  2.2454 -0.2000
  180SOPE  C21620562   3.194   5.042   7.879 -0.4231  0.0262  0.2969
  180SOPE  H16R20563   3.098   4.991   7.901 -0.3536 -0.1446  0.2088
  180SOPE  H16S20564   3.176   5.151   7.890  0.3716  0.0815  1.2169
  180SOPE  C21720565   3.298   5.010   7.992 -0.0190 -0.9944  0.0722
  180SOPE  H17R20566   3.369   5.096   7.988 -1.1782 -0.0316 -0.1943
  180SOPE  H17S20567   3.341   4.909   7.969  0.6587 -0.5278 -0.7850
  180SOPE  C21820568   3.234   4.991   8.128 -0.2454 -0.1250 -0.1743
  180SOPE  H18R20569   3.187   5.090   8.149 -1.1049 -0.0241 -2.3147
  180SOPE  H18S20570   3.316   4.970   8.200  0.6475 -0.0820 -1.1502
  180SOPE  H18T20571   3.156   4.912   8.123  0.0539 -0.6462  2.4152
  180SOPE   C3320572   4.061   4.299   7.028  0.8392 -0.3262  0.7032
  180SOPE   H3X20573   3.953   4.275   7.033  0.4697  0.9590 -0.4215
  180SOPE   H3Y20574   4.060   4.409   7.009 -0.5227 -0.5974 -1.1210
  180SOPE   C3420575   4.134   4.273   7.161 -0.4177 -0.6593  0.3896
  180SOPE   H4X20576   4.116   4.177   7.214  1.1686 -1.6272 -0.7455
  180SOPE   H4Y20577   4.092   4.347   7.232 -0.7764  0.9690 -1.4283
  180SOPE   C3520578   4.285   4.295   7.159 -0.0214 -0.5442 -0.3796
  180SOPE   H5X20579   4.300   4.389   7.102 -2.6240  1.2054  1.5972
  180SOPE   H5Y20580   4.334   4.218   7.095 -2.8687 -2.3695 -0.5210
  180SOPE   C3620581   4.342   4.314   7.295  0.7717 -0.8313 -0.4786
  180SOPE   H6X20582   4.311   4.241   7.373  1.3298 -1.9939 -1.3303
  180SOPE   H6Y20583   4.313   4.411   7.342  3.0813  0.6246 -1.8718
  180SOPE   C3720584   4.493   4.337   7.275 -0.6467 -0.9761 -0.0954
  180SOPE   H7X20585   4.513   4.416   7.200  2.0991 -1.5905 -0.1268
  180SOPE   H7Y20586   4.532   4.249   7.220 -0.7146 -0.5088 -0.9036
  180SOPE   C3820587   4.578   4.354   7.403  0.3200 -0.0233  0.3462
  180SOPE   H8X20588   4.504   4.317   7.476 -0.6214 -1.4417 -1.2424
  180SOPE   H8Y20589   4.601   4.461   7.421  2.6321 -0.6997  1.7899
  180SOPE   C3920590   4.697   4.269   7.400  0.2721 -0.3459  0.0157
  180SOPE   H9X20591   4.761   4.301   7.315  2.2924  0.3982  1.7444
  180SOPE   H9Y20592   4.675   4.163   7.376  1.2255 -0.2185 -1.5502
  180SOPE  C31020593   4.770   4.262   7.537 -0.2114 -0.6846  0.2145
  180SOPE  H10X20594   4.866   4.208   7.530  1.1480  1.4362  1.4350
  180SOPE  H10Y20595   4.705   4.201   7.603  0.4306 -2.0181 -0.3450
  180SOPE  C31120596   4.798   4.404   7.606  1.0146 -0.1851  0.6290
  180SOPE  H11X20597   4.705   4.432   7.659  1.0072 -1.2809  1.2108
  180SOPE  H11Y20598   4.839   4.483   7.539 -0.7751  0.9296  0.7864
  180SOPE  C31220599   4.910   4.390   7.715  0.3673 -0.4928  0.3712
  180SOPE  H12X20600   5.006   4.350   7.676  0.8144 -0.0111  0.9527
  180SOPE  H12Y20601   4.876   4.316   7.790  0.6214  0.2772  1.2691
  180SOPE  C31320602   4.923   4.529   7.785 -0.4114  0.1218 -0.7225
  180SOPE  H13X20603   4.827   4.565   7.828  0.6893  3.0724 -0.5463
  180SOPE  H13Y20604   4.945   4.607   7.709  2.1860  1.2925  1.1042
  180SOPE  C31420605   5.032   4.526   7.887 -0.1867  0.4864  0.3159
  180SOPE  H14X20606   5.128   4.515   7.832  0.4104  3.3533  0.6769
  180SOPE  H14Y20607   5.032   4.430   7.943  0.1304 -0.0971 -0.6531
  180SOPE  C31520608   5.044   4.649   7.975 -0.5333 -0.0182 -0.1614
  180SOPE  H15X20609   4.949   4.688   8.017 -1.0233  1.0999 -2.1513
  180SOPE  H15Y20610   5.089   4.730   7.912  1.4148 -1.2372 -0.4181
  180SOPE  C31620611   5.131   4.638   8.098  0.4970 -0.4533 -0.3579
  180SOPE  H16X20612   5.082   4.577   8.176 -0.5468 -2.1125 -2.2156
  180SOPE  H16Y20613   5.134   4.741   8.139  0.0963  0.5159 -2.6047
  180SOPE  C31720614   5.276   4.594   8.072 -0.0236 -0.0628 -0.3356
  180SOPE  H17X20615   5.275   4.488   8.036 -1.7728  0.4655 -2.0642
  180SOPE  H17Y20616   5.339   4.596   8.164  2.1161  0.1768 -1.7318
  180SOPE  C31820617   5.354   4.677   7.967 -0.0646 -0.3140  0.0024
  180SOPE  H18X20618   5.305   4.683   7.867 -1.3784  2.6583  0.7276
  180SOPE  H18Y20619   5.453   4.631   7.947  0.3945  0.2848  0.8120
  180SOPE  H18Z20620   5.366   4.784   7.993 -4.1137  0.7534 -1.6886
  181SOPE     N20621   0.755   1.911   6.020  0.5799  0.3136 -0.0738
  181SOPE   HN120622   0.840   1.965   6.043 -0.0852  0.5904  1.9316
  181SOPE   HN220623   0.733   1.910   5.918 -3.1198  1.0110  0.5470
  181SOPE   HN320624   0.680   1.976   6.052  0.7515 -0.4320  2.0396
  181SOPE   C1220625   0.752   1.772   6.076  0.1281 -0.2392 -0.5444
  181SOPE  H12A20626   0.742   1.694   5.998 -1.4239 -1.8042  1.1282
  181SOPE  H12B20627   0.665   1.766   6.145  1.1948  1.0507  0.9758
  181SOPE   C1120628   0.875   1.757   6.168 -1.0689 -0.4838  0.3285
  181SOPE  H11A20629   0.862   1.658   6.218 -0.8092 -0.3355  0.6914
  181SOPE  H11B20630   0.885   1.831   6.250  1.9615 -1.6790  1.2017
  181SOPE     P20631   1.124   1.671   6.134 -0.2709  0.1471  0.2841
  181SOPE   O1320632   1.235   1.718   6.047 -0.1419  0.1617 -0.1918
  181SOPE   O1420633   1.085   1.526   6.139 -0.2738  0.3214 -0.5722
  181SOPE   O1220634   0.998   1.758   6.091  0.4741  0.1537  0.1694
  181SOPE   O1120635   1.145   1.716   6.283  0.0655  0.6184 -0.3735
  181SOPE    C120636   1.223   1.644   6.374  0.1214 -0.4484 -0.4224
  181SOPE    HA20637   1.331   1.664   6.355 -0.3131  2.6856 -0.0286
  181SOPE    HB20638   1.197   1.537   6.356 -0.7194 -0.5132  1.0798
  181SOPE    C220639   1.174   1.671   6.516 -0.5244  0.1851 -0.2608
  181SOPE    HS20640   1.185   1.780   6.534 -1.7085  0.1327  0.9353
  181SOPE   O2120641   1.244   1.595   6.618 -0.0270  0.3633 -0.0424
  181SOPE   C2120642   1.373   1.618   6.616  0.0532  0.8528  0.3250
  181SOPE   O2220643   1.426   1.717   6.568  0.1756 -0.2312  0.2063
  181SOPE   C2220644   1.439   1.510   6.698  0.4931  0.2091  0.6921
  181SOPE   H2R20645   1.549   1.518   6.685  0.3692  0.5373 -0.2548
  181SOPE   H2S20646   1.407   1.414   6.652 -1.5485  0.4636  1.4731
  181SOPE    C320647   1.015   1.648   6.531 -0.0293  0.5934 -0.3416
  181SOPE    HX20648   0.993   1.539   6.536 -0.2290  0.6559  0.1498
  181SOPE    HY20649   0.963   1.687   6.441 -0.2071 -0.4652 -0.7134
  181SOPE   O3120650   0.978   1.724   6.649 -0.9410  0.4429  0.5168
  181SOPE   C3120651   0.863   1.691   6.712  0.0945  0.2593  1.2954
  181SOPE   O3220652   0.780   1.621   6.654  0.3912 -0.7817 -0.4188
  181SOPE   C3220653   0.848   1.756   6.842  0.3203  0.6456 -0.4081
  181SOPE   H2X20654   0.820   1.863   6.838  0.2610  0.6450 -0.0421
  181SOPE   H2Y20655   0.954   1.762   6.873  0.4498  1.7640 -1.0088
  181SOPE   C2320656   1.396   1.513   6.845 -0.2150  0.6030 -0.5317
  181SOPE   H3R20657   1.286   1.517   6.853 -0.4534 -2.5170 -0.9684
  181SOPE   H3S20658   1.448   1.593   6.903  1.5610 -0.3691 -0.6898
  181SOPE   C2420659   1.440   1.384   6.924  0.2374 -0.5019  0.8031
  181SOPE   H4R20660   1.393   1.296   6.875 -1.6198  1.4036 -1.0240
  181SOPE   H4S20661   1.547   1.361   6.943  0.2964 -1.5782 -0.6749
  181SOPE   C2520662   1.387   1.392   7.069  0.2891  0.2941 -0.0245
  181SOPE   H5R20663   1.279   1.416   7.079  0.4314 -0.0308  3.2483
  181SOPE   H5S20664   1.393   1.286   7.103 -0.3766  0.0359 -0.6812
  181SOPE   C2620665   1.475   1.468   7.179 -0.0508 -0.3036 -0.1972
  181SOPE   H6R20666   1.575   1.420   7.186  1.2173  1.6686 -2.9511
  181SOPE   H6S20667   1.509   1.565   7.137 -1.1205  0.2745  0.2372
  181SOPE   C2720668   1.415   1.485   7.322  0.0864 -0.5486  0.4348
  181SOPE   H7R20669   1.488   1.546   7.379 -0.3563 -1.4759  2.0657
  181SOPE   H7S20670   1.319   1.540   7.315 -1.0947 -1.9706  3.4662
  181SOPE   C2820671   1.368   1.349   7.379  0.7279  0.4575  0.0235
  181SOPE   H8R20672   1.306   1.362   7.470  2.9097 -1.3592  1.8926
  181SOPE   H8S20673   1.303   1.309   7.298 -0.0345  1.1650  0.2668
  181SOPE   C2920674   1.487   1.259   7.410  0.0729 -0.0283  0.1291
  181SOPE   H9120675   1.518   1.194   7.326  0.3022  0.0369  0.1633
  181SOPE  C21020676   1.547   1.237   7.524 -0.0264  0.0206 -0.2404
  181SOPE  H10120677   1.638   1.176   7.526 -0.7955 -1.3214  3.5353
  181SOPE  C21120678   1.491   1.291   7.653  0.0299 -0.7179  0.1748
  181SOPE  H11R20679   1.399   1.354   7.651  0.3617 -0.2370 -0.0030
  181SOPE  H11S20680   1.559   1.367   7.696 -0.8951 -0.6722  1.5979
  181SOPE  C21220681   1.466   1.167   7.741  0.5747 -0.2110 -0.2112
  181SOPE  H12R20682   1.546   1.090   7.738 -0.6620 -1.5431 -0.0280
  181SOPE  H12S20683   1.385   1.107   7.693  0.9005 -0.7127 -0.1404
  181SOPE  C21320684   1.450   1.206   7.889  0.2413 -0.4585  0.0061
  181SOPE  H13R20685   1.367   1.278   7.905 -0.9332 -1.7025 -0.3294
  181SOPE  H13S20686   1.544   1.254   7.925 -0.2329  1.1296 -0.7884
  181SOPE  C21420687   1.412   1.077   7.969 -0.8312 -0.6382 -0.2614
  181SOPE  H14R20688   1.506   1.018   7.977 -1.3394 -1.4247  0.0357
  181SOPE  H14S20689   1.353   1.011   7.903  1.8409 -2.0502 -1.4076
  181SOPE  C21520690   1.340   1.100   8.102 -0.4295 -0.3759  0.4560
  181SOPE  H15R20691   1.243   1.145   8.073 -0.3009 -0.6753 -0.4476
  181SOPE  H15S20692   1.392   1.177   8.163 -0.3868  1.5036 -1.8034
  181SOPE  C21620693   1.301   0.962   8.161 -0.2581 -1.0275 -0.7077
  181SOPE  H16R20694   1.391   0.897   8.169  1.3729  0.3683 -5.0580
  181SOPE  H16S20695   1.245   0.907   8.083 -0.7894 -0.0892 -1.0134
  181SOPE  C21720696   1.217   0.962   8.289  0.9294 -0.1181  0.3068
  181SOPE  H17R20697   1.122   1.012   8.262  1.8284  3.2090  2.7002
  181SOPE  H17S20698   1.263   1.027   8.366  1.8363  0.9552 -1.0795
  181SOPE  C21820699   1.205   0.831   8.353 -0.2077 -0.1097  0.2506
  181SOPE  H18R20700   1.147   0.832   8.447  0.5564  0.4998  0.7356
  181SOPE  H18S20701   1.308   0.803   8.384  0.8172  1.2003 -1.7378
  181SOPE  H18T20702   1.160   0.755   8.286 -2.1582 -0.0626  1.4327
  181SOPE   C3320703   0.749   1.687   6.936  0.2052 -0.1004 -0.2364
  181SOPE   H3X20704   0.745   1.578   6.919 -1.2258 -0.5359  2.4006
  181SOPE   H3Y20705   0.645   1.726   6.933  0.5909  0.9192 -1.3588
  181SOPE   C3420706   0.797   1.698   7.080  0.7015 -0.5945 -1.5156
  181SOPE   H4X20707   0.851   1.792   7.104  1.7435 -1.5761  0.1874
  181SOPE   H4Y20708   0.872   1.618   7.099  2.0597  1.1783  1.2467
  181SOPE   C3520709   0.679   1.671   7.174  0.0202 -0.7264 -0.1158
  181SOPE   H5X20710   0.647   1.565   7.172 -2.0932 -0.1225 -0.0437
  181SOPE   H5Y20711   0.599   1.743   7.146  0.6558 -0.3646 -1.0525
  181SOPE   C3620712   0.715   1.704   7.323  0.4645 -0.1504  0.4969
  181SOPE   H6X20713   0.734   1.812   7.342 -3.2692  1.0743 -1.5183
  181SOPE   H6Y20714   0.806   1.647   7.351  0.5381  0.2075  0.9961
  181SOPE   C3720715   0.598   1.657   7.413  0.0701 -0.5933 -0.6503
  181SOPE   H7X20716   0.608   1.552   7.449  0.2652  0.7390  3.7605
  181SOPE   H7Y20717   0.509   1.680   7.351  0.4205  2.7664 -0.0580
  181SOPE   C3820718   0.573   1.738   7.539  0.3639  0.9554  1.0542
  181SOPE   H8X20719   0.484   1.703   7.596  1.4252 -3.2008  0.5083
  181SOPE   H8Y20720   0.553   1.844   7.514 -0.1101  0.3141 -1.5817
  181SOPE   C3920721   0.690   1.713   7.639 -0.1530  0.7399  0.4232
  181SOPE   H9X20722   0.780   1.744   7.580 -0.7490 -2.2118 -2.3128
  181SOPE   H9Y20723   0.698   1.604   7.656 -1.2345  0.1678 -2.1993
  181SOPE  C31020724   0.656   1.788   7.770 -0.1624 -0.7460 -0.0661
  181SOPE  H10X20725   0.607   1.720   7.843 -0.5488 -0.4671 -0.0588
  181SOPE  H10Y20726   0.596   1.879   7.747  0.0356 -0.5488  0.1907
  181SOPE  C31120727   0.782   1.847   7.847  0.2856  0.0936 -0.2545
  181SOPE  H11X20728   0.835   1.906   7.769 -1.4922 -0.7573 -2.2180
  181SOPE  H11Y20729   0.833   1.760   7.895 -0.9375 -1.0009 -0.8500
  181SOPE  C31220730   0.747   1.951   7.957 -0.2090  0.1100  0.6158
  181SOPE  H12X20731   0.667   1.903   8.017  0.3619 -1.4407  0.1816
  181SOPE  H12Y20732   0.721   2.052   7.919  1.6200  1.2025  2.1071
  181SOPE  C31320733   0.866   1.987   8.043  0.7443 -0.0934 -0.4007
  181SOPE  H13X20734   0.938   2.045   7.981 -0.5059  3.5172  1.2247
  181SOPE  H13Y20735   0.906   1.891   8.083  1.3870  0.7896  1.2039
  181SOPE  C31420736   0.834   2.081   8.163  0.0685 -0.1745  0.0142
  181SOPE  H14X20737   0.781   2.174   8.134  0.4307  0.4346  1.2687
  181SOPE  H14Y20738   0.937   2.108   8.194  0.1400 -0.9135  0.4644
  181SOPE  C31520739   0.759   2.023   8.284 -0.1933  0.5605 -0.0251
  181SOPE  H15X20740   0.667   1.974   8.245 -0.7193  0.8620  0.8148
  181SOPE  H15Y20741   0.719   2.092   8.361  0.0584  0.3192  0.3257
  181SOPE  C31620742   0.838   1.916   8.365 -0.4507  0.3117  0.6217
  181SOPE  H16X20743   0.939   1.961   8.377 -0.5996  0.1678  2.6981
  181SOPE  H16Y20744   0.858   1.821   8.311  4.4521  0.2147  2.1192
  181SOPE  C31720745   0.785   1.899   8.508 -0.2858  0.7041 -0.1684
  181SOPE  H17X20746   0.814   1.992   8.562  2.6680  0.9576 -1.9592
  181SOPE  H17Y20747   0.833   1.805   8.545  0.0372  1.3242  1.0507
  181SOPE  C31820748   0.639   1.872   8.525  0.1120  0.3757  0.0552
  181SOPE  H18X20749   0.617   1.776   8.474 -2.2207  0.7099  0.3300
  181SOPE  H18Y20750   0.585   1.963   8.491  2.4546  3.1135  2.9704
  181SOPE  H18Z20751   0.614   1.873   8.633  0.2877  0.6257  0.0958
  182SOPE     N20752   3.195   3.932   6.727  0.2450 -0.1064 -0.0048
  182SOPE   HN120753   3.196   3.965   6.826 -0.8733  1.4884 -0.4869
  182SOPE   HN220754   3.219   3.831   6.726  1.2215  0.1240 -0.2228
  182SOPE   HN320755   3.259   3.989   6.668 -0.2608  0.4058 -0.0673
  182SOPE   C1220756   3.059   3.945   6.669 -0.1126  0.0024  0.2075
  182SOPE  H12A20757   2.996   3.873   6.724 -0.6463  0.5767  0.3582
  182SOPE  H12B20758   3.063   3.908   6.564 -1.1353  3.0532 -1.0425
  182SOPE   C1120759   2.998   4.089   6.680 -0.4970 -0.2965  0.0100
  182SOPE  H11A20760   2.972   4.123   6.782 -4.8529  1.4966 -1.4517
  182SOPE  H11B20761   2.903   4.099   6.623  0.1596  2.4753 -0.7264
  182SOPE     P20762   3.079   4.225   6.482  0.0002  0.4579 -0.3458
  182SOPE   O1320763   3.057   4.104   6.402 -0.7397  0.6047  0.3888
  182SOPE   O1420764   3.198   4.296   6.443 -0.0150 -0.0666 -0.3174
  182SOPE   O1220765   3.088   4.182   6.630  0.5989  0.2975 -0.0800
  182SOPE   O1120766   2.944   4.313   6.480 -0.3127  0.4697  0.4541
  182SOPE    C120767   2.940   4.451   6.452 -0.1178  0.1820  0.4162
  182SOPE    HA20768   2.861   4.475   6.378 -0.9094  1.1216  1.5358
  182SOPE    HB20769   3.037   4.492   6.415 -0.1579 -1.2722 -1.4670
  182SOPE    C220770   2.889   4.526   6.581 -0.9607  0.2360  0.2168
  182SOPE    HS20771   2.880   4.636   6.571  2.5464  0.7396  1.2283
  182SOPE   O2120772   2.971   4.486   6.695 -0.0158  0.3427  0.1704
  182SOPE   C2120773   3.085   4.548   6.701  1.0074  0.0325  0.7076
  182SOPE   O2220774   3.106   4.653   6.641  0.0581 -0.2335 -0.5471
  182SOPE   C2220775   3.183   4.478   6.791  0.3009  0.4293  0.4909
  182SOPE   H2R20776   3.266   4.548   6.814 -0.1722  0.7329  1.3204
  182SOPE   H2S20777   3.213   4.383   6.742 -0.9337  1.7533 -3.2195
  182SOPE    C320778   2.751   4.480   6.616  0.4608  0.5336 -0.7328
  182SOPE    HX20779   2.750   4.369   6.619  2.8314  0.4453 -1.1307
  182SOPE    HY20780   2.688   4.507   6.529 -0.0798  0.1199 -0.4778
  182SOPE   O3120781   2.699   4.542   6.736  0.1377  0.1592  0.0320
  182SOPE   C3120782   2.692   4.470   6.849 -0.6173 -0.0830 -0.1243
  182SOPE   O3220783   2.711   4.352   6.864  0.5958 -0.9890 -0.2751
  182SOPE   C3220784   2.652   4.573   6.959 -0.1369  0.1337  0.2902
  182SOPE   H2X20785   2.549   4.613   6.950  0.2160  0.7503 -1.3077
  182SOPE   H2Y20786   2.728   4.654   6.952 -0.1587  0.0306 -1.7155
  182SOPE   C2320787   3.131   4.444   6.928  0.3577 -0.2865 -0.1775
  182SOPE   H3R20788   3.070   4.352   6.918  3.1704 -2.4597  1.0661
  182SOPE   H3S20789   3.065   4.529   6.958  0.8191 -0.4066  1.2782
  182SOPE   C2420790   3.235   4.407   7.033 -0.9351  0.2024 -0.3575
  182SOPE   H4R20791   3.312   4.339   6.992 -0.4117  1.5112 -1.6402
  182SOPE   H4S20792   3.275   4.498   7.083 -1.1035 -0.9938  2.1257
  182SOPE   C2520793   3.160   4.331   7.149 -0.1535 -0.2626 -0.5856
  182SOPE   H5R20794   3.102   4.408   7.205  2.3996  1.2156  0.1704
  182SOPE   H5S20795   3.091   4.251   7.116 -0.1754 -0.5159  0.0676
  182SOPE   C2620796   3.252   4.258   7.255 -0.7367  0.2901 -0.1767
  182SOPE   H6R20797   3.277   4.154   7.224 -1.0482  0.0707  0.2926
  182SOPE   H6S20798   3.342   4.322   7.265 -1.5516  1.4002  0.2352
  182SOPE   C2720799   3.183   4.259   7.390  0.2619 -0.8514  0.6910
  182SOPE   H7R20800   3.129   4.355   7.402  2.1271  0.1941  1.0884
  182SOPE   H7S20801   3.110   4.174   7.385 -0.9547  0.2055 -0.0219
  182SOPE   C2820802   3.293   4.228   7.506 -0.2168  0.3392 -0.1878
  182SOPE   H8R20803   3.233   4.224   7.600  0.8858 -0.9404  0.5038
  182SOPE   H8S20804   3.342   4.130   7.486 -1.9677 -0.2693 -1.7784
  182SOPE   C2920805   3.404   4.331   7.529  0.3498  0.4445  0.0494
  182SOPE   H9120806   3.469   4.324   7.441  1.0639 -1.2714  0.6696
  182SOPE  C21020807   3.424   4.412   7.634  0.3533  0.3011  0.2296
  182SOPE  H10120808   3.512   4.477   7.625  0.5877 -0.0321  0.0701
  182SOPE  C21120809   3.346   4.404   7.768  0.0941  0.2622  0.5759
  182SOPE  H11R20810   3.242   4.380   7.739  1.2477 -1.2743 -2.7685
  182SOPE  H11S20811   3.358   4.492   7.834 -0.6840 -0.3674  1.5775
  182SOPE  C21220812   3.392   4.286   7.855 -0.1389 -0.0657 -0.4257
  182SOPE  H12R20813   3.355   4.191   7.812 -0.7853  0.0826 -0.2109
  182SOPE  H12S20814   3.339   4.302   7.951  1.5253  3.6535  0.0446
  182SOPE  C21320815   3.546   4.283   7.879  0.0829 -0.3792  0.2834
  182SOPE  H13R20816   3.570   4.382   7.923 -0.2314 -0.0750 -0.2166
  182SOPE  H13S20817   3.604   4.258   7.788  0.4486 -1.4630  0.7960
  182SOPE  C21420818   3.589   4.193   7.981  0.3042  0.0491 -1.1160
  182SOPE  H14R20819   3.591   4.084   7.958  2.6639 -0.1998  0.0287
  182SOPE  H14S20820   3.528   4.202   8.073  2.2402  0.3806  0.1974
  182SOPE  C21520821   3.741   4.210   8.035  0.4655 -0.0324  0.4708
  182SOPE  H15R20822   3.760   4.319   8.051 -2.5999  0.5019  1.1384
  182SOPE  H15S20823   3.816   4.169   7.965 -0.6305 -0.2943 -0.5861
  182SOPE  C21620824   3.762   4.139   8.170 -0.0007  0.0736 -0.3937
  182SOPE  H16R20825   3.869   4.111   8.175 -0.2504 -0.8044  3.3677
  182SOPE  H16S20826   3.707   4.043   8.158  0.3979 -0.0052 -1.6800
  182SOPE  C21720827   3.749   4.219   8.302  0.2186  0.0711  0.0224
  182SOPE  H17R20828   3.653   4.272   8.316  0.1699 -0.3399  1.4885
  182SOPE  H17S20829   3.815   4.308   8.294  0.1547 -0.0015 -1.4687
  182SOPE  C21820830   3.788   4.136   8.426 -0.5457  0.3446 -0.4796
  182SOPE  H18R20831   3.801   4.202   8.514  1.4218  0.9562 -1.1830
  182SOPE  H18S20832   3.891   4.100   8.406  0.0696  1.6313  0.2751
  182SOPE  H18T20833   3.699   4.072   8.446  0.9504 -0.8576  3.0049
  182SOPE   C3320834   2.652   4.506   7.095  0.2982  0.7730 -0.8888
  182SOPE   H3X20835   2.754   4.476   7.130  0.6674  1.1354 -1.6301
  182SOPE   H3Y20836   2.585   4.417   7.097 -1.1818  1.8352  1.3292
  182SOPE   C3420837   2.604   4.605   7.211  0.1059  0.4615  0.9105
  182SOPE   H4X20838   2.500   4.635   7.186  0.4530  2.5442  1.7666
  182SOPE   H4Y20839   2.666   4.698   7.211 -1.1136  1.3126 -0.2367
  182SOPE   C3520840   2.610   4.531   7.342 -0.7766 -0.4009 -0.3643
  182SOPE   H5X20841   2.718   4.508   7.354 -0.6993 -2.0787 -3.3362
  182SOPE   H5Y20842   2.557   4.434   7.336 -1.4968  0.0259 -1.1256
  182SOPE   C3620843   2.542   4.619   7.451 -0.5638 -0.1511  0.2013
  182SOPE   H6X20844   2.453   4.667   7.404 -0.4380 -1.5660 -1.6032
  182SOPE   H6Y20845   2.606   4.705   7.482 -1.7788  0.5795  0.7958
  182SOPE   C3720846   2.528   4.546   7.580 -0.1396  0.0447 -0.3639
  182SOPE   H7X20847   2.626   4.498   7.603  0.0372  1.0700  1.1371
  182SOPE   H7Y20848   2.455   4.463   7.583  0.2413 -0.2645  0.6798
  182SOPE   C3820849   2.498   4.640   7.701  0.6365 -0.9662  0.6824
  182SOPE   H8X20850   2.406   4.699   7.677 -0.3939 -2.7610  0.0573
  182SOPE   H8Y20851   2.578   4.714   7.724  0.3727 -1.0590  2.0064
  182SOPE   C3920852   2.484   4.557   7.826  0.7004 -0.5600 -0.5709
  182SOPE   H9X20853   2.580   4.509   7.853 -0.1805 -1.4826  1.1215
  182SOPE   H9Y20854   2.404   4.480   7.824 -2.2472  2.1407  1.3770
  182SOPE  C31020855   2.419   4.632   7.945 -0.6364 -0.0664  0.0163
  182SOPE  H10X20856   2.364   4.560   8.009 -0.1846  1.8053  2.6877
  182SOPE  H10Y20857   2.342   4.703   7.909  0.6038  0.6063 -1.4092
  182SOPE  C31120858   2.513   4.720   8.028  0.3077 -0.4723 -0.0705
  182SOPE  H11X20859   2.490   4.827   8.013  0.4250 -0.3319  0.7038
  182SOPE  H11Y20860   2.617   4.711   7.989  0.3873  0.4748 -0.0923
  182SOPE  C31220861   2.502   4.695   8.184 -0.0756 -0.4021  0.8528
  182SOPE  H12X20862   2.589   4.751   8.225 -0.3951  0.0853  0.8754
  182SOPE  H12Y20863   2.513   4.585   8.200  2.8643 -0.0882  1.6453
  182SOPE  C31320864   2.362   4.730   8.246 -0.0486  0.5012  0.2198
  182SOPE  H13X20865   2.280   4.699   8.179  0.9869  0.4523 -1.0741
  182SOPE  H13Y20866   2.366   4.841   8.244  2.5995  0.4732 -0.2378
  182SOPE  C31420867   2.344   4.676   8.394 -1.1219  0.0435  0.8796
  182SOPE  H14X20868   2.437   4.695   8.452  0.6460 -3.6368 -0.4330
  182SOPE  H14Y20869   2.333   4.567   8.381  0.0513  0.0083  0.0691
  182SOPE  C31520870   2.220   4.733   8.468  0.0227 -0.1921 -0.0938
  182SOPE  H15X20871   2.224   4.843   8.464 -2.1349 -0.0744 -0.7947
  182SOPE  H15Y20872   2.246   4.695   8.569  0.3928  0.4831  0.0661
  182SOPE  C31620873   2.075   4.680   8.435 -0.2113 -0.4195 -0.3880
  182SOPE  H16X20874   2.013   4.663   8.526 -1.2652  1.5320 -0.6766
  182SOPE  H16Y20875   2.102   4.586   8.382  0.8010  0.1613 -0.9507
  182SOPE  C31720876   2.005   4.776   8.335 -0.7788  0.4753  0.1291
  182SOPE  H17X20877   2.065   4.777   8.241 -1.0916  0.6813 -0.0687
  182SOPE  H17Y20878   1.998   4.881   8.371 -1.0993  1.2449 -2.0484
  182SOPE  C31820879   1.873   4.718   8.292  0.4377 -0.1155 -0.2136
  182SOPE  H18X20880   1.841   4.775   8.203  0.3995  0.2221  0.0115
  182SOPE  H18Y20881   1.795   4.729   8.370  0.4154 -1.6011 -0.0007
  182SOPE  H18Z20882   1.867   4.611   8.262  3.2198  0.5119 -3.6523
  183SOPE     N20883   5.225   1.384   6.525 -0.2205 -0.1007  0.2290
  183SOPE   HN120884   5.178   1.430   6.445  3.8730 -1.1656 -3.1380
  183SOPE   HN220885   5.213   1.282   6.515  1.1105 -0.3928  1.3080
  183SOPE   HN320886   5.172   1.413   6.610 -0.6023  1.6043 -0.5330
  183SOPE   C1220887   5.372   1.419   6.531  0.0623 -0.1376 -1.0680
  183SOPE  H12A20888   5.421   1.361   6.612 -0.1296  3.6140  2.0612
  183SOPE  H12B20889   5.390   1.526   6.556  0.8249 -1.1024  3.2818
  183SOPE   C1120890   5.439   1.395   6.394 -0.2298  0.5914  0.8841
  183SOPE  H11A20891   5.460   1.286   6.385 -2.0703  0.3796 -1.5132
  183SOPE  H11B20892   5.541   1.439   6.384  0.4349 -0.7662  1.3671
  183SOPE     P20893   5.371   1.558   6.195  0.4586 -0.2928 -0.3292
  183SOPE   O1320894   5.275   1.569   6.083  0.2579 -0.1685  0.6828
  183SOPE   O1420895   5.510   1.564   6.149 -0.1662  0.2016  0.0324
  183SOPE   O1220896   5.354   1.423   6.284  0.3895  0.3201  0.0006
  183SOPE   O1120897   5.347   1.666   6.305  0.4759 -0.4424 -0.3576
  183SOPE    C120898   5.216   1.719   6.330 -0.2244  0.4694 -0.1299
  183SOPE    HA20899   5.143   1.636   6.341  0.9212 -0.3842  1.4524
  183SOPE    HB20900   5.198   1.794   6.250  0.5778  0.2557 -0.5163
  183SOPE    C220901   5.193   1.789   6.465 -0.1249  0.9671  0.1399
  183SOPE    HS20902   5.265   1.874   6.460  0.4739  0.4192 -1.1215
  183SOPE   O2120903   5.224   1.706   6.577  0.5510  0.1495 -0.5080
  183SOPE   C2120904   5.291   1.750   6.681 -0.3111 -0.1592 -0.1170
  183SOPE   O2220905   5.355   1.854   6.690 -0.1604  0.1328  0.0443
  183SOPE   C2220906   5.252   1.654   6.793  0.3489 -0.7659 -0.4566
  183SOPE   H2R20907   5.320   1.569   6.816  2.4724  1.3615  1.7867
  183SOPE   H2S20908   5.147   1.625   6.776 -0.1429  0.9784 -0.6557
  183SOPE    C320909   5.047   1.844   6.463  0.4235  0.1003  0.3115
  183SOPE    HX20910   4.977   1.760   6.444  1.1877 -0.5857  0.4866
  183SOPE    HY20911   5.032   1.919   6.382 -0.3121 -0.6690 -0.2776
  183SOPE   O3120912   5.016   1.891   6.595  0.1279  0.0092  0.2535
  183SOPE   C3120913   4.898   1.944   6.615 -0.0505 -0.5276  0.4652
  183SOPE   O3220914   4.808   1.940   6.538 -0.1793  0.4916  0.1594
  183SOPE   C3220915   4.881   2.000   6.751  0.0990 -0.5325  0.1846
  183SOPE   H2X20916   4.966   2.068   6.774 -0.6379  0.2975  0.5058
  183SOPE   H2Y20917   4.886   1.917   6.824  2.0063 -1.7491 -1.2508
  183SOPE   C2320918   5.249   1.750   6.916 -0.1924  0.1826 -0.5322
  183SOPE   H3R20919   5.334   1.821   6.911  1.4853 -1.5690  1.2495
  183SOPE   H3S20920   5.259   1.689   7.009  1.5103  0.5432 -0.4484
  183SOPE   C2420921   5.123   1.838   6.925  0.9016  0.5933  0.1756
  183SOPE   H4R20922   5.109   1.913   6.844 -0.8970  2.8589  2.4094
  183SOPE   H4S20923   5.031   1.777   6.922  1.4923 -0.2763 -1.9096
  183SOPE   C2520924   5.124   1.922   7.053  0.5447 -0.2160 -0.3710
  183SOPE   H5R20925   5.131   1.857   7.143 -0.3529 -0.3096 -0.3538
  183SOPE   H5S20926   5.212   1.989   7.063 -1.0525  2.0017 -0.5930
  183SOPE   C2620927   5.000   2.006   7.074 -0.6302  0.6109 -0.9208
  183SOPE   H6R20928   4.983   2.077   6.990 -3.0241  0.7104 -0.4343
  183SOPE   H6S20929   4.915   1.935   7.077 -0.2978  0.0638 -3.0945
  183SOPE   C2720930   5.014   2.095   7.196  0.4634  0.4914  0.1569
  183SOPE   H7R20931   5.024   2.025   7.281 -1.0703 -0.5682 -0.4646
  183SOPE   H7S20932   5.108   2.150   7.174  0.4880  0.7210  0.8369
  183SOPE   C2820933   4.901   2.195   7.211  0.6418 -0.2283 -0.2193
  183SOPE   H8R20934   4.938   2.290   7.256 -0.7726  2.2278 -3.7749
  183SOPE   H8S20935   4.878   2.248   7.117 -1.8100 -0.2504  0.2881
  183SOPE   C2920936   4.786   2.119   7.274  0.7449  0.5922  0.1440
  183SOPE   H9120937   4.742   2.052   7.199 -2.5584  1.6438  0.9790
  183SOPE  C21020938   4.740   2.124   7.405  0.0746  0.2703  0.5306
  183SOPE  H10120939   4.663   2.050   7.433  0.3853 -0.4476 -0.4483
  183SOPE  C21120940   4.806   2.202   7.519  0.3016  0.2223  0.4104
  183SOPE  H11R20941   4.730   2.215   7.599  2.5400 -1.7710  3.0906
  183SOPE  H11S20942   4.854   2.295   7.481  0.4784  0.2216  0.6267
  183SOPE  C21220943   4.924   2.120   7.605  0.2112 -0.5054 -0.8866
  183SOPE  H12R20944   5.021   2.123   7.550  1.2286 -1.2755  0.7776
  183SOPE  H12S20945   4.898   2.012   7.602 -3.2660  0.2181 -0.6066
  183SOPE  C21320946   4.932   2.176   7.747  0.1506  0.8189 -0.8078
  183SOPE  H13R20947   4.831   2.183   7.792  0.4003  0.6133 -0.1938
  183SOPE  H13S20948   4.976   2.278   7.743  2.7643 -0.1411  0.7929
  183SOPE  C21420949   5.041   2.099   7.832  0.2824 -0.1291 -0.1783
  183SOPE  H14R20950   5.139   2.102   7.781  1.4897  0.9468  2.0624
  183SOPE  H14S20951   5.018   1.990   7.831  0.9701 -0.3971 -4.3000
  183SOPE  C21520952   5.052   2.145   7.978  0.1514  0.0167 -0.1000
  183SOPE  H15R20953   5.117   2.074   8.035 -1.4522 -1.5735 -0.1772
  183SOPE  H15S20954   4.952   2.139   8.027  1.8542 -2.1159  3.5475
  183SOPE  C21620955   5.108   2.286   7.983 -0.0483 -0.0354  0.4191
  183SOPE  H16R20956   5.027   2.352   7.945 -0.6649 -0.7209  0.5255
  183SOPE  H16S20957   5.190   2.293   7.909 -0.3889 -0.1993  0.0179
  183SOPE  C21720958   5.155   2.334   8.121 -0.5634  0.7217 -0.0424
  183SOPE  H17R20959   5.182   2.240   8.174 -1.7109  0.5418  0.2534
  183SOPE  H17S20960   5.065   2.365   8.177 -0.7804 -2.3762  1.5359
  183SOPE  C21820961   5.273   2.426   8.114 -0.3070 -0.1192  0.2987
  183SOPE  H18R20962   5.256   2.535   8.099 -0.9376 -0.0325  1.4641
  183SOPE  H18S20963   5.345   2.409   8.032  0.2133 -0.3678  0.8070
  183SOPE  H18T20964   5.327   2.426   8.211 -3.3850  1.1264  2.1901
  183SOPE   C3320965   4.744   2.069   6.759  0.4475  0.2062  0.7614
  183SOPE   H3X20966   4.661   1.995   6.757 -0.7375  1.4982  0.7884
  183SOPE   H3Y20967   4.719   2.137   6.675 -1.8728 -0.2282  1.0168
  183SOPE   C3420968   4.733   2.155   6.878  0.4283 -0.4977 -0.6758
  183SOPE   H4X20969   4.824   2.217   6.864 -1.1940  3.3659  3.6622
  183SOPE   H4Y20970   4.741   2.089   6.967  2.6205  1.0167  0.3535
  183SOPE   C3520971   4.608   2.246   6.883 -0.0482  0.0488 -0.6774
  183SOPE   H5X20972   4.525   2.173   6.873  1.1361 -1.5274  0.3979
  183SOPE   H5Y20973   4.593   2.315   6.797 -0.3132  0.9041  0.0469
  183SOPE   C3620974   4.593   2.317   7.021  0.4762  0.6435  0.2672
  183SOPE   H6X20975   4.650   2.262   7.099 -0.3083  1.2072  1.2630
  183SOPE   H6Y20976   4.485   2.319   7.047  0.2961  1.9367 -0.4976
  183SOPE   C3720977   4.652   2.457   7.022  0.3637 -0.5257 -0.0797
  183SOPE   H7X20978   4.582   2.518   6.961  0.9291 -0.8380 -1.0616
  183SOPE   H7Y20979   4.755   2.456   6.980  0.1992  1.7482 -0.6367
  183SOPE   C3820980   4.653   2.524   7.169  0.0716 -0.1348  0.4165
  183SOPE   H8X20981   4.689   2.628   7.152  0.3982  0.0805  2.2237
  183SOPE   H8Y20982   4.729   2.471   7.230  0.6744 -0.5622 -0.6591
  183SOPE   C3920983   4.517   2.536   7.241  0.1851 -0.2907 -0.4137
  183SOPE   H9X20984   4.471   2.436   7.248  0.7743 -0.4958  1.0052
  183SOPE   H9Y20985   4.442   2.592   7.182  0.1325  0.1236  0.0423
  183SOPE  C31020986   4.531   2.593   7.386 -0.0903  0.1392  0.3683
  183SOPE  H10X20987   4.560   2.699   7.373  0.2087  0.2519  1.7831
  183SOPE  H10Y20988   4.615   2.536   7.430 -0.2557  0.2768  0.8686
  183SOPE  C31120989   4.408   2.574   7.471  0.3836  0.4035 -0.1366
  183SOPE  H11X20990   4.387   2.468   7.495  0.6610  0.7450  1.7341
  183SOPE  H11Y20991   4.316   2.599   7.413 -0.4749 -2.2610 -0.0809
  183SOPE  C31220992   4.408   2.661   7.600  0.2941  0.3730  0.8108
  183SOPE  H12X20993   4.390   2.761   7.555 -1.4695 -0.6088 -0.8380
  183SOPE  H12Y20994   4.511   2.665   7.640  0.6455 -0.7062  0.0616
  183SOPE  C31320995   4.303   2.622   7.699 -0.4656 -0.1492  0.1771
  183SOPE  H13X20996   4.318   2.518   7.735 -0.0361 -0.3071 -0.4514
  183SOPE  H13Y20997   4.202   2.619   7.654 -1.0663  0.4765  1.4305
  183SOPE  C31420998   4.297   2.701   7.832 -0.2848  0.4323 -0.7303
  183SOPE  H14X20999   4.285   2.809   7.809 -0.9919  0.3838 -0.6110
  183SOPE  H14Y21000   4.395   2.689   7.883  0.2354  2.1305 -1.2623
  183SOPE  C31521001   4.188   2.663   7.925 -0.2264 -0.4490  0.1142
  183SOPE  H15X21002   4.180   2.553   7.939 -1.1744 -0.4281 -0.1952
  183SOPE  H15Y21003   4.090   2.683   7.878 -1.5933 -1.0257  2.5828
  183SOPE  C31621004   4.189   2.726   8.066 -0.1368  0.4100  0.5602
  183SOPE  H16X21005   4.143   2.827   8.061 -1.0865  0.0420  1.5181
  183SOPE  H16Y21006   4.292   2.739   8.103  0.4457  0.9851 -1.1547
  183SOPE  C31721007   4.093   2.645   8.158 -0.1299  0.0537  0.2567
  183SOPE  H17X21008   4.131   2.540   8.164  0.5172  0.3562  2.4331
  183SOPE  H17Y21009   3.993   2.633   8.112  0.0371 -0.4873  0.0281
  183SOPE  C31821010   4.095   2.693   8.301  1.2600 -0.0711 -0.0772
  183SOPE  H18X21011   4.035   2.623   8.364  1.9211  0.9326  1.7328
  183SOPE  H18Y21012   4.059   2.797   8.317 -0.2578 -0.3094 -1.5769
  183SOPE  H18Z21013   4.198   2.682   8.341  1.5804 -0.4525 -0.9774
  184SOPE     N21014   5.666   1.775   6.259  0.5133 -0.6211  0.2787
  184SOPE   HN121015   5.728   1.835   6.201 -0.5974 -0.5349 -0.8703
  184SOPE   HN221016   5.731   1.698   6.283 -0.7375 -2.2392 -1.2431
  184SOPE   HN321017   5.588   1.730   6.207 -0.0582 -1.0876  1.5203
  184SOPE   C1221018   5.603   1.860   6.370 -0.0394  0.1501 -0.4795
  184SOPE  H12A21019   5.688   1.901   6.429 -0.7990 -1.0475  1.5787
  184SOPE  H12B21020   5.540   1.792   6.431  2.2795 -2.6911 -1.0279
  184SOPE   C1121021   5.538   1.973   6.298 -0.1064 -0.5397 -0.3129
  184SOPE  H11A21022   5.624   2.026   6.252 -0.3908  0.9366  0.8027
  184SOPE  H11B21023   5.485   2.039   6.369 -0.4530  0.9530 -1.8938
  184SOPE     P21024   5.354   2.020   6.112  0.1450  0.2455 -0.0516
  184SOPE   O1321025   5.251   1.937   6.043 -0.0664  0.1057 -0.2279
  184SOPE   O1421026   5.446   2.097   6.024  0.1173 -0.0117 -0.5873
  184SOPE   O1221027   5.449   1.929   6.201 -0.0455 -0.5887  0.5837
  184SOPE   O1121028   5.292   2.128   6.211  0.8417 -0.3905 -0.0777
  184SOPE    C121029   5.154   2.149   6.225 -0.3631 -0.2300  0.0974
  184SOPE    HA21030   5.092   2.059   6.244 -1.1517  0.8780  3.7150
  184SOPE    HB21031   5.131   2.180   6.121  0.4546 -1.3477 -0.4334
  184SOPE    C221032   5.133   2.249   6.343 -0.2917  0.6055  0.2323
  184SOPE    HS21033   5.201   2.332   6.313 -0.7076  0.4226 -1.2975
  184SOPE   O2121034   5.169   2.192   6.468 -0.0864  0.0507  0.4119
  184SOPE   C2121035   5.245   2.266   6.543 -0.2108 -0.2937  0.0252
  184SOPE   O2221036   5.288   2.380   6.511 -0.6826  0.2539 -0.4667
  184SOPE   C2221037   5.277   2.181   6.671  0.0893 -0.5011 -0.3020
  184SOPE   H2R21038   5.349   2.104   6.637  1.1454  0.4784 -0.3358
  184SOPE   H2S21039   5.189   2.125   6.710  1.5198 -1.0200  2.4210
  184SOPE    C321040   4.987   2.302   6.345  0.4261  0.1978 -0.6855
  184SOPE    HX21041   4.912   2.233   6.391 -0.6013  0.4964 -1.8743
  184SOPE    HY21042   4.963   2.316   6.238 -0.8484  1.2941 -0.2907
  184SOPE   O3121043   4.985   2.437   6.399 -0.4088 -0.0391 -0.0984
  184SOPE   C3121044   4.962   2.436   6.537  0.6053 -0.3986 -0.0014
  184SOPE   O3221045   4.946   2.333   6.600 -0.3563  0.2737 -0.6537
  184SOPE   C3221046   4.954   2.576   6.591  0.0341 -0.5560  0.0234
  184SOPE   H2X21047   4.847   2.605   6.605 -0.0870  1.9462 -4.2514
  184SOPE   H2Y21048   4.985   2.637   6.504  0.7944 -1.9313 -0.7005
  184SOPE   C2321049   5.327   2.270   6.780 -0.1579 -0.1562  0.5430
  184SOPE   H3R21050   5.261   2.357   6.800 -0.3723 -0.1673 -0.0810
  184SOPE   H3S21051   5.429   2.309   6.757 -1.3864  1.8809 -1.9732
  184SOPE   C2421052   5.337   2.200   6.918 -0.1728  0.5474  0.8214
  184SOPE   H4R21053   5.236   2.159   6.937 -0.5122  0.4718 -0.9553
  184SOPE   H4S21054   5.406   2.113   6.922 -1.5539 -0.6339  0.0785
  184SOPE   C2521055   5.391   2.298   7.019  0.2404  0.0920 -0.0155
  184SOPE   H5R21056   5.471   2.355   6.968 -0.7424  0.5983 -1.0592
  184SOPE   H5S21057   5.309   2.370   7.038  0.8157  1.1520 -1.3676
  184SOPE   C2621058   5.419   2.248   7.159 -0.1151 -0.0010 -0.1350
  184SOPE   H6R21059   5.339   2.184   7.202  0.4065 -1.0206 -0.6362
  184SOPE   H6S21060   5.513   2.189   7.159 -0.1578 -0.0691 -0.2360
  184SOPE   C2721061   5.426   2.373   7.247  0.0935 -0.4271 -0.3461
  184SOPE   H7R21062   5.511   2.434   7.210 -0.0756  0.9000  1.3407
  184SOPE   H7S21063   5.340   2.443   7.240 -1.9908 -2.3963  2.8683
  184SOPE   C2821064   5.455   2.332   7.395  0.6090  0.1057  0.0273
  184SOPE   H8R21065   5.520   2.242   7.399 -1.9889 -1.9469 -0.9255
  184SOPE   H8S21066   5.513   2.417   7.437  0.3021  0.5130 -0.3738
  184SOPE   C2921067   5.340   2.304   7.489 -0.5984  0.7427 -0.8730
  184SOPE   H9121068   5.249   2.257   7.450 -1.4335 -1.0684  2.7853
  184SOPE  C21021069   5.347   2.330   7.622 -0.8386 -0.0618  0.5297
  184SOPE  H10121070   5.256   2.302   7.677 -1.6821 -1.6678 -1.5290
  184SOPE  C21121071   5.455   2.393   7.713 -0.4095 -1.1366  0.1452
  184SOPE  H11R21072   5.416   2.474   7.780  1.7842 -1.1526  1.5247
  184SOPE  H11S21073   5.541   2.442   7.664 -0.9082  0.2567  0.5868
  184SOPE  C21221074   5.511   2.282   7.807 -0.1686  0.2639  0.8692
  184SOPE  H12R21075   5.549   2.190   7.759  1.4719  1.6207 -0.5858
  184SOPE  H12S21076   5.424   2.256   7.872  0.3943 -0.6302  1.2693
  184SOPE  C21321077   5.618   2.341   7.895  0.4239  0.7536 -0.4776
  184SOPE  H13R21078   5.583   2.436   7.940  1.2848 -0.0454  2.0454
  184SOPE  H13S21079   5.710   2.356   7.834  1.9571  0.6168  1.6800
  184SOPE  C21421080   5.655   2.238   8.002  0.2043 -0.4372  0.6108
  184SOPE  H14R21081   5.759   2.257   8.033  0.0909  3.2952 -0.7963
  184SOPE  H14S21082   5.642   2.140   7.952  3.0064  0.0505 -1.2889
  184SOPE  C21521083   5.581   2.251   8.140 -0.9241  0.9076  0.0606
  184SOPE  H15R21084   5.486   2.195   8.128 -0.4816  0.2990 -0.6839
  184SOPE  H15S21085   5.560   2.358   8.162  0.6376  1.3450 -0.3918
  184SOPE  C21621086   5.644   2.166   8.258  0.4297 -0.2792  0.2111
  184SOPE  H16R21087   5.753   2.187   8.264  0.9405 -2.8250  1.2613
  184SOPE  H16S21088   5.630   2.058   8.235 -0.5279  0.0511 -0.7986
  184SOPE  C21721089   5.584   2.187   8.398  0.0305 -0.3649 -0.7684
  184SOPE  H17R21090   5.481   2.146   8.398 -0.1344 -0.0413  1.1384
  184SOPE  H17S21091   5.572   2.297   8.412  2.2382  0.0109 -1.3726
  184SOPE  C21821092   5.660   2.114   8.518 -0.4994 -0.5567 -0.8703
  184SOPE  H18R21093   5.623   2.148   8.618  0.5892 -2.0717  0.0868
  184SOPE  H18S21094   5.765   2.147   8.506 -0.8809  0.7364 -0.7803
  184SOPE  H18T21095   5.661   2.003   8.507  2.6317 -0.5382 -1.7594
  184SOPE   C3321096   5.054   2.603   6.708  0.4391 -0.5360 -0.4516
  184SOPE   H3X21097   5.072   2.712   6.709 -0.3477 -0.3875 -1.2742
  184SOPE   H3Y21098   5.163   2.581   6.697  0.9346  1.2894  0.4674
  184SOPE   C3421099   5.002   2.552   6.843 -0.2552  0.7933 -0.0338
  184SOPE   H4X21100   5.020   2.443   6.852  1.8543  1.0683 -0.5224
  184SOPE   H4Y21101   4.894   2.568   6.863 -0.3240  0.6106 -0.2584
  184SOPE   C3521102   5.087   2.612   6.955  0.3674 -0.2168 -0.0503
  184SOPE   H5X21103   5.095   2.723   6.968 -0.4338 -0.3017  1.2428
  184SOPE   H5Y21104   5.191   2.574   6.947  0.3690 -0.2534  0.1472
  184SOPE   C3621105   5.038   2.565   7.083  0.2604 -0.7396 -1.6878
  184SOPE   H6X21106   5.036   2.455   7.099 -2.8056 -0.4504  1.1018
  184SOPE   H6Y21107   4.935   2.591   7.115  1.7102  0.3438  2.9326
  184SOPE   C3721108   5.119   2.633   7.198 -1.3002  0.0494 -0.0300
  184SOPE   H7X21109   5.102   2.743   7.201 -1.8329 -0.0264 -0.2423
  184SOPE   H7Y21110   5.226   2.614   7.174 -0.8678 -0.5444  2.1148
  184SOPE   C3821111   5.096   2.580   7.336  0.0443 -0.2260  0.2628
  184SOPE   H8X21112   5.181   2.607   7.402 -0.5497 -0.5466  1.1786
  184SOPE   H8Y21113   5.086   2.469   7.339 -1.7255 -0.0738  3.2379
  184SOPE   C3921114   4.975   2.629   7.413  0.8593  0.3298 -0.4773
  184SOPE   H9X21115   4.881   2.585   7.373  0.2543  1.9463 -0.8862
  184SOPE   H9Y21116   4.966   2.738   7.392 -2.0157  0.2893  0.1481
  184SOPE  C31021117   4.987   2.589   7.563  0.6008 -0.1935 -0.5015
  184SOPE  H10X21118   5.072   2.648   7.605  0.5745  0.0439 -0.7746
  184SOPE  H10Y21119   5.001   2.479   7.574 -0.3869 -0.1358  1.7717
  184SOPE  C31121120   4.871   2.631   7.644  0.8807  0.0223  0.4925
  184SOPE  H11X21121   4.774   2.585   7.619  2.4225 -2.6229 -1.0206
  184SOPE  H11Y21122   4.854   2.738   7.620 -1.4329 -0.0845  1.4378
  184SOPE  C31221123   4.906   2.590   7.790 -0.1658 -0.4558 -0.6446
  184SOPE  H12X21124   4.990   2.657   7.819 -2.6073  1.8236  1.7569
  184SOPE  H12Y21125   4.925   2.481   7.783 -0.0482 -0.3434 -2.4454
  184SOPE  C31321126   4.786   2.604   7.890  0.9027  0.2640  0.5723
  184SOPE  H13X21127   4.716   2.529   7.846  2.6943  0.4220 -2.8434
  184SOPE  H13Y21128   4.735   2.703   7.884  0.4050 -0.0767 -1.7098
  184SOPE  C31421129   4.813   2.569   8.032 -0.2956  0.5250 -0.1489
  184SOPE  H14X21130   4.856   2.656   8.086  1.1069 -0.1300 -0.1582
  184SOPE  H14Y21131   4.892   2.492   8.037 -0.0187  0.7996 -0.2594
  184SOPE  C31521132   4.689   2.519   8.106 -0.2970 -0.0005  0.3635
  184SOPE  H15X21133   4.660   2.427   8.052 -0.9319 -0.8403  2.0768
  184SOPE  H15Y21134   4.603   2.589   8.104 -1.0668 -0.9514 -0.7858
  184SOPE  C31621135   4.721   2.470   8.247 -0.1614 -0.3119  0.0175
  184SOPE  H16X21136   4.757   2.559   8.302 -2.3572  0.7240 -0.1072
  184SOPE  H16Y21137   4.801   2.397   8.224 -0.8833 -1.7074  1.7613
  184SOPE  C31721138   4.598   2.403   8.314 -0.5704  0.2541  0.1329
  184SOPE  H17X21139   4.628   2.362   8.413 -0.4011  1.5803  0.6502
  184SOPE  H17Y21140   4.566   2.320   8.248  0.5927  1.4469 -2.0224
  184SOPE  C31821141   4.485   2.498   8.339 -0.5367  0.7257 -0.4209
  184SOPE  H18X21142   4.522   2.586   8.396  0.6523 -0.2046  0.2668
  184SOPE  H18Y21143   4.392   2.446   8.373  0.0399 -0.5637 -0.7624
  184SOPE  H18Z21144   4.450   2.536   8.241 -1.2406  0.1940 -0.3873
  185SAPI   C1221145   0.009   5.252  10.746 -0.2365 -0.3375 -0.0391
  185SAPI    H221146   0.081   5.207  10.675 -1.6260  2.9527 -3.9697
  185SAPI    O221147  -0.019   5.379  10.691 -0.1957  0.1305 -0.3476
  185SAPI   HO221148   0.048   5.442  10.718  0.2498  0.2112 -1.5725
  185SAPI   C1321149  -0.113   5.163  10.736 -0.0060  0.3237  1.0212
  185SAPI    H321150  -0.093   5.062  10.778 -1.1901  0.6949  2.5555
  185SAPI    O321151  -0.150   5.145  10.603 -0.5728  0.6658  0.5723
  185SAPI   HO321152  -0.143   5.229  10.557  2.3492  1.3298  2.0669
  185SAPI   C1421153  -0.226   5.231  10.821 -0.1155 -0.1971  0.2179
  185SAPI    H421154  -0.248   5.337  10.794 -0.6877 -0.5509 -0.7400
  185SAPI    O421155  -0.347   5.166  10.814 -0.2358 -0.0558  0.4970
  185SAPI   HO421156  -0.418   5.228  10.795 -1.1696 -1.1768  0.1707
  185SAPI   C1521157  -0.181   5.247  10.968  0.3700 -0.1597 -0.2427
  185SAPI    H521158  -0.161   5.146  11.010 -1.6371 -0.4566  0.0639
  185SAPI    O521159  -0.286   5.295  11.055  0.3079 -0.8928  0.3522
  185SAPI   HO521160  -0.317   5.376  11.014  0.0293 -0.9550  0.4361
  185SAPI   C1621161  -0.045   5.324  10.980  0.4081 -1.1680  0.0518
  185SAPI    H621162  -0.067   5.429  10.950 -1.4181 -1.5072  0.0401
  185SAPI    O621163  -0.006   5.320  11.113  0.2431  0.1558 -0.5245
  185SAPI   HO621164   0.071   5.377  11.107  0.6136 -0.3690 -0.7301
  185SAPI   C1121165   0.056   5.261  10.890 -0.1993 -0.6583  0.1903
  185SAPI    H121166   0.064   5.159  10.934 -4.1345 -0.7334  1.1381
  185SAPI     P21167   0.321   5.243  10.874  0.0956 -0.0893  0.2834
  185SAPI   O1321168   0.322   5.127  10.967  0.6142  0.6450 -0.1255
  185SAPI   O1421169   0.439   5.335  10.879 -0.2699  0.3226 -0.3812
  185SAPI   O1221170   0.185   5.331  10.888  0.2914 -0.5105  0.1340
  185SAPI   O1121171   0.307   5.198  10.727 -0.1284  0.3669 -0.0409
  185SAPI    C121172   0.359   5.071  10.685  0.8714 -0.3645 -0.1816
  185SAPI    HA21173   0.339   4.989  10.757 -1.6706  0.1503 -0.2132
  185SAPI    HB21174   0.308   5.047  10.589 -3.9979 -0.3786  2.1081
  185SAPI    C221175   0.514   5.079  10.653  0.0685  0.2535 -0.1242
  185SAPI    HS21176   0.559   5.092  10.753 -0.1389 -0.2567  0.0405
  185SAPI   O2121177   0.540   5.201  10.579  0.3415  0.3167 -0.0529
  185SAPI   C2121178   0.664   5.245  10.584 -0.3738  0.5661 -0.8411
  185SAPI   O2221179   0.754   5.198  10.653  0.0317  0.1039  0.4005
  185SAPI   C2221180   0.685   5.364  10.487  0.3484 -0.0003  0.6506
  185SAPI   H2R21181   0.670   5.332  10.382  2.5781  0.4208  0.1501
  185SAPI   H2S21182   0.611   5.441  10.516  0.4607  0.4925 -0.3224
  185SAPI    C321183   0.574   4.947  10.588 -0.6529  0.9039  0.2422
  185SAPI    HX21184   0.552   4.863  10.657 -0.2472 -0.3224 -1.0612
  185SAPI    HY21185   0.684   4.959  10.598 -0.4623 -0.5125  0.0847
  185SAPI   O3121186   0.530   4.923  10.455 -0.4063  0.3900 -0.5215
  185SAPI   C3121187   0.519   4.800  10.405 -0.7410 -0.0452 -0.2081
  185SAPI   O3221188   0.558   4.701  10.459 -0.0680  0.1070 -0.0949
  185SAPI   C3221189   0.443   4.805  10.274  0.5053  0.1155  0.1422
  185SAPI   H2X21190   0.493   4.879  10.209 -0.7983 -0.8628 -2.0942
  185SAPI   H2Y21191   0.351   4.862  10.299  1.9859  1.3654  3.3052
  185SAPI   C2321192   0.825   5.436  10.505  0.0997  0.4356 -0.1939
  185SAPI   H3R21193   0.903   5.360  10.485 -0.0724  0.4901 -1.0947
  185SAPI   H3S21194   0.836   5.462  10.613  0.9303 -0.8236  0.0492
  185SAPI   C2421195   0.832   5.560  10.417  0.2215 -0.3680 -0.0405
  185SAPI   H4R21196   0.803   5.504  10.325 -1.6881 -3.0151  2.0091
  185SAPI   H4S21197   0.936   5.596  10.402  1.2053 -1.3896  3.3350
  185SAPI   C2521198   0.738   5.673  10.466  0.4600  0.2537 -0.1881
  185SAPI   H5R21199   0.762   5.717  10.564  2.6412  2.3014 -1.5428
  185SAPI   C2621200   0.633   5.720  10.398  0.5008 -0.6395  0.1861
  185SAPI   H6R21201   0.561   5.794  10.437 -2.5686 -3.6566  0.7630
  185SAPI   C2721202   0.597   5.662  10.261  0.4558 -0.4809  0.2587
  185SAPI   H7R21203   0.608   5.552  10.253  1.5361 -0.4433  1.0871
  185SAPI   H7S21204   0.672   5.710  10.194 -0.3020  1.5004  0.7448
  185SAPI   C2821205   0.466   5.708  10.206  0.7951 -0.1190  0.1679
  185SAPI   H8R21206   0.372   5.663  10.241  0.2262  1.3644  0.6140
  185SAPI   C2921207   0.445   5.816  10.130  0.3345  0.4795 -0.7756
  185SAPI   H9R21208   0.341   5.829  10.098  0.6804 -0.8384 -2.6306
  185SAPI  C21021209   0.544   5.925  10.076  0.2207  0.6299  0.1111
  185SAPI  H10R21210   0.517   5.943   9.969  0.7902  0.9907  0.0225
  185SAPI  H10S21211   0.645   5.881  10.067 -0.4391 -0.5006 -3.0181
  185SAPI  C21121212   0.551   6.049  10.160 -0.2162  0.1225 -0.2036
  185SAPI  H11R21213   0.569   6.043  10.268 -1.1186  1.3848  0.0358
  185SAPI  C21221214   0.538   6.174  10.107  0.6948 -0.3404  0.1450
  185SAPI  H12R21215   0.536   6.255  10.181 -1.0282 -1.0979  0.9859
  185SAPI  C21321216   0.503   6.220   9.968  0.9007  0.3582 -0.1264
  185SAPI  H13R21217   0.417   6.290   9.973 -2.0245 -2.9589  0.4412
  185SAPI  H13S21218   0.461   6.135   9.911  1.1657  0.0010  0.2046
  185SAPI  C21421219   0.617   6.283   9.893  0.0491  0.0288 -0.2897
  185SAPI  H14R21220   0.684   6.342   9.957  1.3815  0.0117 -1.6019
  185SAPI  C21521221   0.649   6.268   9.768  0.0294 -0.1106  0.5849
  185SAPI  H15R21222   0.740   6.310   9.722 -1.8952  2.0922 -1.5023
  185SAPI  C21621223   0.562   6.194   9.671 -0.4303  0.0950 -0.4065
  185SAPI  H16R21224   0.460   6.173   9.708 -0.8479  2.1135 -0.3220
  185SAPI  H16S21225   0.612   6.097   9.650 -2.0781 -1.2007  1.3452
  185SAPI  C21721226   0.541   6.270   9.541 -0.6472 -0.1385  0.0659
  185SAPI  H17R21227   0.635   6.306   9.493 -0.5207  1.6387  1.5194
  185SAPI  H17S21228   0.474   6.356   9.562  0.9377  1.2202 -0.1607
  185SAPI  C21821229   0.489   6.187   9.421  0.2117 -0.9052 -0.3811
  185SAPI  H18R21230   0.387   6.150   9.447 -0.1689 -0.0295 -0.5723
  185SAPI  H18S21231   0.553   6.097   9.407 -0.6208 -1.4600 -0.7400
  185SAPI  C21921232   0.479   6.272   9.290  0.2919  0.0222 -1.6938
  185SAPI  H19R21233   0.410   6.357   9.311 -0.5318 -0.8768 -0.6426
  185SAPI  H19S21234   0.441   6.206   9.209 -0.3343  0.9076 -2.1475
  185SAPI  C22021235   0.603   6.341   9.238  0.1663  0.4094  0.1709
  185SAPI  H20R21236   0.688   6.270   9.228 -1.3304 -1.3218 -0.8318
  185SAPI  H20S21237   0.631   6.426   9.305  0.1905  1.0254 -0.6119
  185SAPI  H20T21238   0.581   6.379   9.136 -1.7519  0.2953  0.5130
  185SAPI   C3321239   0.418   4.666  10.210 -0.1884 -0.9730  0.5165
  185SAPI   H3X21240   0.375   4.603  10.290 -0.0217  0.3218  1.6764
  185SAPI   H3Y21241   0.517   4.635  10.170  0.3032  1.0344  0.0175
  185SAPI   C3421242   0.326   4.684  10.090 -0.4545  0.5118 -0.0667
  185SAPI   H4X21243   0.246   4.760  10.110  0.7747  1.7201  0.4187
  185SAPI   H4Y21244   0.276   4.585  10.083 -2.0985  1.2579  0.3925
  185SAPI   C3521245   0.399   4.703   9.958  0.4322 -0.7606  0.0148
  185SAPI   H5X21246   0.498   4.654   9.963  0.8611  0.0828 -0.0045
  185SAPI   H5Y21247   0.429   4.810   9.956 -2.7176  0.2268  0.4068
  185SAPI   C3621248   0.313   4.670   9.835 -0.1529 -0.5015 -0.0734
  185SAPI   H6X21249   0.225   4.736   9.825 -0.4453 -0.8903 -0.0675
  185SAPI   H6Y21250   0.279   4.565   9.845  0.0950 -0.5397  0.4189
  185SAPI   C3721251   0.400   4.683   9.713 -0.5272 -0.5796 -0.4960
  185SAPI   H7X21252   0.482   4.614   9.742  0.5165  0.7239 -0.2284
  185SAPI   H7Y21253   0.442   4.784   9.691 -0.2250 -0.1388  1.8722
  185SAPI   C3821254   0.330   4.630   9.593  0.0128 -0.0100 -0.6426
  185SAPI   H8X21255   0.224   4.665   9.594  0.2705  0.7959  0.5768
  185SAPI   H8Y21256   0.320   4.519   9.598  0.0004 -0.0081 -0.6270
  185SAPI   C3921257   0.393   4.668   9.457  0.4340 -0.5816 -0.9160
  185SAPI   H9X21258   0.502   4.650   9.474  0.1181 -0.1534  2.3238
  185SAPI   H9Y21259   0.394   4.779   9.450 -0.0429 -0.4737  0.4308
  185SAPI  C31021260   0.333   4.599   9.335 -0.1054 -0.3454 -0.5399
  185SAPI  H10X21261   0.225   4.626   9.334 -0.5054 -1.4409  2.3337
  185SAPI  H10Y21262   0.332   4.488   9.333  1.0021 -0.4158  0.7850
  185SAPI  C31121263   0.397   4.635   9.200 -0.4146 -0.6487 -0.0091
  185SAPI  H11X21264   0.388   4.544   9.137  1.4333 -0.0841 -1.1684
  185SAPI  H11Y21265   0.504   4.655   9.219 -0.8615  2.0031  0.1721
  185SAPI  C31221266   0.342   4.753   9.129  0.6896 -0.3923  0.2057
  185SAPI  H12X21267   0.404   4.843   9.151 -0.1095  0.4165 -0.8085
  185SAPI  H12Y21268   0.239   4.777   9.162  0.3033 -0.0151 -1.2110
  185SAPI  C31321269   0.330   4.739   8.972 -0.5388 -0.0988  0.1306
  185SAPI  H13X21270   0.425   4.687   8.947 -0.3701  0.0192  0.5179
  185SAPI  H13Y21271   0.330   4.839   8.922  0.4545  0.1719  0.6598
  185SAPI  C31421272   0.217   4.645   8.934 -0.2807  0.4037 -0.2877
  185SAPI  H14X21273   0.128   4.704   8.966 -0.7829 -0.5814  0.1731
  185SAPI  H14Y21274   0.211   4.554   8.997 -0.4123  0.7969  0.2679
  185SAPI  C31521275   0.193   4.609   8.788  0.4286 -0.0019 -0.4267
  185SAPI  H15X21276   0.274   4.537   8.761  0.6840 -0.5479  1.6183
  185SAPI  H15Y21277   0.191   4.706   8.735 -2.6790 -0.1662 -0.7999
  185SAPI  C31621278   0.054   4.548   8.768  0.1302  0.7362 -0.4178
  185SAPI  H16X21279  -0.028   4.621   8.782 -1.5324 -1.4964  2.7991
  185SAPI  H16Y21280   0.043   4.480   8.855 -1.8921  1.9546  0.3556
  185SAPI  C31721281   0.048   4.474   8.641 -0.2319  0.4615  0.2408
  185SAPI  H17X21282   0.105   4.380   8.655  3.4805  2.7688  2.4092
  185SAPI  H17Y21283   0.089   4.542   8.564  3.1343  0.3513  1.7666
  185SAPI  C31821284  -0.100   4.439   8.606  0.8453  0.5852  0.0827
  185SAPI  H18X21285  -0.139   4.370   8.684  2.3163 -1.4929 -0.9383
  185SAPI  H18Y21286  -0.118   4.399   8.504  1.8122 -0.1640  0.1905
  185SAPI  H18Z21287  -0.156   4.535   8.606  1.7280  1.1423 -1.2597
  186SAPI   C1221288   1.881   4.536  10.947  0.3741  0.8305 -0.0069
  186SAPI    H221289   1.793   4.487  10.901  0.2263 -1.9681  2.8971
  186SAPI    O221290   1.937   4.627  10.843  0.5025 -0.1857 -0.5928
  186SAPI   HO221291   1.950   4.579  10.760  1.4489  0.6311 -0.9391
  186SAPI   C1321292   1.847   4.603  11.073  0.5285  0.4451 -0.5746
  186SAPI    H321293   1.823   4.530  11.153  3.1573  0.6718  0.5277
  186SAPI    O321294   1.743   4.695  11.046 -0.0386  0.0079  0.1172
  186SAPI   HO321295   1.656   4.656  11.040 -0.9147  1.9040 -0.1699
  186SAPI   C1421296   1.970   4.671  11.127 -1.0349 -0.7531 -0.3136
  186SAPI    H421297   2.018   4.737  11.052  1.1484 -1.3358  0.5019
  186SAPI    O421298   1.959   4.756  11.238  0.0146 -0.3095 -1.0434
  186SAPI   HO421299   1.944   4.707  11.319 -1.9061 -0.4230 -1.4231
  186SAPI   C1521300   2.079   4.566  11.148  0.6486  0.4428 -0.2044
  186SAPI    H521301   2.046   4.500  11.230 -1.5034  0.1501 -1.2522
  186SAPI    O521302   2.198   4.629  11.207  0.2864  0.6035  0.4375
  186SAPI   HO521303   2.164   4.681  11.281 -1.3848 -0.2829  0.3436
  186SAPI   C1621304   2.111   4.483  11.019 -1.4915  0.5619  0.4287
  186SAPI    H621305   2.168   4.550  10.952  1.1439 -0.7812  1.1639
  186SAPI    O621306   2.206   4.370  11.048 -0.2093 -0.7974 -0.7708
  186SAPI   HO621307   2.241   4.345  10.963 -0.4355 -1.2681 -0.7254
  186SAPI   C1121308   1.983   4.424  10.963  0.2076  0.2878 -0.0401
  186SAPI    H121309   1.953   4.351  11.040 -1.8852  0.4682 -0.6429
  186SAPI     P21310   1.919   4.226  10.795  0.0261  0.0265 -0.3690
  186SAPI   O1321311   1.878   4.256  10.650 -0.1960  0.2478 -0.4322
  186SAPI   O1421312   1.814   4.188  10.891  0.2883 -0.1769  0.0284
  186SAPI   O1221313   2.001   4.356  10.842  0.3240 -0.2831 -0.4488
  186SAPI   O1121314   2.035   4.119  10.806 -0.3627 -0.1979  0.3784
  186SAPI    C121315   2.166   4.137  10.747  0.5104 -0.3067 -0.0690
  186SAPI    HA21316   2.199   4.242  10.737  2.5923 -1.0149 -1.1082
  186SAPI    HB21317   2.244   4.086  10.808 -1.3392 -0.7419  2.0702
  186SAPI    C221318   2.180   4.059  10.616  0.3258  0.2866 -1.3273
  186SAPI    HS21319   2.287   4.061  10.588  1.1863  0.4576  1.5956
  186SAPI   O2121320   2.105   4.114  10.509  0.6743  0.1086 -0.6284
  186SAPI   C2121321   2.149   4.233  10.462 -0.1266 -1.1442 -0.0255
  186SAPI   O2221322   2.253   4.289  10.500 -0.1007  0.3210 -0.1581
  186SAPI   C2221323   2.061   4.297  10.347  0.6135 -0.4284  0.0942
  186SAPI   H2R21324   2.011   4.215  10.291  2.0179 -0.2550 -1.5439
  186SAPI   H2S21325   1.983   4.350  10.405  0.7970 -2.0190  1.8802
  186SAPI    C321326   2.128   3.912  10.644  0.2160  0.2977  0.2862
  186SAPI    HX21327   2.041   3.904  10.713 -0.1082  0.3083 -0.1160
  186SAPI    HY21328   2.219   3.868  10.690  0.0388 -0.8924 -0.4658
  186SAPI   O3121329   2.114   3.838  10.517 -0.2577 -0.5365  0.0148
  186SAPI   C3121330   1.989   3.796  10.487 -0.8985 -0.0515  0.2406
  186SAPI   O3221331   1.886   3.825  10.547  0.1002  0.0090  0.4655
  186SAPI   C3221332   2.004   3.715  10.352  0.3728  0.2789 -0.1089
  186SAPI   H2X21333   1.924   3.638  10.355  1.9201 -1.3757  1.3280
  186SAPI   H2Y21334   2.102   3.663  10.346 -1.5823 -3.8785  0.2355
  186SAPI   C2321335   2.153   4.377  10.250  0.5185  0.3089  0.2453
  186SAPI   H3R21336   2.202   4.454  10.314  0.3069  0.9601 -0.3609
  186SAPI   H3S21337   2.082   4.421  10.176  0.1818 -1.4253 -0.5141
  186SAPI   C2421338   2.263   4.297  10.171  0.0470  0.0994  0.1203
  186SAPI   H4R21339   2.200   4.221  10.119  0.7739 -0.6141  0.2621
  186SAPI   H4S21340   2.331   4.249  10.245  0.0134  0.1108  0.1584
  186SAPI   C2521341   2.345   4.375  10.077 -0.0724  0.0931  0.7638
  186SAPI   H5R21342   2.394   4.461  10.125  1.7213 -0.0827 -0.6604
  186SAPI   C2621343   2.359   4.363   9.941 -0.2851 -0.5245 -0.3936
  186SAPI   H6R21344   2.413   4.437   9.879  1.4065 -0.3642  1.1669
  186SAPI   C2721345   2.283   4.269   9.857  0.0457  0.5163 -0.5877
  186SAPI   H7R21346   2.213   4.216   9.925  1.2982  1.8017  1.8768
  186SAPI   H7S21347   2.357   4.196   9.818  0.4692  0.4248  0.3470
  186SAPI   C2821348   2.191   4.334   9.750 -0.3984  0.0962  0.0698
  186SAPI   H8R21349   2.107   4.382   9.803  0.3607  0.6614  0.8107
  186SAPI   C2921350   2.216   4.342   9.621 -0.5788  0.1701  0.5788
  186SAPI   H9R21351   2.130   4.362   9.557 -0.5387 -1.2186  0.0502
  186SAPI  C21021352   2.331   4.274   9.551 -0.4553 -0.2641  0.0879
  186SAPI  H10R21353   2.309   4.236   9.449 -3.3465 -1.6082  1.0852
  186SAPI  H10S21354   2.361   4.176   9.596 -1.5128 -0.4936  0.3141
  186SAPI  C21121355   2.448   4.367   9.555  0.0239  0.2738 -0.2005
  186SAPI  H11R21356   2.443   4.432   9.643 -2.8542  2.5634 -1.8762
  186SAPI  C21221357   2.541   4.379   9.455  0.1412  0.7778 -0.3990
  186SAPI  H12R21358   2.624   4.449   9.473  1.3389 -0.9345  1.3114
  186SAPI  C21321359   2.547   4.301   9.327  1.2607  0.5029  0.0368
  186SAPI  H13R21360   2.518   4.196   9.345  0.7989  0.6457  0.1448
  186SAPI  H13S21361   2.653   4.305   9.293  1.4715 -1.6096  0.3468
  186SAPI  C21421362   2.450   4.353   9.224  0.0161  0.5914  0.7335
  186SAPI  H14R21363   2.354   4.376   9.271  0.0951  1.6533  0.4010
  186SAPI  C21521364   2.476   4.364   9.093 -0.2870 -0.6429  0.7791
  186SAPI  H15R21365   2.399   4.396   9.021  1.4145 -0.4715 -1.0774
  186SAPI  C21621366   2.604   4.324   9.015  0.3241 -1.2399  0.2041
  186SAPI  H16R21367   2.616   4.215   9.003  1.6725 -0.8824 -2.5185
  186SAPI  H16S21368   2.693   4.348   9.076  1.0185  1.1381 -1.5831
  186SAPI  C21721369   2.632   4.391   8.875 -0.1165 -0.2929 -0.4605
  186SAPI  H17R21370   2.539   4.390   8.814 -0.9310 -0.8659  0.7260
  186SAPI  H17S21371   2.724   4.342   8.838  0.4676  0.2769  0.2176
  186SAPI  C21821372   2.655   4.541   8.888  0.2900 -0.3078  0.5962
  186SAPI  H18R21373   2.742   4.566   8.953  2.2529 -0.7362 -1.6946
  186SAPI  H18S21374   2.559   4.586   8.920 -0.1243 -0.8556  0.1412
  186SAPI  C21921375   2.693   4.608   8.751  0.1202  0.8463 -0.3628
  186SAPI  H19R21376   2.627   4.582   8.665  2.9989 -1.1465 -2.1609
  186SAPI  H19S21377   2.789   4.560   8.723  1.2289  3.0344 -0.5306
  186SAPI  C22021378   2.707   4.751   8.774  0.4682  0.0865  0.0259
  186SAPI  H20R21379   2.733   4.800   8.677 -1.7454 -0.7619 -1.0730
  186SAPI  H20S21380   2.797   4.775   8.834 -2.8353  2.1964  4.7032
  186SAPI  H20T21381   2.615   4.799   8.813 -3.4460 -4.6297 -2.2899
  186SAPI   C3321382   2.001   3.822  10.246 -0.0549 -0.5678  0.5477
  186SAPI   H3X21383   2.091   3.886  10.256  2.3691 -3.7340  0.2792
  186SAPI   H3Y21384   1.906   3.880  10.250  1.7042  2.6523 -0.6649
  186SAPI   C3421385   2.011   3.749  10.111  0.0504  0.3925 -0.2298
  186SAPI   H4X21386   1.925   3.679  10.102 -0.2256  0.8842 -1.7935
  186SAPI   H4Y21387   2.099   3.682  10.102  0.7156  1.1904  0.2498
  186SAPI   C3521388   2.017   3.846   9.994 -0.2383 -0.3361 -0.1048
  186SAPI   H5X21389   2.085   3.927  10.028 -1.8935  2.7999 -3.5551
  186SAPI   H5Y21390   1.924   3.903   9.975  0.0889  0.1470 -0.2941
  186SAPI   C3621391   2.067   3.787   9.863 -0.2249 -0.2751 -0.2788
  186SAPI   H6X21392   1.999   3.701   9.845  0.0838 -0.4229 -0.7731
  186SAPI   H6Y21393   2.169   3.742   9.863 -0.9458 -2.2073  2.5934
  186SAPI   C3721394   2.050   3.891   9.750 -0.2821  0.4294 -0.2331
  186SAPI   H7X21395   2.119   3.976   9.771  1.6693 -0.4216 -2.6750
  186SAPI   H7Y21396   1.948   3.935   9.752 -1.1304 -1.4673  1.5626
  186SAPI   C3821397   2.093   3.848   9.614 -0.5322  0.1765 -0.0021
  186SAPI   H8X21398   2.025   3.774   9.568  2.4697 -3.0354  0.2846
  186SAPI   H8Y21399   2.190   3.796   9.627 -1.7946 -2.8553 -1.6508
  186SAPI   C3921400   2.108   3.958   9.509  0.4467 -0.3361  0.1963
  186SAPI   H9X21401   2.166   4.046   9.544  0.6481 -0.5623  0.4423
  186SAPI   H9Y21402   2.010   4.004   9.485  0.7906  1.2954  1.7296
  186SAPI  C31021403   2.152   3.905   9.372 -0.8614  0.0999  0.4735
  186SAPI  H10X21404   2.093   3.817   9.339 -0.6065 -1.0664  2.9097
  186SAPI  H10Y21405   2.257   3.872   9.381 -1.6065 -2.4176  0.8105
  186SAPI  C31121406   2.144   4.020   9.270  0.4968  0.5819 -0.9536
  186SAPI  H11X21407   2.194   4.111   9.309  0.7677 -0.6063  1.7043
  186SAPI  H11Y21408   2.037   4.042   9.248  0.1849  0.9116  0.6942
  186SAPI  C31221409   2.218   3.972   9.146 -0.2269 -0.2956  0.3954
  186SAPI  H12X21410   2.184   3.870   9.116 -1.5995  0.4708 -0.8008
  186SAPI  H12Y21411   2.326   3.972   9.171  0.0753  1.5813 -0.7061
  186SAPI  C31321412   2.188   4.067   9.023 -0.6806 -0.0498 -0.4165
  186SAPI  H13X21413   2.208   4.169   9.061  0.5547  0.0288 -1.2142
  186SAPI  H13Y21414   2.079   4.058   9.007 -1.0305  1.5452  0.9313
  186SAPI  C31421415   2.264   4.034   8.892  0.2628 -0.8222 -0.0736
  186SAPI  H14X21416   2.216   3.941   8.856  1.0472 -1.3377  0.1882
  186SAPI  H14Y21417   2.374   4.026   8.905  0.2351  0.2735  1.1121
  186SAPI  C31521418   2.256   4.144   8.789 -0.3361  1.0221  0.2682
  186SAPI  H15X21419   2.316   4.107   8.703  1.3575 -0.3173  1.9626
  186SAPI  H15Y21420   2.316   4.227   8.831  1.3019  0.8578 -1.6062
  186SAPI  C31621421   2.118   4.179   8.728 -0.1183 -0.1236  0.3836
  186SAPI  H16X21422   2.065   4.244   8.801  3.0496  0.5940  2.2653
  186SAPI  H16Y21423   2.047   4.094   8.716  0.4749 -0.6982  0.8451
  186SAPI  C31721424   2.125   4.253   8.594 -0.3354 -0.0224  0.0592
  186SAPI  H17X21425   2.026   4.284   8.554 -0.1078  1.0873  0.3211
  186SAPI  H17Y21426   2.180   4.193   8.518  0.2557 -0.9590  1.2075
  186SAPI  C31821427   2.207   4.389   8.613  0.0932 -0.7776 -0.0442
  186SAPI  H18X21428   2.153   4.465   8.673 -0.3483  0.2193 -1.6444
  186SAPI  H18Y21429   2.221   4.431   8.512  1.0171 -0.3676  0.2455
  186SAPI  H18Z21430   2.306   4.368   8.659  0.7514  1.0236 -0.5770
  187SAPI   C1221431   5.121   5.229   6.661  1.0918 -0.5326 -1.1043
  187SAPI    H221432   5.015   5.231   6.696  1.1722  0.4744 -0.9062
  187SAPI    O221433   5.175   5.360   6.683  0.7227  0.1464  0.0336
  187SAPI   HO221434   5.178   5.389   6.774 -1.0824  1.3432 -0.2269
  187SAPI   C1321435   5.191   5.128   6.750 -0.2360 -0.1867 -0.1408
  187SAPI    H321436   5.151   5.028   6.724  0.5090 -0.6950  0.6357
  187SAPI    O321437   5.182   5.142   6.891  0.2906 -0.4114 -0.4693
  187SAPI   HO321438   5.269   5.128   6.930 -0.8288 -0.5816  2.2220
  187SAPI   C1421439   5.341   5.126   6.700 -0.0965 -0.3277  0.0028
  187SAPI    H421440   5.379   5.230   6.705  0.6836 -0.5788 -0.4865
  187SAPI    O421441   5.425   5.040   6.782 -0.6232  0.1875  0.0537
  187SAPI   HO421442   5.499   5.022   6.724 -1.7889 -0.4079 -1.3005
  187SAPI   C1521443   5.352   5.089   6.554  0.5582 -0.3652  0.8697
  187SAPI    H521444   5.298   4.993   6.537 -0.4118  0.3593 -0.3375
  187SAPI    O521445   5.492   5.067   6.508 -0.1073  0.8008 -0.4875
  187SAPI   HO521446   5.540   5.145   6.537  0.6067 -0.2693  1.4035
  187SAPI   C1621447   5.269   5.190   6.465  0.4193  0.3145  0.2773
  187SAPI    H621448   5.307   5.293   6.478 -2.0706  1.3686 -0.2339
  187SAPI    O621449   5.274   5.152   6.327  0.3985 -0.4289  0.1873
  187SAPI   HO621450   5.211   5.216   6.295  0.0265 -0.6275  0.5141
  187SAPI   C1121451   5.125   5.187   6.515  0.6038  0.3427 -0.4181
  187SAPI    H121452   5.085   5.084   6.503 -0.5781  0.4260  2.1155
  187SAPI     P21453   4.889   5.276   6.431 -0.1615 -0.0695  0.4668
  187SAPI   O1321454   4.838   5.148   6.472 -0.8552 -0.1541  0.2198
  187SAPI   O1421455   4.855   5.315   6.294 -0.0481  0.1261 -0.0510
  187SAPI   O1221456   5.050   5.272   6.434 -0.3568 -0.9460  0.2045
  187SAPI   O1121457   4.846   5.389   6.529 -0.3145 -0.1786 -0.5908
  187SAPI    C121458   4.898   5.517   6.532 -0.5558  0.3315 -0.5523
  187SAPI    HA21459   5.006   5.508   6.554 -0.4480  0.3144 -1.0869
  187SAPI    HB21460   4.881   5.559   6.431  1.3308  0.2926 -0.9173
  187SAPI    C221461   4.825   5.597   6.648 -0.4543  0.6673 -0.5484
  187SAPI    HS21462   4.864   5.700   6.666  2.7366 -0.7986  1.8874
  187SAPI   O2121463   4.856   5.527   6.774  0.1167  0.3380 -0.1088
  187SAPI   C2121464   4.974   5.542   6.827  0.1342  0.7000  0.3468
  187SAPI   O2221465   5.070   5.603   6.779 -0.1487 -0.2126  0.1430
  187SAPI   C2221466   4.970   5.483   6.970 -0.5663 -0.6647  0.3661
  187SAPI   H2R21467   4.864   5.455   6.986 -0.8754  0.1088 -0.2464
  187SAPI   H2S21468   5.047   5.403   6.963  0.3302  0.3243 -2.9374
  187SAPI    C321469   4.671   5.601   6.631  0.5983  0.5209 -0.3832
  187SAPI    HX21470   4.625   5.500   6.642 -1.7418  1.4820 -0.8166
  187SAPI    HY21471   4.667   5.637   6.526 -2.0815 -0.2068 -0.6056
  187SAPI   O3121472   4.611   5.696   6.724  0.0310 -0.5076 -0.3923
  187SAPI   C3121473   4.497   5.752   6.674  0.3749 -0.3088 -0.0135
  187SAPI   O3221474   4.444   5.712   6.571  0.2809  0.2255  0.2792
  187SAPI   C3221475   4.457   5.871   6.753  0.7573  0.2180  0.6286
  187SAPI   H2X21476   4.525   5.958   6.752 -1.0495  1.7147 -0.6813
  187SAPI   H2Y21477   4.455   5.835   6.858 -0.8286 -3.0845 -0.3939
  187SAPI   C2321478   5.002   5.601   7.072  0.1565 -0.2574 -0.2217
  187SAPI   H3R21479   5.112   5.609   7.071  0.2302 -1.2017 -0.7933
  187SAPI   H3S21480   4.970   5.568   7.173  2.1068  0.5541  0.7107
  187SAPI   C2421481   4.928   5.733   7.034 -0.3648 -0.3869  0.0969
  187SAPI   H4R21482   4.818   5.719   7.034 -0.4305 -0.0417 -1.4471
  187SAPI   H4S21483   4.957   5.758   6.930  1.6812  2.4204  1.2163
  187SAPI   C2521484   4.971   5.849   7.123  0.4074 -0.2566  0.3867
  187SAPI   H5R21485   5.079   5.865   7.142  0.4586  0.3317 -0.3103
  187SAPI   C2621486   4.885   5.943   7.180  0.4570 -0.0699 -0.0443
  187SAPI   H6R21487   4.937   6.029   7.225 -1.1087  1.5041 -1.1093
  187SAPI   C2721488   4.738   5.958   7.167  0.1977 -0.0645 -0.0841
  187SAPI   H7R21489   4.681   5.884   7.228 -1.9333  2.1655  0.7973
  187SAPI   H7S21490   4.700   5.913   7.073 -1.7127 -2.7189  1.8101
  187SAPI   C2821491   4.680   6.096   7.191 -0.1710  0.9708 -0.6213
  187SAPI   H8R21492   4.636   6.139   7.100 -2.3671 -0.0398 -0.0955
  187SAPI   C2921493   4.654   6.151   7.310 -0.2852  0.1074 -0.8070
  187SAPI   H9R21494   4.615   6.253   7.310  4.1622  2.1225  2.0358
  187SAPI  C21021495   4.687   6.096   7.445 -0.2417  0.1148 -0.3351
  187SAPI  H10R21496   4.702   5.987   7.433  1.9449  0.2763  0.5070
  187SAPI  H10S21497   4.599   6.113   7.512 -0.2385  1.5391 -0.6559
  187SAPI  C21121498   4.805   6.164   7.510 -0.7162 -0.0314  0.4586
  187SAPI  H11R21499   4.836   6.254   7.456  1.0560 -1.7399 -1.5630
  187SAPI  C21221500   4.870   6.124   7.616 -0.1650 -0.6163 -0.1014
  187SAPI  H12R21501   4.953   6.187   7.652 -1.2772  1.2955 -0.7295
  187SAPI  C21321502   4.830   6.008   7.707  0.5041  0.0087  0.2371
  187SAPI  H13R21503   4.887   5.922   7.669  3.4144  2.1164 -0.5233
  187SAPI  H13S21504   4.722   5.985   7.697  0.4997 -0.3315  0.9783
  187SAPI  C21421505   4.845   6.043   7.849 -0.6621  0.6136  0.2289
  187SAPI  H14R21506   4.803   6.138   7.884  2.4763  1.5539  1.8998
  187SAPI  C21521507   4.890   5.953   7.942 -1.3199  0.3372 -0.0053
  187SAPI  H15R21508   4.899   5.983   8.047 -2.6648 -0.8093  0.4602
  187SAPI  C21621509   4.937   5.811   7.928  1.0576 -0.0171  0.2514
  187SAPI  H16R21510   5.036   5.801   7.976  1.2544 -0.5542 -0.2517
  187SAPI  H16S21511   4.949   5.790   7.819 -0.7825  2.5689 -0.5474
  187SAPI  C21721512   4.836   5.711   7.994 -0.1115 -0.1054 -0.0794
  187SAPI  H17R21513   4.877   5.608   7.988  2.2130  0.8479 -1.6282
  187SAPI  H17S21514   4.741   5.715   7.935 -0.4507 -1.0842  0.3804
  187SAPI  C21821515   4.791   5.747   8.133  0.4067 -0.3068  0.3280
  187SAPI  H18R21516   4.730   5.840   8.130 -0.0352 -0.6038 -2.1081
  187SAPI  H18S21517   4.875   5.787   8.194 -1.2111  4.3139 -0.0784
  187SAPI  C21921518   4.718   5.645   8.211  0.2309  1.1956  0.0911
  187SAPI  H19R21519   4.772   5.548   8.205  0.9581  1.5597  0.6496
  187SAPI  H19S21520   4.618   5.622   8.169 -0.0130 -0.5708  1.4859
  187SAPI  C22021521   4.696   5.674   8.354 -0.8812 -0.7722  0.1700
  187SAPI  H20R21522   4.634   5.765   8.367 -0.0139 -0.0595 -0.4820
  187SAPI  H20S21523   4.795   5.687   8.402 -1.5945 -2.4900  2.2466
  187SAPI  H20T21524   4.649   5.587   8.405 -3.4225 -0.9159 -2.1816
  187SAPI   C3321525   4.307   5.922   6.706 -0.9480 -0.0576 -0.4573
  187SAPI   H3X21526   4.227   5.851   6.735 -0.4524 -0.2197  0.5571
  187SAPI   H3Y21527   4.315   5.921   6.595 -1.5387 -4.5007 -0.6427
  187SAPI   C3421528   4.271   6.066   6.743 -0.3002  0.1048  0.2089
  187SAPI   H4X21529   4.169   6.087   6.705 -1.2213 -1.2302  1.7963
  187SAPI   H4Y21530   4.348   6.138   6.707  1.8776 -0.4366  3.3280
  187SAPI   C3521531   4.266   6.087   6.893  0.3498  0.3348  0.2067
  187SAPI   H5X21532   4.242   6.193   6.913  0.7374  0.6913 -1.0929
  187SAPI   H5Y21533   4.366   6.077   6.939  0.0090 -1.3055  0.6585
  187SAPI   C3621534   4.160   6.005   6.963  0.1478  0.6834  0.1823
  187SAPI   H6X21535   4.197   5.901   6.969  2.3911  1.4491  0.7753
  187SAPI   H6Y21536   4.067   5.999   6.903  0.2332 -1.3129  0.2011
  187SAPI   C3721537   4.123   6.051   7.111 -0.0443  0.3195  0.0465
  187SAPI   H7X21538   4.034   5.998   7.150  0.3475 -0.9942 -0.7962
  187SAPI   H7Y21539   4.107   6.161   7.105  1.4707  0.4757 -3.2820
  187SAPI   C3821540   4.230   6.012   7.213 -0.4256  0.1513 -0.6827
  187SAPI   H8X21541   4.317   6.078   7.194 -0.3961 -0.0516 -1.2558
  187SAPI   H8Y21542   4.265   5.907   7.206  0.1357 -0.1483  3.6873
  187SAPI   C3921543   4.187   6.027   7.358  0.9596 -0.4521  0.5385
  187SAPI   H9X21544   4.087   5.980   7.369  0.1116  0.8898 -0.9919
  187SAPI   H9Y21545   4.181   6.134   7.389 -2.4245 -0.1733 -0.6264
  187SAPI  C31021546   4.283   5.963   7.460  0.0308  0.0883  0.4225
  187SAPI  H10X21547   4.389   5.994   7.449 -0.3252  1.4656  0.6734
  187SAPI  H10Y21548   4.278   5.854   7.443 -1.4436  0.3666 -1.1366
  187SAPI  C31121549   4.238   6.001   7.603  0.2627  0.3627 -0.3959
  187SAPI  H11X21550   4.131   5.977   7.620  0.8313 -1.1900  1.2884
  187SAPI  H11Y21551   4.257   6.109   7.622  0.9447  0.2484 -0.4066
  187SAPI  C31221552   4.314   5.929   7.714  0.3975  1.2533  0.2766
  187SAPI  H12X21553   4.420   5.931   7.682 -0.0312  0.7101 -1.2768
  187SAPI  H12Y21554   4.289   5.821   7.722  0.2517  1.3916  1.9552
  187SAPI  C31321555   4.300   5.990   7.855  0.0081 -0.2920 -0.5129
  187SAPI  H13X21556   4.196   5.992   7.892  0.8765  0.9721  2.1108
  187SAPI  H13Y21557   4.338   6.094   7.848  1.1856 -0.6563  0.1117
  187SAPI  C31421558   4.394   5.919   7.958 -0.3294  0.6189 -0.4124
  187SAPI  H14X21559   4.498   5.939   7.926 -0.1384 -1.3609 -1.1769
  187SAPI  H14Y21560   4.379   5.810   7.941  1.6908  0.4502 -1.3869
  187SAPI  C31521561   4.375   5.942   8.109  0.0956 -0.1140  0.1371
  187SAPI  H15X21562   4.372   6.051   8.129  0.2565 -0.1451  0.3296
  187SAPI  H15Y21563   4.466   5.907   8.161  0.8847  1.2879 -0.2407
  187SAPI  C31621564   4.259   5.870   8.172  0.8263 -0.3198 -0.1745
  187SAPI  H16X21565   4.274   5.761   8.151  1.7532 -0.2916  0.2856
  187SAPI  H16Y21566   4.163   5.907   8.130 -1.0944 -0.9056  3.3109
  187SAPI  C31721567   4.249   5.874   8.328  0.6385 -0.3267  0.7145
  187SAPI  H17X21568   4.267   5.975   8.372  2.4033 -1.6881  3.3629
  187SAPI  H17Y21569   4.346   5.827   8.355  1.0038 -0.8453 -1.3355
  187SAPI  C31821570   4.132   5.797   8.392  0.7792  0.1901  0.3742
  187SAPI  H18X21571   4.032   5.832   8.360  1.2072  0.5706 -0.5635
  187SAPI  H18Y21572   4.131   5.808   8.503  0.1861  0.5650  0.3357
  187SAPI  H18Z21573   4.127   5.688   8.368  0.8718  0.1884  0.3638
  188SAPI   C1221574   6.195   1.823   6.310  0.1272  0.0913  0.3940
  188SAPI    H221575   6.209   1.860   6.414 -0.5007  0.3520  0.3935
  188SAPI    O221576   6.185   1.678   6.292  0.2592  0.0263  0.1669
  188SAPI   HO221577   6.194   1.629   6.374  1.4895  1.6618  1.0724
  188SAPI   C1321578   6.056   1.878   6.278  0.6470  0.1016  0.1845
  188SAPI    H321579   6.054   1.987   6.299  0.3581 -0.0909  1.1976
  188SAPI    O321580   5.954   1.823   6.370 -0.3191  0.3555  0.7000
  188SAPI   HO321581   5.960   1.728   6.367 -0.2964  0.3481 -2.1468
  188SAPI   C1421582   6.021   1.849   6.131 -0.5357  0.5072 -0.3357
  188SAPI    H421583   6.020   1.739   6.116 -0.0832  0.4174  0.2409
  188SAPI    O421584   5.889   1.900   6.107 -0.4265 -0.3253 -0.0973
  188SAPI   HO421585   5.886   1.995   6.115 -3.6613 -0.3975  1.0780
  188SAPI   C1521586   6.122   1.918   6.043 -1.2272  1.2465 -0.4652
  188SAPI    H521587   6.118   2.025   6.072 -3.5301  0.5990  2.0098
  188SAPI    O521588   6.097   1.910   5.901 -0.1706  0.1552  0.0780
  188SAPI   HO521589   6.160   1.964   5.852  1.2248 -2.4199 -1.1568
  188SAPI   C1621590   6.259   1.856   6.069 -0.4048  0.0333 -0.3041
  188SAPI    H621591   6.257   1.747   6.050  2.6955  0.0372 -1.1708
  188SAPI    O621592   6.361   1.903   5.974  0.5082 -0.4815 -0.0520
  188SAPI   HO621593   6.402   1.976   6.022  1.8763 -1.4214  0.2695
  188SAPI   C1121594   6.298   1.883   6.216  0.2659 -0.2055  0.1708
  188SAPI    H121595   6.289   1.992   6.237 -1.9591 -0.2645 -0.2613
  188SAPI     P21596   6.527   1.902   6.359  0.2319  0.2951  0.0260
  188SAPI   O1321597   6.515   2.052   6.361  0.1747  0.0766  0.2460
  188SAPI   O1421598   6.661   1.844   6.342 -0.1147 -0.2850 -0.9470
  188SAPI   O1221599   6.428   1.832   6.242 -0.2269 -0.5585  0.3078
  188SAPI   O1121600   6.451   1.841   6.486  0.1913  0.1732  0.1993
  188SAPI    C121601   6.520   1.811   6.608 -0.6556 -0.3622 -0.4530
  188SAPI    HA21602   6.611   1.751   6.591 -0.0684  0.9633 -2.2254
  188SAPI    HB21603   6.543   1.902   6.668 -1.8275  0.3984 -1.0995
  188SAPI    C221604   6.427   1.716   6.688 -0.0952  0.1956 -0.4195
  188SAPI    HS21605   6.440   1.614   6.645  0.7999 -0.5549  1.5307
  188SAPI   O2121606   6.292   1.765   6.694  0.1083  0.1774 -0.5027
  188SAPI   C2121607   6.204   1.670   6.706 -0.4103 -0.2780  0.0342
  188SAPI   O2221608   6.228   1.551   6.704 -0.6991 -0.2094 -0.4886
  188SAPI   C2221609   6.065   1.727   6.713 -0.3214  0.0059  0.0461
  188SAPI   H2R21610   6.053   1.804   6.634 -1.0673  0.2769  0.4155
  188SAPI   H2S21611   5.987   1.651   6.690 -2.2146  1.5941  0.8978
  188SAPI    C321612   6.482   1.706   6.834  0.4414 -0.6070 -0.0783
  188SAPI    HX21613   6.471   1.807   6.880  1.1093 -0.9531  0.8782
  188SAPI    HY21614   6.587   1.677   6.812  0.2986 -1.3671  0.2299
  188SAPI   O3121615   6.419   1.606   6.915  0.5454 -0.0023  0.1630
  188SAPI   C3121616   6.453   1.487   6.893 -0.0361  0.4809  0.6176
  188SAPI   O3221617   6.516   1.444   6.797 -0.4622 -0.7859 -0.0283
  188SAPI   C3221618   6.385   1.394   6.993 -0.4005 -0.3271 -0.6060
  188SAPI   H2X21619   6.282   1.372   6.959 -0.3795 -0.4132 -0.6129
  188SAPI   H2Y21620   6.391   1.455   7.086  0.7504 -1.6628  0.2342
  188SAPI   C2321621   6.030   1.814   6.843  0.0467 -0.4245 -0.5383
  188SAPI   H3R21622   6.111   1.886   6.865 -0.4316 -0.4137  1.3871
  188SAPI   H3S21623   6.013   1.749   6.932 -2.2630  0.7996  0.0071
  188SAPI   C2421624   5.898   1.896   6.830 -0.1768  0.5110 -0.0098
  188SAPI   H4R21625   5.847   1.903   6.928 -3.9070  1.3451 -1.8056
  188SAPI   H4S21626   5.823   1.850   6.762 -0.6939 -0.6488  1.3178
  188SAPI   C2521627   5.926   2.036   6.777  0.0786  0.1841  0.1890
  188SAPI   H5R21628   5.995   2.041   6.692  2.2570  1.5629  1.9501
  188SAPI   C2621629   5.895   2.151   6.831 -0.0694  0.6874 -0.0023
  188SAPI   H6R21630   5.923   2.236   6.768 -0.0103 -0.1660 -1.1455
  188SAPI   C2721631   5.814   2.179   6.953 -0.1484 -0.1317 -0.2013
  188SAPI   H7R21632   5.850   2.111   7.034  0.5763 -0.6188 -0.9149
  188SAPI   H7S21633   5.710   2.141   6.945  0.3526 -1.8426  0.7015
  188SAPI   C2821634   5.807   2.324   6.998  0.0693  0.6570  0.5546
  188SAPI   H8R21635   5.791   2.387   6.909  1.8969 -1.6794 -1.5858
  188SAPI   C2921636   5.829   2.375   7.124  0.3285 -0.1585  0.3159
  188SAPI   H9R21637   5.844   2.483   7.133  1.2817 -0.1760 -0.8617
  188SAPI  C21021638   5.870   2.301   7.250 -0.0155 -0.4634 -0.2857
  188SAPI  H10R21639   5.978   2.281   7.235 -0.1031 -0.2471 -1.2859
  188SAPI  H10S21640   5.815   2.205   7.244 -0.6581 -0.4649  3.2852
  188SAPI  C21121641   5.826   2.380   7.375  0.5888  0.0587  0.1842
  188SAPI  H11R21642   5.764   2.467   7.349  0.0925 -0.8030 -1.7658
  188SAPI  C21221643   5.854   2.351   7.498  0.0228  0.1540 -0.6033
  188SAPI  H12R21644   5.826   2.412   7.585  1.6322 -1.8104  1.3932
  188SAPI  C21321645   5.928   2.222   7.540  0.2713 -0.6468  0.3724
  188SAPI  H13R21646   6.017   2.259   7.595  0.2141  1.8442 -1.0478
  188SAPI  H13S21647   5.973   2.169   7.454 -0.1445  0.8879 -0.8498
  188SAPI  C21421648   5.845   2.133   7.625 -0.2728  0.6932  0.2675
  188SAPI  H14R21649   5.794   2.166   7.717 -2.3049  1.4908 -1.0660
  188SAPI  C21521650   5.853   1.997   7.621  0.3505 -0.4738 -0.6409
  188SAPI  H15R21651   5.791   1.934   7.687 -1.1412 -0.7352 -2.1956
  188SAPI  C21621652   5.941   1.919   7.526  0.5012 -0.6360 -1.1184
  188SAPI  H16R21653   5.963   1.818   7.568 -0.3066 -0.9760 -1.4688
  188SAPI  H16S21654   6.035   1.973   7.506  0.3214 -0.2282 -0.8600
  188SAPI  C21721655   5.875   1.890   7.393 -0.5346  0.0940  0.1805
  188SAPI  H17R21656   5.823   1.983   7.358  0.7842  0.8934  0.2651
  188SAPI  H17S21657   5.809   1.802   7.403  1.8505 -1.7331  0.7625
  188SAPI  C21821658   5.969   1.845   7.278 -1.0175  0.3883  0.0157
  188SAPI  H18R21659   6.042   1.925   7.256  0.8946 -1.3786 -0.3180
  188SAPI  H18S21660   5.911   1.833   7.184 -0.1893 -0.3089 -0.4134
  188SAPI  C21921661   6.048   1.714   7.311  0.3683 -0.7574  0.0691
  188SAPI  H19R21662   5.973   1.636   7.336  0.1770 -0.7092 -0.3388
  188SAPI  H19S21663   6.114   1.734   7.398  0.0573  1.5287 -0.1388
  188SAPI  C22021664   6.141   1.653   7.204 -0.2917  0.3826  0.6156
  188SAPI  H20R21665   6.202   1.568   7.240  1.0959  0.6743 -0.9299
  188SAPI  H20S21666   6.210   1.732   7.166 -0.3038  1.1827  2.1450
  188SAPI  H20T21667   6.076   1.629   7.117 -0.2045  1.6025  0.1961
  188SAPI   C3321668   6.473   1.263   7.015  0.3289  0.1605 -0.0615
  188SAPI   H3X21669   6.581   1.289   7.017  0.9809 -2.1772 -1.4090
  188SAPI   H3Y21670   6.457   1.192   6.930 -0.1837 -1.5120  1.3777
  188SAPI   C3421671   6.446   1.206   7.155  0.0218 -0.3208  0.3612
  188SAPI   H4X21672   6.498   1.109   7.138  1.6015  0.7574 -1.4674
  188SAPI   H4Y21673   6.340   1.178   7.172 -0.3029  0.0142 -0.9513
  188SAPI   C3521674   6.504   1.276   7.279 -0.2794 -0.1860 -1.2177
  188SAPI   H5X21675   6.444   1.369   7.287  1.7749  1.0473  0.7460
  188SAPI   H5Y21676   6.614   1.292   7.274 -0.2100  0.8409  1.6299
  188SAPI   C3621677   6.485   1.203   7.412  0.5812  0.1360  0.8689
  188SAPI   H6X21678   6.540   1.109   7.392 -0.0873 -0.1056  0.0947
  188SAPI   H6Y21679   6.375   1.188   7.419  0.6110 -0.8159 -0.3090
  188SAPI   C3721680   6.531   1.256   7.550 -0.0954  0.7595 -0.0673
  188SAPI   H7X21681   6.485   1.357   7.561 -0.7951  0.2978  1.5866
  188SAPI   H7Y21682   6.639   1.277   7.538  0.0669 -0.0238 -0.0196
  188SAPI   C3821683   6.495   1.163   7.662 -0.0154 -0.5258 -0.4532
  188SAPI   H8X21684   6.522   1.058   7.637 -1.2944 -1.5255  1.9979
  188SAPI   H8Y21685   6.385   1.174   7.675  0.2552  1.3391  0.5763
  188SAPI   C3921686   6.563   1.207   7.790  0.6222  0.2455 -0.0566
  188SAPI   H9X21687   6.673   1.205   7.773  0.4967 -2.7320 -1.1451
  188SAPI   H9Y21688   6.536   1.139   7.874  2.2330  0.8449  0.9972
  188SAPI  C31021689   6.533   1.348   7.835 -0.6678  0.2953 -0.8757
  188SAPI  H10X21690   6.423   1.359   7.825 -0.9573 -2.1197 -0.8628
  188SAPI  H10Y21691   6.585   1.426   7.774 -0.1177 -0.0658 -0.8810
  188SAPI  C31121692   6.568   1.358   7.984 -0.8336 -0.6510  0.3382
  188SAPI  H11X21693   6.673   1.329   8.006  0.0670  0.2106 -2.3190
  188SAPI  H11Y21694   6.508   1.275   8.026 -2.6230 -1.0185 -2.6224
  188SAPI  C31221695   6.538   1.496   8.034  0.4380 -0.0683  0.7573
  188SAPI  H12X21696   6.443   1.540   7.997  1.6646  2.8932  0.8195
  188SAPI  H12Y21697   6.611   1.571   7.996 -0.7208  1.5830  1.6465
  188SAPI  C31321698   6.537   1.506   8.185  0.1058  0.5618 -0.8593
  188SAPI  H13X21699   6.632   1.481   8.238  0.0442 -1.4923 -1.6158
  188SAPI  H13Y21700   6.479   1.419   8.222  0.5911 -0.5490 -2.5561
  188SAPI  C31421701   6.475   1.634   8.246  0.0087  0.3218  0.1174
  188SAPI  H14X21702   6.367   1.624   8.222 -0.0927  1.1381  0.2083
  188SAPI  H14Y21703   6.504   1.725   8.189 -3.6081  0.3172 -2.0830
  188SAPI  C31521704   6.507   1.649   8.396  0.3137 -0.2964  0.4834
  188SAPI  H15X21705   6.503   1.757   8.421  3.7630  0.4431 -1.5321
  188SAPI  H15Y21706   6.614   1.624   8.413  1.5531  2.7983 -1.8108
  188SAPI  C31621707   6.408   1.578   8.494  0.0694 -0.6813 -0.5312
  188SAPI  H16X21708   6.445   1.603   8.596 -0.8767 -0.5544 -0.2164
  188SAPI  H16Y21709   6.399   1.468   8.478  2.6862 -0.9351 -0.8229
  188SAPI  C31721710   6.269   1.644   8.484  0.0902  0.6542  1.2981
  188SAPI  H17X21711   6.236   1.651   8.378  2.6624 -0.0699  0.3822
  188SAPI  H17Y21712   6.273   1.750   8.517  0.0938  1.5740 -1.3947
  188SAPI  C31821713   6.158   1.582   8.566 -0.0535  0.3954 -0.1077
  188SAPI  H18X21714   6.058   1.628   8.550 -0.7061 -0.3315  1.5709
  188SAPI  H18Y21715   6.178   1.587   8.675  0.5128  1.1146 -0.2384
  188SAPI  H18Z21716   6.146   1.477   8.532 -0.4467  0.4163 -0.0413
  189POPC     N21717   6.478   1.322  10.891 -0.2461  0.2203 -0.5538
  189POPC   C1221718   6.454   1.472  10.863  0.2871  0.3266  0.0662
  189POPC  H12A21719   6.352   1.491  10.833  0.3573  0.2913 -0.2018
  189POPC  H12B21720   6.518   1.500  10.780 -2.5769  1.9647 -1.7572
  189POPC   C1321721   6.624   1.294  10.892  0.5172  0.0391 -0.8509
  189POPC  H13A21722   6.642   1.192  10.922 -1.7372  0.0867  0.9072
  189POPC  H13B21723   6.659   1.302  10.790  1.6417 -0.4843 -0.5206
  189POPC  H13C21724   6.677   1.366  10.953  0.4310  2.1131 -3.0544
  189POPC   C1421725   6.427   1.284  11.032  0.4875  0.5933 -0.0638
  189POPC  H14A21726   6.327   1.323  11.045  0.4484  0.6052 -0.3907
  189POPC  H14B21727   6.412   1.178  11.045  1.5046  0.0613 -2.6831
  189POPC  H14C21728   6.492   1.319  11.111  2.0326  1.0488 -1.4910
  189POPC   C1521729   6.407   1.247  10.779 -0.1420  0.1322 -0.0572
  189POPC  H15A21730   6.441   1.144  10.781 -1.8495 -0.4911 -0.8260
  189POPC  H15B21731   6.438   1.285  10.683 -0.7418  0.9985  0.0866
  189POPC  H15C21732   6.300   1.250  10.791 -0.0578  2.8984  0.4829
  189POPC   C1121733   6.486   1.560  10.982  0.1662 -0.4930 -0.7665
  189POPC  H11A21734   6.420   1.530  11.067 -0.2457 -2.1409 -1.6056
  189POPC  H11B21735   6.459   1.664  10.957  2.0429  0.2115  0.0174
  189POPC     P21736   6.738   1.643  10.975  0.0169 -0.0528 -0.1236
  189POPC   O1321737   6.847   1.560  10.923 -0.3131  0.5162 -0.0339
  189POPC   O1421738   6.768   1.731  11.088 -0.5121  0.1754 -0.6095
  189POPC   O1221739   6.621   1.548  11.018  0.3667 -0.5631  0.1909
  189POPC   O1121740   6.674   1.724  10.861  0.2191 -0.1793  0.3645
  189POPC    C121741   6.735   1.846  10.805 -0.4478  0.2021  0.2093
  189POPC    HA21742   6.844   1.851  10.826 -0.3580  1.2975 -0.4385
  189POPC    HB21743   6.697   1.937  10.857 -1.0733  1.2445 -1.9569
  189POPC    C221744   6.709   1.858  10.655 -0.2925 -0.9058  0.0248
  189POPC    HS21745   6.599   1.846  10.644 -0.3059 -1.7255  0.8980
  189POPC   O2121746   6.780   1.758  10.586  0.5684  0.1196 -0.4687
  189POPC   C2121747   6.713   1.645  10.563 -1.1850 -0.8743  0.4170
  189POPC   O2221748   6.598   1.619  10.580  0.0932  0.1203 -0.0984
  189POPC   C2221749   6.812   1.556  10.479  0.3888 -0.4446 -0.0114
  189POPC   H2R21750   6.830   1.462  10.536  1.1531 -0.6814 -0.6373
  189POPC   H2S21751   6.904   1.616  10.464 -0.1155 -0.2571 -2.9253
  189POPC    C321752   6.740   1.996  10.609 -0.7105 -0.8757  0.4738
  189POPC    HX21753   6.845   2.032  10.622 -0.9801 -1.0040  3.7056
  189POPC    HY21754   6.690   2.069  10.675  0.1657  1.7249 -1.5387
  189POPC   O3121755   6.688   2.021  10.476 -0.2208 -0.3108  0.6496
  189POPC   C3121756   6.778   2.019  10.381  0.3793 -0.2080  0.4025
  189POPC   O3221757   6.897   2.002  10.390 -0.2895 -0.2071 -0.2209
  189POPC   C3221758   6.711   2.050  10.247 -0.6805 -0.4781  0.4312
  189POPC   H2X21759   6.677   2.155  10.255  4.1007  1.6795 -2.8180
  189POPC   H2Y21760   6.622   1.985  10.235 -0.2325 -0.9490 -0.5404
  189POPC   C2321761   6.746   1.518  10.343 -0.5462 -0.3206 -0.0390
  189POPC   H3R21762   6.652   1.461  10.354 -1.1219  0.4172 -0.9714
  189POPC   H3S21763   6.818   1.450  10.292  0.3262  0.3509  0.2604
  189POPC   C2421764   6.709   1.637  10.255  0.1438 -0.0371 -0.8371
  189POPC   H4R21765   6.803   1.682  10.218 -0.1215 -0.2681 -1.8571
  189POPC   H4S21766   6.665   1.724  10.307 -0.5766 -0.6295 -0.4361
  189POPC   C2521767   6.621   1.597  10.139 -0.0835  0.4288 -0.4196
  189POPC   H5R21768   6.536   1.539  10.182 -0.8479  1.3729 -0.6186
  189POPC   H5S21769   6.676   1.526  10.074  2.0342  0.0268  1.6767
  189POPC   C2621770   6.561   1.716  10.056  0.7789 -0.0532  0.3944
  189POPC   H6R21771   6.654   1.763  10.017  1.4115 -2.0778 -0.7388
  189POPC   H6S21772   6.492   1.768  10.126 -1.3539 -1.6534 -0.3903
  189POPC   C2721773   6.476   1.665   9.934  0.4779 -0.0258  0.0988
  189POPC   H7R21774   6.390   1.600   9.960  0.8521 -1.1070 -1.2480
  189POPC   H7S21775   6.545   1.611   9.866 -2.4557 -1.4108 -1.9558
  189POPC   C2821776   6.419   1.785   9.852 -0.2385  0.1691 -0.6478
  189POPC   H8R21777   6.495   1.865   9.844  0.1559 -0.2235 -0.8917
  189POPC   H8S21778   6.341   1.834   9.913  0.6244  1.2852 -0.4145
  189POPC   C2921779   6.352   1.744   9.725  0.0791 -0.8037 -0.4074
  189POPC   H9121780   6.261   1.684   9.736  0.3112 -1.3898 -1.5394
  189POPC  C21021781   6.391   1.783   9.598  0.5468  0.2824 -0.3994
  189POPC  H10121782   6.321   1.763   9.515 -2.8265  1.0262  2.0707
  189POPC  C21121783   6.502   1.878   9.560 -0.1617 -0.4626  0.5683
  189POPC  H11R21784   6.578   1.894   9.639  0.3983  1.8981 -0.3691
  189POPC  H11S21785   6.453   1.973   9.530 -0.5065 -0.8176 -0.0246
  189POPC  C21221786   6.579   1.825   9.438  0.3902  0.2960 -0.6915
  189POPC  H12R21787   6.614   1.724   9.469 -1.0897  0.0532  0.2640
  189POPC  H12S21788   6.664   1.896   9.424  1.9137 -0.9429  1.6658
  189POPC  C21321789   6.500   1.805   9.308  0.6182 -0.0501  0.1788
  189POPC  H13R21790   6.416   1.736   9.332 -0.6575  0.7237 -1.8209
  189POPC  H13S21791   6.559   1.742   9.238  1.4249  0.7049  0.1579
  189POPC  C21421792   6.461   1.933   9.223  0.7395 -0.4768 -0.8582
  189POPC  H14R21793   6.554   1.981   9.185 -0.1390  2.7791  0.6964
  189POPC  H14S21794   6.401   2.011   9.275  2.7162  1.1331 -0.8590
  189POPC  C21521795   6.384   1.900   9.095  0.6739  0.0810  0.3953
  189POPC  H15R21796   6.372   1.996   9.040 -2.0737 -0.0650  0.6166
  189POPC  H15S21797   6.280   1.873   9.123  1.6566 -1.9341  2.4164
  189POPC  C21621798   6.445   1.797   8.999 -0.3226 -0.3987 -0.0024
  189POPC  H16R21799   6.373   1.789   8.915 -1.3025 -3.2364  0.9692
  189POPC  H16S21800   6.450   1.694   9.040  0.2654 -0.3291  0.1143
  189POPC  C21721801   6.584   1.848   8.956  0.1009 -0.1356 -0.3019
  189POPC  H17R21802   6.659   1.827   9.035 -3.3119  1.5710  3.7348
  189POPC  H17S21803   6.595   1.958   8.943  0.9241 -0.1384  0.2785
  189POPC  C21821804   6.634   1.802   8.823 -0.3502 -0.2454  0.8623
  189POPC  H18R21805   6.558   1.836   8.750 -0.6554 -0.1571  1.2144
  189POPC  H18S21806   6.648   1.692   8.823  1.3985 -0.0616  0.7559
  189POPC  H18T21807   6.737   1.844   8.815 -0.4867 -0.2237 -1.0545
  189POPC   C3321808   6.819   2.031  10.137 -0.0771  0.1461 -0.2913
  189POPC   H3X21809   6.820   1.922  10.115 -0.2078  0.2867 -1.0164
  189POPC   H3Y21810   6.919   2.075  10.161  0.1691 -0.3300 -0.4265
  189POPC   C3421811   6.784   2.107  10.007 -0.0968  0.1402 -0.2597
  189POPC   H4X21812   6.801   2.217  10.013  0.3371  0.1035 -0.7356
  189POPC   H4Y21813   6.675   2.095   9.993 -0.2200  0.5624  0.2844
  189POPC   C3521814   6.847   2.046   9.884  0.3430  0.1528 -0.3099
  189POPC   H5X21815   6.816   1.939   9.885  1.3260 -0.1423  0.5746
  189POPC   H5Y21816   6.957   2.041   9.899  0.0622 -0.1459  1.8979
  189POPC   C3621817   6.798   2.098   9.748  0.2766 -0.0784 -0.9151
  189POPC   H6X21818   6.825   2.205   9.741  2.5462 -0.0640  3.9940
  189POPC   H6Y21819   6.690   2.075   9.740  0.4840 -0.8255 -1.7414
  189POPC   C3721820   6.871   2.024   9.636  0.8302 -0.2936 -0.0433
  189POPC   H7X21821   6.819   1.927   9.619  0.2048  0.1595 -0.7754
  189POPC   H7Y21822   6.975   2.009   9.670  0.9736 -2.3728 -1.2223
  189POPC   C3821823   6.864   2.113   9.507 -0.6716  0.0718 -0.6199
  189POPC   H8X21824   6.896   2.217   9.527  1.9800 -0.5226 -1.4621
  189POPC   H8Y21825   6.755   2.122   9.486 -0.6706 -0.6835 -0.9851
  189POPC   C3921826   6.954   2.053   9.397  1.0687 -0.1038  0.3024
  189POPC   H9X21827   6.921   1.947   9.384 -3.2514  1.1529 -0.4050
  189POPC   H9Y21828   7.064   2.058   9.415  1.2237  0.5266 -0.7591
  189POPC  C31021829   6.928   2.122   9.263  0.4323 -0.2483 -0.4388
  189POPC  H10X21830   7.011   2.109   9.191  2.5322  0.5350  1.7245
  189POPC  H10Y21831   6.932   2.233   9.273  2.2056 -0.0364 -2.5893
  189POPC  C31121832   6.796   2.082   9.201 -0.2101  0.1136 -0.1057
  189POPC  H11X21833   6.718   2.104   9.277  0.8896  0.5779  0.9077
  189POPC  H11Y21834   6.789   1.972   9.185 -2.6758  0.1734  0.1977
  189POPC  C31221835   6.775   2.151   9.064 -0.3406 -0.3428  0.9144
  189POPC  H12X21836   6.772   2.261   9.078 -1.2121 -0.1628 -0.4587
  189POPC  H12Y21837   6.670   2.126   9.036 -0.8345 -0.3934  2.7178
  189POPC  C31321838   6.873   2.117   8.953 -0.3164 -0.2224  0.9455
  189POPC  H13X21839   6.893   2.008   8.939 -0.0301 -0.1961  1.1438
  189POPC  H13Y21840   6.967   2.163   8.990  0.7484 -0.2492 -1.5200
  189POPC  C31421841   6.833   2.185   8.825 -0.2294  1.0696  0.5193
  189POPC  H14X21842   6.766   2.272   8.843  1.3066  2.4175 -0.1025
  189POPC  H14Y21843   6.764   2.113   8.775  1.0520 -0.0585  0.3311
  189POPC  C31521844   6.948   2.240   8.744 -0.6950 -0.1437  0.2340
  189POPC  H15X21845   7.003   2.159   8.690  3.2498  1.8415  0.9224
  189POPC  H15Y21846   7.015   2.295   8.812  1.7017 -0.1059 -2.0214
  189POPC  C31621847   6.891   2.344   8.643 -0.1756  0.5475 -0.3294
  189POPC  H16X21848   6.973   2.358   8.570  0.8406 -1.4551  0.3740
  189POPC  H16Y21849   6.851   2.433   8.698  1.4674  1.0801  0.0681
  189POPC  H16Z21850   6.812   2.291   8.585  2.1789 -3.4265 -0.2108
  190POPC     N21851   2.468   5.599  11.308 -0.3213  0.8304  0.3652
  190POPC   C1221852   2.537   5.505  11.208  0.1248 -0.0088 -0.1081
  190POPC  H12A21853   2.620   5.459  11.260  0.0877 -1.1888 -1.0572
  190POPC  H12B21854   2.582   5.568  11.133  0.5875  0.3683  0.4730
  190POPC   C1321855   2.419   5.533  11.430  0.3189 -0.5273 -0.5805
  190POPC  H13A21856   2.410   5.599  11.515 -2.0750 -2.5111  0.8589
  190POPC  H13B21857   2.328   5.474  11.424 -1.2297  1.6986 -0.3316
  190POPC  H13C21858   2.496   5.465  11.463  0.7624 -0.4647 -1.4668
  190POPC   C1421859   2.553   5.709  11.345  0.7282 -0.4322  0.6519
  190POPC  H14A21860   2.639   5.690  11.408 -0.6153 -1.5913  2.2384
  190POPC  H14B21861   2.579   5.772  11.261  0.6754 -0.1273  0.8614
  190POPC  H14C21862   2.501   5.766  11.421  0.4321  0.0242  0.1122
  190POPC   C1521863   2.352   5.663  11.244 -0.4874  0.2511  0.0073
  190POPC  H15A21864   2.274   5.691  11.313 -0.0823  0.6261  0.3122
  190POPC  H15B21865   2.303   5.593  11.177  1.3022 -1.4777  0.4021
  190POPC  H15C21866   2.381   5.750  11.187  0.3097 -0.1654 -0.2411
  190POPC   C1121867   2.462   5.398  11.133 -0.2907 -0.1879 -0.6172
  190POPC  H11A21868   2.407   5.324  11.194 -0.0672 -1.2993 -1.7090
  190POPC  H11B21869   2.535   5.333  11.080  1.7703 -0.8813  2.7900
  190POPC     P21870   2.298   5.364  10.930  0.0401  0.1556 -0.1794
  190POPC   O1321871   2.191   5.285  10.992  0.0547  0.3164  0.1302
  190POPC   O1421872   2.398   5.292  10.852  0.5969 -0.0717  0.1981
  190POPC   O1221873   2.369   5.461  11.042 -0.1909 -0.1827 -0.4064
  190POPC   O1121874   2.230   5.474  10.843  0.1144  0.0040  0.0736
  190POPC    C121875   2.191   5.605  10.881  0.4600  0.0880  0.0551
  190POPC    HA21876   2.274   5.655  10.935 -0.3777  0.6536  0.8454
  190POPC    HB21877   2.105   5.623  10.949  0.8393  2.5823 -0.0258
  190POPC    C221878   2.164   5.698  10.760  0.3577 -0.8556  0.1059
  190POPC    HS21879   2.154   5.803  10.793 -1.4442 -0.2621 -2.0576
  190POPC   O2121880   2.039   5.651  10.703 -0.0264 -0.1597 -0.0754
  190POPC   C2121881   1.985   5.727  10.608  0.6640 -0.1070  0.5515
  190POPC   O2221882   2.016   5.841  10.588  0.1594  0.3079 -0.3104
  190POPC   C2221883   1.866   5.657  10.539  0.1397 -0.3213 -0.3442
  190POPC   H2R21884   1.772   5.683  10.591  0.3298  0.8935 -0.5850
  190POPC   H2S21885   1.886   5.548  10.549 -1.6712 -0.5457  1.4794
  190POPC    C321886   2.288   5.686  10.665 -0.2503 -0.6989 -0.1483
  190POPC    HX21887   2.301   5.577  10.652  0.0226 -0.8808  1.4692
  190POPC    HY21888   2.371   5.738  10.717 -3.2535  4.1651  0.3813
  190POPC   O3121889   2.273   5.764  10.540  0.5419  0.1102 -0.2073
  190POPC   C3121890   2.356   5.726  10.449 -0.7639 -0.5032 -0.2344
  190POPC   O3221891   2.455   5.658  10.468 -0.4171 -0.0965  0.0927
  190POPC   C3221892   2.326   5.795  10.314 -0.5387  0.2637  0.2085
  190POPC   H2X21893   2.301   5.901  10.336  0.9355  0.9193 -1.0548
  190POPC   H2Y21894   2.235   5.748  10.269 -0.9198  0.5427  0.6813
  190POPC   C2321895   1.851   5.702  10.391 -0.4296 -0.1362 -0.0262
  190POPC   H3R21896   1.950   5.689  10.341 -0.9015 -0.1259 -0.9887
  190POPC   H3S21897   1.826   5.810  10.394  1.8767  0.4229  2.4334
  190POPC   C2421898   1.746   5.621  10.323 -0.2887 -0.0255  0.7074
  190POPC   H4R21899   1.651   5.622  10.380 -1.1218  1.4242 -0.6057
  190POPC   H4S21900   1.781   5.516  10.312  0.8801  0.2522  1.5045
  190POPC   C2521901   1.720   5.683  10.183  0.2679  0.2927  0.0294
  190POPC   H5R21902   1.800   5.654  10.112  1.6535  2.2981  0.6961
  190POPC   H5S21903   1.719   5.794  10.182 -1.9564  0.3515  1.7845
  190POPC   C2621904   1.576   5.645  10.133 -0.6198  0.3329 -0.0532
  190POPC   H6R21905   1.506   5.676  10.214 -0.2946 -0.0802  0.3939
  190POPC   H6S21906   1.563   5.535  10.121 -1.6561  0.3260  0.9722
  190POPC   C2721907   1.544   5.702   9.993 -0.7264  0.3353 -0.2383
  190POPC   H7R21908   1.614   5.657   9.920 -1.7177  2.4489 -2.6605
  190POPC   H7S21909   1.564   5.811  10.003  0.4751  0.1322 -0.3192
  190POPC   C2821910   1.397   5.681   9.942 -0.5201 -0.6278 -0.0670
  190POPC   H8R21911   1.321   5.721  10.013  1.5569 -0.3688  2.1705
  190POPC   H8S21912   1.386   5.571   9.932 -0.0608 -0.6506 -0.3674
  190POPC   C2921913   1.367   5.759   9.820 -0.6019  0.1935  0.3564
  190POPC   H9121914   1.329   5.861   9.838  0.8583  0.9511 -0.6208
  190POPC  C21021915   1.394   5.715   9.695 -0.4599 -0.3186  0.4078
  190POPC  H10121916   1.362   5.770   9.605  1.7373 -1.7019 -1.3268
  190POPC  C21121917   1.457   5.584   9.663  0.4475  0.0478 -0.2635
  190POPC  H11R21918   1.505   5.532   9.749  1.3369  1.9652  0.4577
  190POPC  H11S21919   1.544   5.610   9.599  0.1204 -1.5527 -1.4358
  190POPC  C21221920   1.373   5.479   9.584 -0.0522  0.2673  0.2476
  190POPC  H12R21921   1.293   5.444   9.653  0.4939 -0.7132  0.4122
  190POPC  H12S21922   1.433   5.385   9.587  0.6713  0.7213 -0.0222
  190POPC  C21321923   1.327   5.518   9.451  0.0734 -0.2664  0.8770
  190POPC  H13R21924   1.289   5.622   9.460 -0.3705 -0.4815  1.5829
  190POPC  H13S21925   1.245   5.449   9.423  0.2047  0.0326 -0.3282
  190POPC  C21421926   1.423   5.523   9.331  0.1698  0.4591 -0.5367
  190POPC  H14R21927   1.504   5.592   9.363 -0.7905  1.2524  0.2817
  190POPC  H14S21928   1.368   5.566   9.244 -0.0617  1.2560 -0.0116
  190POPC  C21521929   1.475   5.383   9.286 -1.0233  0.0260 -0.0837
  190POPC  H15R21930   1.394   5.309   9.270 -0.0418 -1.0412 -0.2764
  190POPC  H15S21931   1.544   5.344   9.364  1.9567 -0.7364 -2.8854
  190POPC  C21621932   1.552   5.388   9.152 -0.8456  0.0794 -0.5504
  190POPC  H16R21933   1.599   5.287   9.141 -1.1739  0.1980 -4.1523
  190POPC  H16S21934   1.634   5.462   9.164 -1.0090  0.1569  0.1388
  190POPC  C21721935   1.473   5.401   9.026  0.0003 -0.1598  0.5822
  190POPC  H17R21936   1.391   5.476   9.032 -0.3626 -0.6168  1.5394
  190POPC  H17S21937   1.423   5.305   9.001 -2.1219  1.0169  0.0236
  190POPC  C21821938   1.564   5.454   8.904 -0.1350  0.3413  0.2121
  190POPC  H18R21939   1.591   5.561   8.913 -1.7799  0.9035 -1.1792
  190POPC  H18S21940   1.511   5.427   8.811  0.3127  0.0976  0.0209
  190POPC  H18T21941   1.666   5.409   8.899  0.5370  1.9315 -1.2001
  190POPC   C3321942   2.439   5.774  10.216 -0.2264 -0.4001 -0.0305
  190POPC   H3X21943   2.463   5.667  10.200  0.1714 -0.4714  0.9746
  190POPC   H3Y21944   2.528   5.814  10.271  0.2008  0.9980 -1.6607
  190POPC   C3421945   2.422   5.858  10.083 -0.4692  0.3919 -0.7786
  190POPC   H4X21946   2.396   5.961  10.116  2.0136  0.2373  2.2224
  190POPC   H4Y21947   2.332   5.816  10.034 -0.2435  1.6305 -2.3574
  190POPC   C3521948   2.542   5.866   9.993 -0.2336  0.3239  0.4553
  190POPC   H5X21949   2.587   5.767   9.973 -0.1118  0.6706 -1.1329
  190POPC   H5Y21950   2.613   5.942  10.032  1.2469 -0.4543 -0.6494
  190POPC   C3621951   2.500   5.916   9.851  0.5319  0.1404 -0.2280
  190POPC   H6X21952   2.423   5.993   9.869 -0.5609 -0.6979 -1.1133
  190POPC   H6Y21953   2.449   5.827   9.807  0.2400  0.2893 -0.1913
  190POPC   C3721954   2.621   5.935   9.761  0.5652  0.1361  0.4710
  190POPC   H7X21955   2.649   5.828   9.756 -0.0108  0.0038  0.0231
  190POPC   H7Y21956   2.709   5.996   9.793 -0.5393  1.5485  0.8941
  190POPC   C3821957   2.581   5.989   9.627 -0.2424  0.9500 -0.6181
  190POPC   H8X21958   2.532   6.089   9.635  0.0805  0.9885  1.4868
  190POPC   H8Y21959   2.508   5.926   9.573 -0.4634  1.3390 -0.7835
  190POPC   C3921960   2.695   6.005   9.528  0.6062 -0.0103 -0.0115
  190POPC   H9X21961   2.739   5.905   9.511  1.9095  0.5495 -0.0458
  190POPC   H9Y21962   2.774   6.072   9.568  1.3491 -1.4694  1.0356
  190POPC  C31021963   2.653   6.066   9.388 -0.0595  0.9584  0.2782
  190POPC  H10X21964   2.599   6.163   9.394  1.4297  1.7730  0.8260
  190POPC  H10Y21965   2.574   6.001   9.344  0.5504  1.5458 -1.7927
  190POPC  C31121966   2.777   6.090   9.293  0.1873  0.3198 -0.5454
  190POPC  H11X21967   2.865   6.126   9.350  0.6071 -1.9244  0.3293
  190POPC  H11Y21968   2.751   6.161   9.212 -1.4348  1.0945  0.5785
  190POPC  C31221969   2.821   5.959   9.228 -0.3438  0.2975 -0.2089
  190POPC  H12X21970   2.851   5.886   9.306  2.2789 -1.3271 -2.5306
  190POPC  H12Y21971   2.917   5.975   9.173 -1.4145 -0.7842 -2.5453
  190POPC  C31321972   2.728   5.905   9.123 -0.9544 -0.2240 -0.1617
  190POPC  H13X21973   2.733   5.981   9.042  1.8474 -0.0973  0.0193
  190POPC  H13Y21974   2.626   5.888   9.164 -1.7910  1.0235 -1.6085
  190POPC  C31421975   2.783   5.776   9.065 -0.1256  0.2180  0.0103
  190POPC  H14X21976   2.813   5.716   9.153 -2.4579  0.9524  1.4174
  190POPC  H14Y21977   2.873   5.795   9.003 -0.4218  1.5001 -0.0532
  190POPC  C31521978   2.689   5.689   8.985  0.2075 -0.7340 -0.2791
  190POPC  H15X21979   2.659   5.740   8.891  1.8425 -1.2456 -1.1042
  190POPC  H15Y21980   2.597   5.680   9.048  0.3921  2.7889  0.7010
  190POPC  C31621981   2.734   5.548   8.970  0.0736  0.9151  0.0673
  190POPC  H16X21982   2.809   5.540   8.889  1.7045  1.3711  1.4900
  190POPC  H16Y21983   2.654   5.478   8.937  0.1437  0.3694  1.0338
  190POPC  H16Z21984   2.779   5.514   9.065  1.2089  1.8184 -0.1286
  191POPC     N21985   1.462   1.032   6.092  0.5458 -0.2893 -0.2145
  191POPC   C1221986   1.427   0.990   6.232 -0.4405 -0.5893 -0.6012
  191POPC  H12A21987   1.415   0.882   6.235 -0.0840 -0.6628 -1.5703
  191POPC  H12B21988   1.333   1.034   6.261 -0.6513 -0.7202 -1.0737
  191POPC   C1321989   1.550   0.922   6.039 -0.3205 -0.1753  0.4791
  191POPC  H13A21990   1.631   0.901   6.108 -2.3791  0.4547  3.3045
  191POPC  H13B21991   1.488   0.835   6.029  1.6140 -1.8749  2.2271
  191POPC  H13C21992   1.584   0.942   5.939  0.9880 -2.4558  0.4026
  191POPC   C1421993   1.339   1.038   6.007  0.0277  0.2217 -0.1099
  191POPC  H14A21994   1.366   1.044   5.902  2.6291 -2.0998  0.2946
  191POPC  H14B21995   1.276   0.953   6.029 -1.9451  1.9673  1.3422
  191POPC  H14C21996   1.283   1.123   6.042 -2.3825 -1.4733  0.3904
  191POPC   C1521997   1.533   1.166   6.090 -0.0283 -0.0597 -0.3311
  191POPC  H15A21998   1.561   1.195   5.989  0.1858  1.4360  0.1484
  191POPC  H15B21999   1.624   1.156   6.148 -1.0282 -2.5804  0.9383
  191POPC  H15C22000   1.472   1.244   6.131 -0.5064 -1.0968  1.0182
  191POPC   C1122001   1.538   1.014   6.334 -0.6183 -0.1185  0.3344
  191POPC  H11A22002   1.499   0.987   6.435 -0.5820 -2.5845 -0.2499
  191POPC  H11B22003   1.555   1.123   6.336  0.4872 -0.2190 -1.3987
  191POPC     P22004   1.800   1.013   6.298 -0.1412  0.0185  0.2651
  191POPC   O1322005   1.794   1.130   6.212  0.0066 -0.3873  0.5858
  191POPC   O1422006   1.898   0.906   6.255  0.2269  0.7093 -0.1684
  191POPC   O1222007   1.660   0.949   6.297  0.4442  0.3923 -0.9025
  191POPC   O1122008   1.834   1.062   6.450 -0.1941 -0.2599  0.1595
  191POPC    C122009   1.891   0.970   6.549  0.5737 -0.4411  0.0149
  191POPC    HA22010   1.929   1.033   6.633 -1.1836 -1.7796  1.9357
  191POPC    HB22011   1.977   0.912   6.511  0.4314 -1.3825  1.0667
  191POPC    C222012   1.787   0.874   6.604 -0.2948  1.0795 -0.4690
  191POPC    HS22013   1.755   0.803   6.525  1.8595  1.9802 -2.2287
  191POPC   O2122014   1.681   0.959   6.645  0.5700  0.2301  0.2299
  191POPC   C2122015   1.572   0.901   6.705  0.0660  0.1605 -0.8458
  191POPC   O2222016   1.555   0.789   6.731  0.1834  0.2022 -0.4693
  191POPC   C2222017   1.463   1.011   6.738 -0.0591  0.0515 -0.3609
  191POPC   H2R22018   1.371   0.994   6.679 -2.7681 -1.5620  3.8752
  191POPC   H2S22019   1.505   1.113   6.723 -2.0916  1.5663  3.1118
  191POPC    C322020   1.851   0.777   6.719 -0.2367 -0.0595 -0.1534
  191POPC    HX22021   1.946   0.737   6.677  1.3087  3.1344 -0.0495
  191POPC    HY22022   1.772   0.701   6.733 -1.5549  1.2132 -0.4012
  191POPC   O3122023   1.866   0.846   6.849 -0.1554  0.1271 -0.0166
  191POPC   C3122024   1.917   0.770   6.944  0.0274 -0.0007 -0.2111
  191POPC   O3222025   1.967   0.660   6.930 -0.3409 -0.2402  0.5249
  191POPC   C3222026   1.915   0.845   7.076  0.1060 -0.6720  0.4007
  191POPC   H2X22027   1.812   0.885   7.086  0.6060  0.4233  1.4451
  191POPC   H2Y22028   1.979   0.936   7.068  1.0522 -1.4280 -0.9721
  191POPC   C2322029   1.414   1.006   6.891 -0.5161  0.5681  0.2693
  191POPC   H3R22030   1.372   0.907   6.918  0.6212  0.4503  1.7169
  191POPC   H3S22031   1.328   1.071   6.919  0.4012  2.2338 -0.5969
  191POPC   C2422032   1.539   1.034   6.979  0.0828  0.5224 -0.0249
  191POPC   H4R22033   1.586   1.133   6.964  2.2610 -0.1086  2.0344
  191POPC   H4S22034   1.622   0.962   6.963 -1.0384 -1.0366  0.7956
  191POPC   C2522035   1.516   1.023   7.131  0.7626  0.2452 -0.0576
  191POPC   H5R22036   1.428   1.085   7.159  1.5352  0.0313  3.2485
  191POPC   H5S22037   1.606   1.060   7.184 -0.1904  0.6408  1.3388
  191POPC   C2622038   1.470   0.884   7.183  0.0356 -0.0151  0.4023
  191POPC   H6R22039   1.522   0.810   7.118  1.6530  2.8520 -1.8332
  191POPC   H6S22040   1.362   0.882   7.160  0.3799 -0.3131 -1.2936
  191POPC   C2722041   1.483   0.869   7.339  0.2244 -0.4110  0.3142
  191POPC   H7R22042   1.421   0.943   7.395  1.2147  0.9044 -0.2633
  191POPC   H7S22043   1.586   0.906   7.356 -0.5553  1.0478  2.3447
  191POPC   C2822044   1.465   0.728   7.385  0.2141 -0.4057  0.9283
  191POPC   H8R22045   1.505   0.734   7.489 -0.2780  3.3236  1.0084
  191POPC   H8S22046   1.521   0.658   7.319  0.9396  0.7371  0.2955
  191POPC   C2922047   1.314   0.692   7.387 -0.5286  0.1267  0.0582
  191POPC   H9122048   1.280   0.676   7.284 -0.9684  1.6939 -0.0570
  191POPC  C21022049   1.227   0.695   7.494  0.1145  0.0533 -0.0945
  191POPC  H10122050   1.122   0.662   7.482  0.7439 -2.1921  0.1824
  191POPC  C21122051   1.261   0.736   7.639  0.5016  0.3422  0.5594
  191POPC  H11R22052   1.340   0.814   7.637  1.8290 -0.9735 -0.1790
  191POPC  H11S22053   1.300   0.656   7.706  2.1951  0.7802  0.1357
  191POPC  C21222054   1.153   0.797   7.730 -0.5094 -0.1892 -0.3325
  191POPC  H12R22055   1.099   0.876   7.673  2.2224  2.1105  0.0154
  191POPC  H12S22056   1.197   0.843   7.821 -0.5361  0.4777 -0.6458
  191POPC  C21322057   1.052   0.690   7.775  0.2356 -0.0073 -0.7511
  191POPC  H13R22058   1.096   0.617   7.846 -2.9879  1.5477  3.3346
  191POPC  H13S22059   1.036   0.626   7.686  5.2094 -0.3750 -1.6283
  191POPC  C21422060   0.919   0.740   7.829  0.1565  0.0009 -0.8893
  191POPC  H14R22061   0.846   0.656   7.833 -0.4339  0.5457  0.1910
  191POPC  H14S22062   0.877   0.827   7.773  0.4624  0.5816 -0.2250
  191POPC  C21522063   0.936   0.789   7.972 -0.0632 -0.7900 -0.3073
  191POPC  H15R22064   1.012   0.870   7.974 -0.8231 -0.0651  1.5484
  191POPC  H15S22065   0.968   0.705   8.036 -0.9107  0.7462  2.3162
  191POPC  C21622066   0.809   0.844   8.028  0.1615  0.4288  0.2742
  191POPC  H16R22067   0.730   0.767   8.018  1.6414 -1.2244  0.7529
  191POPC  H16S22068   0.781   0.939   7.979  1.2412  1.1013  0.9078
  191POPC  C21722069   0.806   0.878   8.178 -0.7552 -0.4281  0.3296
  191POPC  H17R22070   0.885   0.953   8.195  0.2612 -0.9011 -2.0210
  191POPC  H17S22071   0.842   0.790   8.236 -0.0995 -2.4609 -2.8733
  191POPC  C21822072   0.673   0.940   8.216 -0.0755 -0.2639 -0.9622
  191POPC  H18R22073   0.596   0.860   8.203  2.4013 -2.7673 -1.1754
  191POPC  H18S22074   0.647   1.024   8.148  0.1123  1.6333  1.1956
  191POPC  H18T22075   0.676   0.980   8.320  2.9251  0.7483 -1.3457
  191POPC   C3322076   1.944   0.767   7.206 -0.5468 -0.0547  0.6954
  191POPC   H3X22077   2.050   0.735   7.212 -0.0139  0.7504 -2.6318
  191POPC   H3Y22078   1.880   0.676   7.202 -0.0084 -0.4282  0.4728
  191POPC   C3422079   1.902   0.856   7.329  0.3836  0.1327  0.5616
  191POPC   H4X22080   1.843   0.940   7.285 -0.0633 -0.4325  0.0657
  191POPC   H4Y22081   1.987   0.896   7.388 -0.4227  0.9833  1.1915
  191POPC   C3522082   1.813   0.783   7.437  0.2197  0.1381  0.9738
  191POPC   H5X22083   1.730   0.729   7.386  1.0856 -0.4176  0.1271
  191POPC   H5Y22084   1.762   0.859   7.499 -1.6683 -0.0424 -0.2690
  191POPC   C3622085   1.896   0.690   7.524  0.6957  0.8678 -0.1325
  191POPC   H6X22086   1.979   0.746   7.572  0.6336  1.6031 -0.8619
  191POPC   H6Y22087   1.952   0.622   7.456  2.0858  2.4740 -0.6690
  191POPC   C3722088   1.824   0.606   7.627 -0.1277 -0.0861  0.0190
  191POPC   H7X22089   1.889   0.556   7.702 -0.6925  0.3160  0.7886
  191POPC   H7Y22090   1.767   0.531   7.567 -1.1209  1.1613 -0.6516
  191POPC   C3822091   1.730   0.687   7.718 -0.2433 -0.3375 -0.8839
  191POPC   H8X22092   1.666   0.756   7.658 -0.2543  1.2281  0.8444
  191POPC   H8Y22093   1.788   0.740   7.796 -1.2845  2.2754 -1.7773
  191POPC   C3922094   1.643   0.602   7.815  0.4604  0.3564  0.2321
  191POPC   H9X22095   1.681   0.506   7.854 -1.6687 -0.3521  0.7260
  191POPC   H9Y22096   1.551   0.556   7.772 -0.7382  0.9323  2.0294
  191POPC  C31022097   1.570   0.679   7.920 -0.3077  0.0927  0.5529
  191POPC  H10X22098   1.462   0.679   7.893  0.3450 -0.8538 -2.4482
  191POPC  H10Y22099   1.609   0.783   7.921 -2.8937  1.1497  1.7750
  191POPC  C31122100   1.587   0.629   8.063 -0.4257  0.4093  0.0888
  191POPC  H11X22101   1.550   0.524   8.064  1.7562 -0.4120 -0.6537
  191POPC  H11Y22102   1.528   0.697   8.129 -2.3049 -0.7098 -0.3537
  191POPC  C31222103   1.732   0.624   8.107 -0.7870  0.4861 -0.7502
  191POPC  H12X22104   1.773   0.727   8.094 -0.0331  0.3508  0.4651
  191POPC  H12Y22105   1.771   0.548   8.036  0.9405  0.9146 -0.2843
  191POPC  C31322106   1.752   0.571   8.251 -0.0362 -0.0611  0.2865
  191POPC  H13X22107   1.851   0.520   8.242 -0.3648 -0.3794 -2.5564
  191POPC  H13Y22108   1.672   0.497   8.269  0.4251 -0.4466  0.7922
  191POPC  C31422109   1.754   0.675   8.360  0.0704  0.3864 -1.0198
  191POPC  H14X22110   1.674   0.745   8.327 -0.0421 -0.7207 -3.2984
  191POPC  H14Y22111   1.850   0.732   8.358  0.4423  0.0250  2.1470
  191POPC  C31522112   1.729   0.625   8.504 -0.2486  0.9744 -0.3125
  191POPC  H15X22113   1.813   0.562   8.541 -1.1314 -0.3187 -0.4661
  191POPC  H15Y22114   1.642   0.556   8.509  1.0579 -0.6623  2.4469
  191POPC  C31622115   1.724   0.725   8.624  0.4579  0.8496  0.1125
  191POPC  H16X22116   1.629   0.781   8.610  0.2309  0.5463  0.4266
  191POPC  H16Y22117   1.813   0.790   8.610  1.1524 -0.3238 -1.1516
  191POPC  H16Z22118   1.723   0.681   8.726  0.6410  2.6948  0.9534
  192POPC     N22119   1.137   3.169   6.167 -0.5972  0.3941 -0.4612
  192POPC   C1222120   1.189   3.291   6.085  0.1523  0.5215 -0.8150
  192POPC  H12A22121   1.114   3.333   6.020  0.1417  3.6058  1.0183
  192POPC  H12B22122   1.264   3.247   6.020 -0.7973  0.5342 -1.9465
  192POPC   C1322123   1.265   3.112   6.221  0.0065 -0.4911 -0.4065
  192POPC  H13A22124   1.333   3.085   6.142  0.7068  0.1492 -0.0433
  192POPC  H13B22125   1.310   3.186   6.286 -1.4732  1.5419 -1.5687
  192POPC  H13C22126   1.245   3.029   6.286 -1.8943  2.6647  3.4731
  192POPC   C1422127   1.039   3.203   6.270  0.1615 -0.2662 -0.1239
  192POPC  H14A22128   1.074   3.280   6.338  0.4907  1.1454 -1.8116
  192POPC  H14B22129   0.951   3.245   6.222  0.0990  0.2103  0.3892
  192POPC  H14C22130   1.000   3.120   6.326 -0.0351  0.3300  0.6429
  192POPC   C1522131   1.076   3.069   6.082  0.5868 -0.5678  0.3986
  192POPC  H15A22132   1.135   3.041   5.996 -1.9579 -0.2481 -1.5711
  192POPC  H15B22133   0.988   3.115   6.040  0.3032 -1.1150  0.3827
  192POPC  H15C22134   1.047   2.981   6.137  0.7633 -0.0758  1.2994
  192POPC   C1122135   1.241   3.415   6.163 -0.7662 -0.1607 -0.9521
  192POPC  H11A22136   1.160   3.438   6.236  0.7819  0.6686  0.5724
  192POPC  H11B22137   1.250   3.497   6.088  1.2909 -1.1927 -1.9076
  192POPC     P22138   1.478   3.478   6.229 -0.6755  0.2087  0.0956
  192POPC   O1322139   1.417   3.615   6.206 -0.2646  0.1741 -0.6912
  192POPC   O1422140   1.568   3.417   6.130 -0.1536 -0.1685 -0.3524
  192POPC   O1222141   1.358   3.386   6.247 -0.1778 -0.2416 -0.5358
  192POPC   O1122142   1.550   3.469   6.371  0.3689  0.1837 -0.0268
  192POPC    C122143   1.631   3.354   6.409  0.3577 -0.3348 -0.0352
  192POPC    HA22144   1.731   3.372   6.363  0.6247  1.6013  1.1775
  192POPC    HB22145   1.590   3.261   6.366 -4.0350  1.3923 -0.0277
  192POPC    C222146   1.660   3.341   6.555 -0.0560 -0.7002 -0.6224
  192POPC    HS22147   1.766   3.309   6.566  0.6260  0.9746 -1.9375
  192POPC   O2122148   1.567   3.247   6.611 -0.5615  0.1762 -0.2216
  192POPC   C2122149   1.592   3.125   6.573 -0.1680 -0.3184  0.6852
  192POPC   O2222150   1.691   3.087   6.512  0.1724 -0.3185  0.2383
  192POPC   C2222151   1.463   3.042   6.588  0.9679 -0.6706 -0.4289
  192POPC   H2R22152   1.421   3.009   6.491  0.4532  0.5790 -0.6451
  192POPC   H2S22153   1.393   3.115   6.634  1.4524 -0.6123  0.2441
  192POPC    C322154   1.648   3.474   6.633 -0.6718 -0.5703 -0.0762
  192POPC    HX22155   1.541   3.505   6.622 -1.0886 -1.7418  0.5270
  192POPC    HY22156   1.707   3.552   6.582 -0.2194 -0.4803  0.5781
  192POPC   O3122157   1.692   3.459   6.768  0.8670  0.3462 -0.2170
  192POPC   C3122158   1.605   3.484   6.857  0.0092  0.5457 -0.8313
  192POPC   O3222159   1.488   3.524   6.840 -0.0041  0.3196 -0.0303
  192POPC   C3222160   1.669   3.431   6.986 -0.1871  0.2676 -0.1849
  192POPC   H2X22161   1.752   3.503   7.001 -0.4339  0.4882  0.1170
  192POPC   H2Y22162   1.709   3.329   6.965  0.2433  0.5757 -0.8883
  192POPC   C2322163   1.481   2.926   6.680 -0.1471  0.3078 -0.2943
  192POPC   H3R22164   1.531   2.838   6.635 -0.1870  1.5340 -2.9063
  192POPC   H3S22165   1.382   2.885   6.711  0.7483 -1.3048  0.5314
  192POPC   C2422166   1.564   2.952   6.802  0.0018  0.2916 -0.3506
  192POPC   H4R22167   1.672   2.966   6.776  0.8548  1.8528  3.3310
  192POPC   H4S22168   1.550   2.867   6.871  0.2764  2.1974  2.2135
  192POPC   C2522169   1.518   3.068   6.898 -0.0260 -0.0698 -1.1529
  192POPC   H5R22170   1.523   3.167   6.848 -0.4924 -0.0680 -1.1961
  192POPC   H5S22171   1.581   3.072   6.990 -1.6813 -4.4049  0.4331
  192POPC   C2622172   1.376   3.037   6.957  0.4432 -0.1233 -0.6721
  192POPC   H6R22173   1.357   2.929   6.970  0.8967  0.0003  1.3163
  192POPC   H6S22174   1.302   3.073   6.882 -0.7403 -0.5857  0.2438
  192POPC   C2722175   1.327   3.091   7.092 -0.0626  0.5121  0.1399
  192POPC   H7R22176   1.217   3.082   7.089 -0.0505  0.1846  0.6358
  192POPC   H7S22177   1.361   3.194   7.114  3.8166 -0.7879  1.1164
  192POPC   C2822178   1.374   3.016   7.216  1.0788  0.7551 -1.0005
  192POPC   H8R22179   1.365   2.906   7.200 -1.7991  0.3418  2.1496
  192POPC   H8S22180   1.299   3.047   7.293  3.0064  0.4624  1.0907
  192POPC   C2922181   1.514   3.037   7.274 -0.1497  0.3572 -0.1946
  192POPC   H9122182   1.587   3.001   7.200 -1.8319 -1.8588 -0.9003
  192POPC  C21022183   1.535   3.098   7.392 -0.1247 -0.0670  0.4221
  192POPC  H10122184   1.636   3.116   7.431  0.5549 -2.5459  0.0081
  192POPC  C21122185   1.437   3.158   7.493 -0.3998 -0.0900 -0.4061
  192POPC  H11R22186   1.336   3.110   7.493 -0.6173  0.3514 -1.0934
  192POPC  H11S22187   1.433   3.265   7.461  0.1322 -0.3835 -1.4977
  192POPC  C21222188   1.481   3.124   7.630  0.3429  0.1121 -0.0772
  192POPC  H12R22189   1.584   3.155   7.656  1.2794 -0.4939 -2.7585
  192POPC  H12S22190   1.482   3.014   7.646  1.9920  0.0171 -0.5703
  192POPC  C21322191   1.393   3.170   7.745 -0.3027 -1.1745 -0.9655
  192POPC  H13R22192   1.299   3.110   7.744 -0.9026 -0.3351  0.4340
  192POPC  H13S22193   1.369   3.276   7.724 -1.3691 -1.4802 -1.3812
  192POPC  C21422194   1.455   3.162   7.885  0.2458  0.0239 -0.1279
  192POPC  H14R22195   1.398   3.220   7.961  0.3614 -0.0151 -0.0115
  192POPC  H14S22196   1.560   3.198   7.885  0.7969 -1.5166  0.2558
  192POPC  C21522197   1.462   3.020   7.928 -0.0016  0.7380  0.7753
  192POPC  H15R22198   1.523   2.962   7.856 -2.2002 -0.1030 -0.5173
  192POPC  H15S22199   1.358   2.982   7.922 -0.0393  0.4333  2.5610
  192POPC  C21622200   1.509   3.002   8.074 -0.2144 -0.4314  0.7121
  192POPC  H16R22201   1.611   3.044   8.071 -0.3581 -0.0980 -1.2973
  192POPC  H16S22202   1.519   2.894   8.095  2.7132 -0.3545  0.0133
  192POPC  C21722203   1.425   3.083   8.171  0.2151 -0.4085 -0.1773
  192POPC  H17R22204   1.315   3.066   8.166  0.3583 -1.7665  0.7173
  192POPC  H17S22205   1.453   3.190   8.161 -0.1920 -0.0552  2.0211
  192POPC  C21822206   1.452   3.039   8.315  0.5148 -0.2127 -0.2368
  192POPC  H18R22207   1.560   3.043   8.341  1.1809 -1.1614 -2.6515
  192POPC  H18S22208   1.428   2.931   8.323  1.6315 -0.4212  0.7658
  192POPC  H18T22209   1.386   3.097   8.383  2.8509  0.4521  1.6168
  192POPC   C3322210   1.588   3.420   7.114 -0.0777  0.2283  0.0635
  192POPC   H3X22211   1.593   3.317   7.156 -4.1326 -0.4787 -0.7896
  192POPC   H3Y22212   1.479   3.430   7.094 -0.4871 -0.9542  1.4890
  192POPC   C3422213   1.621   3.528   7.219  0.3876  0.2585 -0.3789
  192POPC   H4X22214   1.568   3.619   7.183 -0.3523 -0.4861 -1.2331
  192POPC   H4Y22215   1.728   3.553   7.231  0.0623  1.7105 -0.3226
  192POPC   C3522216   1.578   3.503   7.364  0.5773  0.4872 -0.1455
  192POPC   H5X22217   1.629   3.410   7.395  1.0938  0.7590 -0.1737
  192POPC   H5Y22218   1.469   3.481   7.370  1.0980 -3.2672 -1.7022
  192POPC   C3622219   1.618   3.622   7.454 -0.5253 -0.5831 -0.1364
  192POPC   H6X22220   1.573   3.715   7.411 -3.6212 -1.5444  0.7171
  192POPC   H6Y22221   1.728   3.631   7.463 -0.7872  2.8266  1.2396
  192POPC   C3722222   1.569   3.594   7.597  0.2993 -0.1807  0.4240
  192POPC   H7X22223   1.627   3.509   7.639  2.6755  1.1869  0.0720
  192POPC   H7Y22224   1.460   3.575   7.588  0.3895  0.2008 -2.2950
  192POPC   C3822225   1.582   3.708   7.702  0.0408 -0.0917  0.9820
  192POPC   H8X22226   1.518   3.792   7.666  1.4843  0.8420  0.5242
  192POPC   H8Y22227   1.685   3.747   7.712 -0.8604  2.3038  1.8198
  192POPC   C3922228   1.533   3.664   7.842  0.0483  0.8092  0.2333
  192POPC   H9X22229   1.584   3.566   7.853  0.4354  0.8908 -0.6950
  192POPC   H9Y22230   1.425   3.638   7.840  0.3442 -0.5014 -1.7003
  192POPC  C31022231   1.565   3.754   7.959 -0.3311  0.2922  0.5701
  192POPC  H10X22232   1.515   3.852   7.944 -0.4580  0.3543  1.3346
  192POPC  H10Y22233   1.674   3.777   7.953  0.5973 -3.6504 -0.4609
  192POPC  C31122234   1.527   3.694   8.098  0.2105  0.0987  0.2293
  192POPC  H11X22235   1.567   3.590   8.097  4.6613  1.6021 -1.3485
  192POPC  H11Y22236   1.417   3.685   8.113  0.5342  0.6715  4.0734
  192POPC  C31222237   1.592   3.762   8.221 -0.5128  0.0612 -0.0332
  192POPC  H12X22238   1.546   3.863   8.214  1.4234  1.0106  0.2269
  192POPC  H12Y22239   1.702   3.752   8.210 -0.7068 -0.3680 -1.8384
  192POPC  C31322240   1.550   3.703   8.353  0.4764 -0.3785  0.1571
  192POPC  H13X22241   1.616   3.735   8.436 -0.0547 -0.8837  0.7858
  192POPC  H13Y22242   1.577   3.595   8.346 -1.2051 -0.9846  2.1500
  192POPC  C31422243   1.401   3.705   8.389 -0.5723 -0.1948  0.1265
  192POPC  H14X22244   1.346   3.635   8.322  0.5194 -0.7831 -0.1760
  192POPC  H14Y22245   1.359   3.806   8.373 -0.2029 -0.3009 -1.8255
  192POPC  C31522246   1.374   3.676   8.536  0.6397 -0.5598  0.6265
  192POPC  H15X22247   1.428   3.746   8.603 -1.4235  2.0870 -0.2980
  192POPC  H15Y22248   1.425   3.580   8.562  1.3936  0.0516  1.4451
  192POPC  C31622249   1.222   3.684   8.566  0.2662 -0.6297  1.0525
  192POPC  H16X22250   1.173   3.596   8.520  0.6137 -0.4473  0.3173
  192POPC  H16Y22251   1.182   3.781   8.529 -0.7101 -0.3173  2.7886
  192POPC  H16Z22252   1.212   3.690   8.677 -0.3037  3.0043  0.9301
  193SOD    SOD22253   5.823   6.228   2.591 -0.0297  0.5507 -0.0334
  194SOD    SOD22254   3.011   6.085   6.369  0.1002 -0.1405  0.0966
  195SOD    SOD22255   2.202   3.787  14.901  0.1205 -0.6368 -0.0111
  196SOD    SOD22256   1.749   4.796  10.819  0.4809 -0.3347  0.3141
  197SOD    SOD22257   0.371   6.647   4.681 -0.1765  0.2127  0.1612
  198SOD    SOD22258   6.619   1.486   4.119  0.1312  0.0181 -0.5640
  199SOD    SOD22259   3.082   5.875   4.352 -0.3817 -0.1052 -0.0737
  200SOD    SOD22260   3.769   4.544  16.393  0.3189  0.1046  0.5187
  201SOD    SOD22261   0.447   2.820  15.487 -0.3199  0.1168  0.7122
  202SOD    SOD22262   3.244   5.440  10.943 -0.2213 -0.0880  0.0058
  203SOD    SOD22263   5.701   3.750   4.371 -0.1717 -0.3934  0.0601
  204SOD    SOD22264   6.260   4.505  12.527  0.3361 -0.0644  0.3740
  205SOD    SOD22265   6.368   0.728  14.694  0.0344  0.1002 -0.3348
  206SOD    SOD22266   1.048   4.851  11.292  0.2720 -0.0346  0.0127
  207SOD    SOD22267   6.105   3.142   2.419  0.0949 -0.2919 -0.2551
  208SOD    SOD22268   4.508   1.313   5.590 -0.6471  0.2596 -0.6220
  209SOD    SOD22269   0.231   3.927   4.498 -0.0065 -0.1469 -0.0538
  210SOD    SOD22270   4.622   0.023  12.892 -0.1615 -0.5725 -0.4432
  211SOD    SOD22271   3.038   4.511   4.191 -0.2649 -0.2279  0.1848
  212SOD    SOD22272   2.852   0.937   1.569  0.2654  0.3388 -0.2498
  213SOD    SOD22273   3.048   2.473   4.299 -0.0791 -0.0445  0.1877
  214SOD    SOD22274   3.167   6.763  15.687  0.1954  0.0529  0.7540
  215SOD    SOD22275   6.049   1.197   4.021 -0.3001  0.1103 -0.1783
  216SOD    SOD22276   2.123   3.502  12.904 -0.5361 -0.1857  0.5207
  217SOD    SOD22277   0.880   0.754  10.533 -0.4206 -0.4071  0.0365
  218SOD    SOD22278   6.627   1.533   6.024 -0.2285  0.4868 -0.1795
  219SOD    SOD22279   6.252   2.751  10.813 -0.5956  0.0981  0.1564
  220SOD    SOD22280   2.863   0.454   2.151  0.2163 -0.2657 -0.2299
  221SOD    SOD22281   1.732   1.002  14.832  0.2501  0.5630  0.5621
  222SOD    SOD22282   0.716   4.510   5.621 -0.0208 -0.0038 -0.0937
  223SOD    SOD22283   0.825   5.407  10.917  0.3662  0.3422 -0.1406
  224SOD    SOD22284   1.635   5.238   3.318  0.0365  0.0328  0.2127
  225SOD    SOD22285   5.862   4.613  11.011  0.0277 -0.3042 -0.3835
  226SOD    SOD22286   1.763   1.440   0.509 -0.4265 -0.1554 -0.3808
  227SOD    SOD22287   5.872   5.162   3.419  0.0995 -0.5274 -0.6565
  228SOD    SOD22288   3.430   5.340  13.046 -0.5097  0.1926 -0.5062
  229SOD    SOD22289   2.156   5.558   1.206  0.6176  0.1240 -0.2693
  230SOD    SOD22290   6.652   4.787  16.519  0.3225  0.2028 -0.5708
  231SOD    SOD22291   1.247   1.854   1.928  0.3154  0.2739  0.0413
  232SOD    SOD22292   5.819   0.140   0.963  0.2496 -0.1770 -0.0261
  233SOD    SOD22293   2.947   4.944   6.078 -0.1985  0.2537 -0.2287
  234SOD    SOD22294   5.455   5.444  11.107  0.1464  0.2488  0.0919
  235SOD    SOD22295   4.807   4.476  14.388  0.3515  0.1656  0.1541
  236SOD    SOD22296   3.544   0.250   5.126 -0.0430  0.2257 -0.0228
  237SOD    SOD22297   3.085   2.509  11.007  0.0388 -0.0857  0.0275
  238SOD    SOD22298   3.065   6.117  15.945 -0.1645  0.1636  0.1857
  239SOD    SOD22299   4.250   3.869   4.941  0.3514 -0.1107  0.0329
  240SOD    SOD22300   0.389   3.788  17.158  0.2025  0.0233 -0.4023
  241SOD    SOD22301   0.697   1.960   5.567 -0.3480 -0.2289 -0.2392
  242SOD    SOD22302   1.128   0.254  11.395  0.6153 -0.2868  0.4613
  243SOD    SOD22303   1.391   5.915  14.102  0.2173 -0.2823 -0.1727
  244SOD    SOD22304   5.729   1.156  16.118  0.4212  0.0904  0.0708
  245SOD    SOD22305   4.454   5.434  10.696  0.0570 -0.0987 -0.1009
  246SOD    SOD22306   3.912   5.288   2.204 -0.3123  0.2879  0.0217
  247SOD    SOD22307   5.426   1.561   0.088 -0.7173  0.3480  0.3228
  248SOD    SOD22308   4.173   4.287   6.230 -0.0907  0.7000  0.0600
  249SOD    SOD22309   4.810   1.731  16.544 -0.4349  0.1839 -0.0706
  250SOD    SOD22310   1.959   0.456  11.035  0.1375  0.2482 -0.6734
  251SOD    SOD22311   1.759   2.912   3.822  0.1982  0.0748  0.0003
  252SOD    SOD22312   2.717   2.081  11.154  0.1942  0.3344  0.4288
  253SOD    SOD22313   0.201   6.687   4.076  0.3678 -0.2997  0.3898
  254SOD    SOD22314   6.009   6.568  11.545 -0.1594 -0.2313 -0.4452
  255SOD    SOD22315   6.144   3.701   2.018  0.1644  0.0316 -0.2091
  256SOD    SOD22316   5.177   0.739  14.188  0.4190  0.2617 -0.1180
  257SOD    SOD22317   5.304   2.058   0.707 -0.0854  0.8105  0.2819
  258SOD    SOD22318   6.501   5.929   0.417 -0.1334 -0.0802 -0.0388
  259SOD    SOD22319   5.175   1.250  15.506 -0.2979  0.4173 -0.1607
  260SOD    SOD22320   1.561   6.648   6.010  0.1373 -0.6312  0.6391
  261SOD    SOD22321   3.683   2.323   0.963  0.3093 -0.0513 -0.1136
  262SOD    SOD22322   1.751   5.417  13.140  0.0383 -0.5127  0.2882
  263SOD    SOD22323   5.777   4.803   5.297 -0.2084  0.0633 -0.0020
  264SOD    SOD22324   3.724   4.313  11.913  0.9387  0.4651  0.5858
  265SOD    SOD22325   5.447   2.697  12.842 -0.8091  0.1576 -0.2927
  266SOD    SOD22326   5.313   1.243   3.330 -0.8434 -0.0944  0.0695
  267SOD    SOD22327   2.259   2.977   1.003  0.4072  0.1132 -0.0165
  268SOD    SOD22328   4.962   6.483  14.794  0.5762  0.4048 -0.0071
  269SOD    SOD22329   6.705   3.431   4.740  0.0682  0.0576 -0.4454
  270CLA    CLA22330   6.348   3.447   2.102  0.3545 -0.0337  0.0523
  271CLA    CLA22331   4.814   1.230  13.624  0.1703  0.2067 -0.3694
  272CLA    CLA22332   6.428   6.117  12.640 -0.1284 -0.1395 -0.0138
  273CLA    CLA22333   4.569   4.419  13.267 -0.0303 -0.4210  0.0787
  274CLA    CLA22334   0.057   3.377  15.655  0.4516 -0.2808  0.5046
  275CLA    CLA22335   0.129   5.722  11.822 -0.5078 -0.4161  0.1055
  276CLA    CLA22336   2.911   4.091   1.382 -0.5041  0.4124  0.1658
  277CLA    CLA22337   5.676   1.168   3.754  0.0420  0.0191  0.2108
  278CLA    CLA22338   4.689   4.341   2.819  0.2053  0.1076 -0.1716
  279CLA    CLA22339   2.202   3.610  15.733 -0.0361 -0.7295  0.2068
  280CLA    CLA22340   4.938   3.987   4.541 -0.3708 -0.0144  0.0698
  281CLA    CLA22341   3.167   6.077  16.627  0.0623  0.5001  0.2704
  282CLA    CLA22342   0.585   6.190   4.149 -0.1448 -0.2192  0.2651
  283CLA    CLA22343   2.629   5.976   2.000 -0.3169 -0.4710 -0.2544
  284CLA    CLA22344   1.955   3.963  11.828  0.2140 -0.2861 -0.2489
  285CLA    CLA22345   1.479   4.336  12.043 -0.5863  0.1370  0.2618
  286CLA    CLA22346   5.643   6.353  11.136 -0.2890 -0.2614  0.1711
  287CLA    CLA22347   2.793   4.042   5.093 -0.2412  0.0324 -0.3801
  288CLA    CLA22348   0.490   6.380  16.111 -0.4888  0.3900 -0.2663
  289CLA    CLA22349   5.778   3.457   5.165 -0.1601  0.2671 -0.3460
  290CLA    CLA22350   5.057   3.270   0.564  0.1194  0.0638 -0.0332
  291CLA    CLA22351   0.263   4.830   3.315  0.1604 -0.4828  0.1478
  292CLA    CLA22352   4.547   1.061   5.485  0.2691 -0.0218  0.1316
  293CLA    CLA22353   5.335   1.194   0.904  0.6210 -0.0041  0.1054
  294CLA    CLA22354   6.551   0.795   3.996  0.1555 -0.0863  0.0675
  295CLA    CLA22355   0.605   0.547   4.435  0.1418 -0.0601 -0.2649
  296CLA    CLA22356   1.242   0.250  17.101 -0.4365 -0.1269  0.0875
  297CLA    CLA22357   0.501   1.910   5.083  0.0618 -0.3025  0.0115
  298CLA    CLA22358   0.513   1.729  13.442 -0.2740 -0.2255  0.1095
  299CLA    CLA22359   3.675   1.598   1.482 -0.4258 -0.4382 -0.5937
  300CLA    CLA22360   2.886   1.118   1.739 -0.0309  0.3493 -0.3331
  301CLA    CLA22361   4.314   3.091   2.582 -0.1584  0.2167  0.0669
  302CLA    CLA22362   2.675   4.420  17.192 -0.1384 -0.2707  0.5466
  303CLA    CLA22363   2.345   6.565  15.308 -0.0605 -0.0932 -0.1636
  304CLA    CLA22364   1.008   0.207  13.496  0.1123  0.2495  0.0578
  305CLA    CLA22365   0.619   6.356  13.502  0.2961 -0.3133 -0.1383
  306CLA    CLA22366   3.775   5.608   2.820 -0.2502  0.2211 -0.1063
  307CLA    CLA22367   0.608   3.705   2.827  0.2598 -0.1462  0.0034
  308CLA    CLA22368   1.462   5.102   1.839 -0.1738  0.1529  0.0582
  309CLA    CLA22369   6.510   5.205  16.156 -0.5015 -0.2572  0.2946
  310CLA    CLA22370   4.978   2.642  14.392  0.1001 -0.2068  0.4565
  311CLA    CLA22371   0.114   1.495  14.253  0.1349  0.4889  0.0680
  312CLA    CLA22372   2.381   5.054   2.349 -0.0197  0.4212 -0.2163
  313CLA    CLA22373   5.533   0.060  17.069  0.1497 -0.2059  0.1464
  314CLA    CLA22374   2.652   2.371   1.330  0.0291 -0.2506  0.0807
  315CLA    CLA22375   2.173   6.368  11.907  0.3121 -0.4296 -0.0844
  316CLA    CLA22376   4.992   0.871  15.176  0.1705  0.5273  0.0441
  317CLA    CLA22377   4.614   4.652  14.289 -0.1368  0.2551  0.1450
  318CLA    CLA22378   3.685   5.495   0.535  0.0858  0.1091 -0.1507
  319CLA    CLA22379   5.362   1.727  14.465  0.3031  0.0373  0.2764
  320CLA    CLA22380   2.540   3.676   4.409  0.1010  0.0726  0.2185
  321CLA    CLA22381   3.225   0.385  15.467  0.1814 -0.2246 -0.0371
  322CLA    CLA22382   4.020   4.082   3.226  0.0659 -0.6547 -0.0581
  323TIP3   OH222383   3.491   5.690   1.759 -0.4669  0.7861 -0.2120
  323TIP3    H122384   3.499   5.617   1.821 -2.8416  0.8784  0.3008
  323TIP3    H222385   3.483   5.768   1.815  1.8844  1.4978 -0.7500
  324TIP3   OH222386   2.313   5.611   5.804  0.5063  0.2832  0.0137
  324TIP3    H122387   2.218   5.623   5.795  0.5151  0.4331  0.1048
  324TIP3    H222388   2.335   5.657   5.886  0.4724 -0.7546  0.6276
  325TIP3   OH222389   6.188   6.170  16.060 -0.0761 -0.0616  0.2498
  325TIP3    H122390   6.282   6.153  16.072  0.3017  0.8443 -1.1163
  325TIP3    H222391   6.149   6.083  16.051  0.9953 -0.4306 -1.3626
  326TIP3   OH222392   5.083   1.554   4.036  0.3059 -0.1839 -0.5860
  326TIP3    H122393   5.101   1.631   4.091 -2.3908  0.8915 -1.0491
  326TIP3    H222394   5.089   1.588   3.947 -1.0195 -0.4398 -0.7914
  327TIP3   OH222395   3.886   5.167  14.264  0.2803 -0.0875  0.0408
  327TIP3    H122396   3.939   5.188  14.186  0.4336 -0.0342  0.1584
  327TIP3    H222397   3.805   5.217  14.252  0.2519 -0.1757 -0.1450
  328TIP3   OH222398   5.831   0.673  12.460 -0.6679 -0.8672 -0.5702
  328TIP3    H122399   5.791   0.716  12.384  1.9349  0.7418 -1.1328
  328TIP3    H222400   5.913   0.719  12.474  0.2073 -2.8721  1.6059
  329TIP3   OH222401   3.576   0.632   2.253  0.0237 -0.5833  0.6588
  329TIP3    H122402   3.563   0.725   2.233  0.5031 -0.4651  0.8730
  329TIP3    H222403   3.593   0.591   2.168 -0.4521 -0.5281  0.5300
  330TIP3   OH222404   2.688   6.062  12.333  0.0521 -0.3748  0.3584
  330TIP3    H122405   2.684   6.152  12.302 -2.6386 -0.1106  1.1814
  330TIP3    H222406   2.775   6.053  12.372  0.3115  1.9360  0.4132
  331TIP3   OH222407   3.332   6.535  15.383  0.1166  0.3046  0.0299
  331TIP3    H122408   3.275   6.504  15.312 -0.5760  0.8213  0.3517
  331TIP3    H222409   3.409   6.477  15.379  0.0708  0.2953 -1.1097
  332TIP3   OH222410   6.673   2.554   1.750  0.2669  0.0662 -0.1471
  332TIP3    H122411   6.600   2.504   1.787  0.8537  0.1103  1.1206
  332TIP3    H222412   6.631   2.621   1.697 -0.8087  1.7271  2.5662
  333TIP3   OH222413   6.065   4.675   6.112 -0.1225  0.4988  0.5322
  333TIP3    H122414   6.038   4.616   6.183 -1.0748 -0.2492 -0.4119
  333TIP3    H222415   5.982   4.700   6.070  0.5280 -2.0525 -2.6410
  334TIP3   OH222416   3.896   3.570  14.820  0.0257  0.2157 -0.1311
  334TIP3    H122417   3.814   3.527  14.844 -0.4873  0.2190 -1.7653
  334TIP3    H222418   3.913   3.540  14.731  2.9180 -1.4347  0.8586
  335TIP3   OH222419   0.914   4.496   4.429  0.0030  0.2055 -0.1510
  335TIP3    H122420   0.872   4.572   4.389 -2.1815 -1.4624 -1.2179
  335TIP3    H222421   0.877   4.493   4.518  0.3349  0.5702 -0.0006
  336TIP3   OH222422   6.304   3.468   4.127 -0.1762 -0.5077 -0.2612
  336TIP3    H122423   6.302   3.558   4.093 -0.8164 -0.9036 -1.3246
  336TIP3    H222424   6.269   3.415   4.055  0.7611 -1.6858  0.1253
  337TIP3   OH222425   0.368   4.485   1.052 -0.3073  0.1056 -0.7173
  337TIP3    H122426   0.294   4.445   1.006 -0.5307 -0.2095 -0.0856
  337TIP3    H222427   0.331   4.560   1.098 -0.1570  0.1822 -0.7204
  338TIP3   OH222428   1.372   1.426   3.151  0.0757 -0.3623  0.7236
  338TIP3    H122429   1.443   1.424   3.215 -0.3175  0.5386  1.2128
  338TIP3    H222430   1.294   1.401   3.201  0.0887 -1.7668  0.0971
  339TIP3   OH222431   4.242   4.827   4.728  0.2451  0.4043  0.0711
  339TIP3    H122432   4.305   4.882   4.681  0.7943 -1.6169 -1.7220
  339TIP3    H222433   4.204   4.885   4.794  1.9970  2.4375 -0.5860
  340TIP3   OH222434   1.818   2.359   3.564  0.5083 -0.4293  0.1646
  340TIP3    H122435   1.739   2.396   3.524  0.3293 -0.8341  0.1352
  340TIP3    H222436   1.786   2.312   3.641  0.7364 -0.4830  0.2259
  341TIP3   OH222437   3.086   2.033  13.849 -0.2672 -0.0588 -0.1004
  341TIP3    H122438   3.135   2.054  13.769 -0.2988  0.1166 -0.0736
  341TIP3    H222439   3.154   2.021  13.916 -0.2548  0.0357 -0.0969
  342TIP3   OH222440   2.581   4.277   3.795  0.3870  0.0068 -0.4963
  342TIP3    H122441   2.593   4.305   3.886 -1.3513  1.1351 -0.5656
  342TIP3    H222442   2.525   4.199   3.801  0.4009 -0.0105 -0.5909
  343TIP3   OH222443   4.989   2.863  15.213  0.4557 -0.0414 -0.2078
  343TIP3    H122444   5.004   2.862  15.119 -0.6232  1.1465 -0.4189
  343TIP3    H222445   5.068   2.901  15.250  1.0113 -0.8031 -0.5870
  344TIP3   OH222446   6.119   2.042  11.867  0.6102  0.3279 -0.1342
  344TIP3    H122447   6.205   2.012  11.896  0.9258  0.5953 -0.7726
  344TIP3    H222448   6.107   2.127  11.908  0.2330 -0.1221  0.7143
  345TIP3   OH222449   2.052   0.926   4.394  0.5182  0.6552  0.0758
  345TIP3    H122450   2.118   0.921   4.464  2.1214 -0.6757 -1.4379
  345TIP3    H222451   2.023   1.017   4.396  2.5124  1.3443  0.7253
  346TIP3   OH222452   1.538   1.435  11.087 -0.2916  0.1769  0.1229
  346TIP3    H122453   1.526   1.437  11.182 -1.7536 -3.3600  0.1432
  346TIP3    H222454   1.478   1.502  11.054 -1.1034  0.2183  1.6183
  347TIP3   OH222455   4.897   5.250  15.400 -0.7625 -0.2717  0.5980
  347TIP3    H122456   4.916   5.336  15.361 -0.8572  0.1299  1.4041
  347TIP3    H222457   4.847   5.204  15.333 -0.0626  0.0116 -0.1446
  348TIP3   OH222458   6.130   5.725   1.367  0.2919  0.0195  0.5855
  348TIP3    H122459   6.191   5.797   1.350  1.1921 -1.0528 -1.0174
  348TIP3    H222460   6.051   5.749   1.318  0.0593  0.5756  1.2213
  349TIP3   OH222461   6.351   5.915   5.497  0.1775 -0.2912  0.1745
  349TIP3    H122462   6.382   5.970   5.425 -1.1334  3.3833  2.1688
  349TIP3    H222463   6.288   5.856   5.457  0.5761  0.6062 -1.9099
  350TIP3   OH222464   0.483   1.984  15.951  0.1660  0.0034  0.7927
  350TIP3    H122465   0.501   2.017  16.039 -1.1066  0.3690  0.9406
  350TIP3    H222466   0.415   1.917  15.965  0.8519 -0.8262  0.2138
  351TIP3   OH222467   5.972   4.556   2.714 -0.2089 -0.0934 -0.0534
  351TIP3    H122468   5.977   4.636   2.661 -2.1246  0.3272  0.3290
  351TIP3    H222469   6.030   4.574   2.788 -1.6600  1.5639  0.7549
  352TIP3   OH222470   3.675   2.606   6.097 -0.0930 -0.1440 -0.1247
  352TIP3    H122471   3.618   2.602   6.174  1.4247  0.2778  1.0691
  352TIP3    H222472   3.709   2.695   6.096  0.0923 -0.2113 -1.1584
  353TIP3   OH222473   0.852   4.878   0.635  0.0706 -0.2937  0.4838
  353TIP3    H122474   0.777   4.919   0.677  0.1582 -0.0086  0.3686
  353TIP3    H222475   0.815   4.815   0.573 -0.0808  0.1095  0.1622
  354TIP3   OH222476   3.698   3.116  14.983 -0.4329 -0.4229 -0.1453
  354TIP3    H122477   3.770   3.114  15.046  0.4152  0.7933 -1.0197
  354TIP3    H222478   3.631   3.060  15.021  0.5651 -0.7533  1.2002
  355TIP3   OH222479   5.342   2.399  12.040  0.4691 -0.1192  0.3880
  355TIP3    H122480   5.257   2.360  12.060  0.2953 -1.1659 -1.9501
  355TIP3    H222481   5.325   2.456  11.965  1.8939 -0.9720 -0.6621
  356TIP3   OH222482   6.450   5.876   0.699  0.2707  0.2758 -0.4413
  356TIP3    H122483   6.437   5.786   0.727  0.0162  1.2877  3.1705
  356TIP3    H222484   6.531   5.903   0.742  0.1589  1.8905 -1.1639
  357TIP3   OH222485   2.644   2.504  11.819  0.3334 -0.3380 -0.0686
  357TIP3    H122486   2.612   2.496  11.729  0.8003  1.9014 -0.4888
  357TIP3    H222487   2.728   2.457  11.819  1.6006  1.7600 -1.5482
  358TIP3   OH222488   0.656   6.598  13.705 -0.1677 -0.4501  0.3850
  358TIP3    H122489   0.702   6.678  13.679  1.1343 -1.7205 -1.4872
  358TIP3    H222490   0.655   6.544  13.626  1.0601 -3.2349  2.1034
  359TIP3   OH222491   3.612   3.200   3.326  0.2732  0.3655 -0.2050
  359TIP3    H122492   3.642   3.136   3.262  0.5063  0.7262 -0.4609
  359TIP3    H222493   3.637   3.285   3.289 -1.2890  0.7029 -0.5653
  360TIP3   OH222494   1.400   3.796   0.194 -0.0229  0.1881  0.4274
  360TIP3    H122495   1.388   3.801   0.289 -0.6297  0.9563  0.3156
  360TIP3    H222496   1.398   3.702   0.175  2.7586 -0.1823  1.4898
  361TIP3   OH222497   4.393   3.523  11.123 -0.3180  0.1045 -0.0074
  361TIP3    H122498   4.365   3.606  11.085 -3.3021 -0.1626  1.3521
  361TIP3    H222499   4.344   3.516  11.205 -0.0157 -2.8824  0.0303
  362TIP3   OH222500   3.398   0.338  11.724 -0.1716  0.1825 -0.1566
  362TIP3    H122501   3.477   0.284  11.722  0.2398  0.7774 -2.1459
  362TIP3    H222502   3.423   0.415  11.776 -0.8650 -1.5169  2.9834
  363TIP3   OH222503   3.038   3.741  11.539 -0.0385 -0.1753 -0.2205
  363TIP3    H122504   3.042   3.669  11.475 -0.0019 -0.7886  0.4557
  363TIP3    H222505   2.999   3.701  11.617  0.0072  0.5384  0.1712
  364TIP3   OH222506   1.169   0.283   5.852 -0.0362  0.1078 -0.0299
  364TIP3    H122507   1.090   0.247   5.812 -0.5698  0.5266  0.6187
  364TIP3    H222508   1.190   0.221   5.922  0.4484 -0.2136 -0.4521
  365TIP3   OH222509   2.793   4.652   3.041 -0.4913 -0.0955 -0.2849
  365TIP3    H122510   2.852   4.585   3.008  1.3441  1.5770 -0.5742
  365TIP3    H222511   2.847   4.731   3.047 -2.6780  1.4944 -0.4176
  366TIP3   OH222512   6.339   0.160  13.141  0.0767  0.0477  0.0551
  366TIP3    H122513   6.419   0.196  13.104 -0.1694 -0.3930 -0.9454
  366TIP3    H222514   6.273   0.174  13.073 -0.0324 -2.1958 -0.3834
  367TIP3   OH222515   2.299   0.833   0.892 -0.1592 -0.3215  0.6031
  367TIP3    H122516   2.303   0.768   0.822  2.0598  0.1212  0.2509
  367TIP3    H222517   2.377   0.887   0.880 -2.2134  2.9063  0.4554
  368TIP3   OH222518   2.013   2.352   1.187  0.1879 -0.0040 -0.3437
  368TIP3    H122519   2.058   2.270   1.163 -1.6471 -0.9971 -0.5399
  368TIP3    H222520   1.946   2.363   1.120 -1.3137  0.2329  1.1311
  369TIP3   OH222521   2.709   5.926   0.581  0.4632  0.2227  0.5937
  369TIP3    H122522   2.653   5.867   0.530  1.3671 -0.9503  0.8972
  369TIP3    H222523   2.648   5.981   0.630 -0.4163  0.9341 -1.2315
  370TIP3   OH222524   3.030   2.826  17.015  0.1688 -0.1558  0.5811
  370TIP3    H122525   3.049   2.895  17.078 -1.0873  0.7799 -0.0212
  370TIP3    H222526   3.097   2.836  16.947  0.2751  0.1776  0.7331
  371TIP3   OH222527   2.187   1.209  13.818  0.4486 -0.3721 -0.3760
  371TIP3    H122528   2.261   1.262  13.787  1.3676 -1.3707  0.0139
  371TIP3    H222529   2.174   1.237  13.909  1.6338 -1.4817  0.1834
  372TIP3   OH222530   0.948   4.704  11.580 -0.4632  0.3151 -0.0900
  372TIP3    H122531   0.924   4.784  11.625  0.4094  0.8345 -0.5181
  372TIP3    H222532   1.037   4.719  11.549 -0.5893 -0.4891 -0.9145
  373TIP3   OH222533   6.200   5.601   0.205 -0.0507  0.0780 -0.1993
  373TIP3    H122534   6.235   5.625   0.290  0.3329 -1.3597  0.0719
  373TIP3    H222535   6.121   5.654   0.195  0.9601  1.7242  0.1573
  374TIP3   OH222536   2.335   4.643  14.474 -0.0281  0.8642  0.7471
  374TIP3    H122537   2.342   4.735  14.449 -0.4595  0.6975 -0.0026
  374TIP3    H222538   2.397   4.598  14.417  0.0811  0.6709  1.0168
  375TIP3   OH222539   2.677   1.866  15.420 -0.2917  0.4733 -0.0676
  375TIP3    H122540   2.656   1.804  15.490 -0.5691  1.1925  0.4996
  375TIP3    H222541   2.657   1.819  15.339  0.6350 -0.5982  0.3050
  376TIP3   OH222542   1.930   5.981   1.380  0.5091 -0.2074  0.3139
  376TIP3    H122543   1.982   6.042   1.432 -0.0381  1.3255 -0.8294
  376TIP3    H222544   1.868   5.942   1.441  0.6263  0.6937  1.0183
  377TIP3   OH222545   3.757   6.560  13.972  0.7937  0.1743  0.4464
  377TIP3    H122546   3.817   6.533  13.902  0.2440  0.3160 -0.0882
  377TIP3    H222547   3.814   6.588  14.043  1.3598  0.5630 -0.1570
  378TIP3   OH222548   4.795   0.496  14.648  0.0922 -0.0271 -0.2963
  378TIP3    H122549   4.789   0.549  14.569 -0.2921 -0.9255 -0.8880
  378TIP3    H222550   4.707   0.501  14.687 -0.1241 -0.7026 -0.6793
  379TIP3   OH222551   3.453   1.377  16.769 -0.3667  0.1101 -0.1129
  379TIP3    H122552   3.423   1.373  16.679 -1.3233  0.1608  0.1961
  379TIP3    H222553   3.519   1.447  16.769 -0.0218 -0.2028 -0.8527
  380TIP3   OH222554   5.329   5.527  16.108  0.2376 -0.1240 -0.3347
  380TIP3    H122555   5.266   5.496  16.043 -0.6737  0.8463  0.0569
  380TIP3    H222556   5.405   5.470  16.096 -0.4758 -0.9349 -1.2251
  381TIP3   OH222557   5.350   4.037  11.933 -0.0047  0.8663  0.1890
  381TIP3    H122558   5.368   3.944  11.916 -1.0090  0.2490  2.1173
  381TIP3    H222559   5.288   4.062  11.864 -1.2765 -0.4974  0.7725
  382TIP3   OH222560   2.994   6.614   1.855  0.0990  0.0523  0.1424
  382TIP3    H122561   3.016   6.526   1.885 -0.8351 -0.2019  0.1074
  382TIP3    H222562   2.909   6.604   1.812 -0.5287  1.1554  1.0628
  383TIP3   OH222563   1.646   2.883   0.474  0.4991  0.4380 -0.2096
  383TIP3    H122564   1.698   2.842   0.542 -0.1476 -0.6106 -0.3224
  383TIP3    H222565   1.663   2.831   0.395  0.5233  1.0720 -0.6354
  384TIP3   OH222566   2.182   0.413  17.231 -0.6458  0.0246 -0.1539
  384TIP3    H122567   2.089   0.395  17.226 -0.6687  0.1958 -0.3411
  384TIP3    H222568   2.198   0.429  17.324 -0.1727 -3.3236  0.4648
  385TIP3   OH222569   3.427   3.309  14.112 -0.1262 -0.1264 -0.4106
  385TIP3    H122570   3.439   3.225  14.068  0.1989 -0.8045  0.9169
  385TIP3    H222571   3.425   3.287  14.205  2.2555  1.5442  0.1272
  386TIP3   OH222572   2.459   3.501   2.252  0.5719 -0.4649 -0.3465
  386TIP3    H122573   2.505   3.426   2.215  0.9729 -0.0318 -0.7404
  386TIP3    H222574   2.525   3.570   2.257  0.9002 -0.8628  2.4396
  387TIP3   OH222575   4.974   2.406   3.268 -0.0517 -0.0527  0.4431
  387TIP3    H122576   4.975   2.320   3.227  1.1915  0.8601 -1.6008
  387TIP3    H222577   4.904   2.453   3.224 -0.5363  0.0816  1.3471
  388TIP3   OH222578   0.251   0.691   6.987  0.3226 -0.2011 -0.0496
  388TIP3    H122579   0.251   0.681   6.892  0.1839  1.0940 -0.2071
  388TIP3    H222580   0.343   0.682   7.012  0.5920  0.9838 -0.5164
  389TIP3   OH222581   4.515   3.729  14.144  0.1942  0.1549 -0.0647
  389TIP3    H122582   4.557   3.767  14.066  0.4886 -1.7034 -0.8699
  389TIP3    H222583   4.468   3.653  14.111 -0.1579 -0.3478  1.5164
  390TIP3   OH222584   1.242   0.775  13.464 -0.2742  0.1955  0.4811
  390TIP3    H122585   1.277   0.687  13.454 -1.4806 -0.3038  0.3978
  390TIP3    H222586   1.180   0.784  13.392  0.0820  1.2433  0.2926
  391TIP3   OH222587   3.455   5.443  12.836  0.4161 -0.0445 -0.2120
  391TIP3    H122588   3.497   5.399  12.763 -3.9992 -1.8196 -2.0713
  391TIP3    H222589   3.405   5.515  12.796  0.6280  1.2060  1.6158
  392TIP3   OH222590   3.092   4.579  12.938  0.0395 -0.3019  0.0093
  392TIP3    H122591   3.025   4.519  12.907  1.9656 -1.7513 -1.5851
  392TIP3    H222592   3.147   4.596  12.862  0.4982  2.2779  0.8006
  393TIP3   OH222593   5.569   5.901  11.526 -0.0880  0.1865 -0.0283
  393TIP3    H122594   5.567   5.830  11.462  1.5466  1.4601 -1.5759
  393TIP3    H222595   5.478   5.910  11.555 -0.5366 -1.6673 -0.7375
  394TIP3   OH222596   0.591   4.339  14.115  0.0838 -0.0382 -0.5160
  394TIP3    H122597   0.497   4.329  14.128  0.3838 -0.3833  1.7874
  394TIP3    H222598   0.600   4.363  14.023 -2.3184  1.0042 -0.5539
  395TIP3   OH222599   2.288   3.019  13.916 -0.1815 -0.4491 -0.0891
  395TIP3    H122600   2.253   3.107  13.898 -0.6924 -0.6778 -0.2473
  395TIP3    H222601   2.212   2.970  13.948  0.4778 -0.3592  1.7053
  396TIP3   OH222602   6.109   2.917   2.384  0.0861 -0.1212 -0.1657
  396TIP3    H122603   6.122   2.874   2.469  2.3898  0.3482 -0.2128
  396TIP3    H222604   6.116   2.846   2.321  0.2958 -0.2134 -0.0440
  397TIP3   OH222605   6.224   4.940  15.538 -0.2369 -0.0921 -0.0008
  397TIP3    H122606   6.243   4.857  15.581  0.3630  0.1354  0.1806
  397TIP3    H222607   6.228   5.005  15.608  1.8990  0.4410 -0.5650
  398TIP3   OH222608   3.001   1.758  12.053  0.2498  0.2926 -0.2273
  398TIP3    H122609   3.023   1.769  11.961 -0.6248  2.0387 -0.2548
  398TIP3    H222610   2.989   1.847  12.086 -4.4689 -0.3066  0.3217
  399TIP3   OH222611   6.528   0.085   0.876  0.0126 -0.4879  0.1006
  399TIP3    H122612   6.505   0.006   0.828  0.3172 -1.2649  1.1944
  399TIP3    H222613   6.611   0.113   0.837  0.3326 -1.1987  0.2457
  400TIP3   OH222614   2.224   2.973   5.849 -0.5723  0.0674  0.1460
  400TIP3    H122615   2.295   2.976   5.786 -1.0159 -0.3585 -0.3845
  400TIP3    H222616   2.173   2.895   5.825 -0.4910 -0.3668  1.3169
  401TIP3   OH222617   2.077   4.895   1.237  0.2644  0.6507 -0.3512
  401TIP3    H122618   2.126   4.973   1.265  0.3727  0.7440 -0.7993
  401TIP3    H222619   1.995   4.899   1.286  0.0809  1.2840 -0.7011
  402TIP3   OH222620   3.420   1.544  13.950  0.2504 -0.0609  0.4298
  402TIP3    H122621   3.384   1.466  13.908  0.3616  0.3190 -0.3793
  402TIP3    H222622   3.344   1.590  13.985  0.2082 -0.6823  1.1998
  403TIP3   OH222623   4.000   6.401   0.772 -0.3041  0.2653 -0.5233
  403TIP3    H122624   4.008   6.364   0.860  1.8655  0.7259 -0.4608
  403TIP3    H222625   4.026   6.329   0.713  0.4106  0.5902 -0.6215
  404TIP3   OH222626   2.441   4.949   2.927  0.5353  0.4756  0.3951
  404TIP3    H122627   2.432   4.999   2.846 -0.0617 -1.8586 -1.0864
  404TIP3    H222628   2.427   5.013   2.996  0.0952  2.3849 -1.3482
  405TIP3   OH222629   1.282   0.128   3.461  0.2278  0.3179 -0.9882
  405TIP3    H122630   1.302   0.217   3.492 -0.9244  0.7051 -1.2896
  405TIP3    H222631   1.209   0.140   3.400 -1.8901 -1.0806  1.0539
  406TIP3   OH222632   6.507   0.537  14.749  0.4418 -0.2410 -0.6917
  406TIP3    H122633   6.541   0.499  14.668  1.0083  1.1280 -1.1258
  406TIP3    H222634   6.570   0.512  14.816 -0.4448 -2.0710 -0.4633
  407TIP3   OH222635   4.479   1.978   2.067  0.5815 -0.5563 -0.1741
  407TIP3    H122636   4.536   2.039   2.114 -0.2345 -1.7934  2.6329
  407TIP3    H222637   4.511   1.979   1.977  1.4789  2.8851  0.0602
  408TIP3   OH222638   2.911   0.118  12.112 -0.9248 -0.1073 -0.3042
  408TIP3    H122639   2.963   0.186  12.069  0.5704  0.9921  2.9517
  408TIP3    H222640   2.831   0.162  12.138 -0.8080 -0.1299  0.0942
  409TIP3   OH222641   5.719   5.131   5.708  0.0159  0.6276  0.5672
  409TIP3    H122642   5.646   5.180   5.669 -0.2808 -0.3883 -0.2060
  409TIP3    H222643   5.782   5.122   5.636 -0.2844 -0.7895  0.4551
  410TIP3   OH222644   0.034   3.105  15.098 -0.6715 -0.3182  0.0019
  410TIP3    H122645   0.066   3.195  15.091 -1.0840 -0.2928 -1.8130
  410TIP3    H222646   0.070   3.074  15.181  0.4640  1.1223  0.0857
  411TIP3   OH222647   6.278   5.089   5.731 -0.1485  0.3545 -0.3460
  411TIP3    H122648   6.235   5.068   5.814  3.0050  1.0351  1.6121
  411TIP3    H222649   6.322   5.172   5.746  2.7723 -0.8037 -1.7196
  412TIP3   OH222650   5.925   4.231  11.287 -0.2267  0.4999  0.1071
  412TIP3    H122651   5.911   4.288  11.212 -0.3028  1.9634  1.1910
  412TIP3    H222652   5.885   4.278  11.360 -1.5050 -1.5865  0.8287
  413TIP3   OH222653   6.020   5.763   0.520  0.5665  0.3871 -0.3116
  413TIP3    H122654   5.966   5.774   0.441  1.2683  2.7790 -0.5194
  413TIP3    H222655   6.086   5.699   0.494 -0.0235  0.1065 -1.2089
  414TIP3   OH222656   1.802   2.847  15.468  0.3525 -0.5546  0.7756
  414TIP3    H122657   1.808   2.751  15.469 -3.1803 -0.9122  0.3996
  414TIP3    H222658   1.823   2.871  15.378 -0.4906 -1.1645  0.4084
  415TIP3   OH222659   2.284   3.717   1.451  0.6019  0.2054  0.7081
  415TIP3    H122660   2.334   3.644   1.486  1.3684  0.4756  0.1986
  415TIP3    H222661   2.293   3.787   1.515  1.5830  0.5308  0.2318
  416TIP3   OH222662   4.620   0.205   0.480 -0.4968 -0.8605 -0.2393
  416TIP3    H122663   4.678   0.280   0.469 -1.4834  0.0977  0.7686
  416TIP3    H222664   4.640   0.147   0.406  0.5440  0.2210 -0.8287
  417TIP3   OH222665   1.081   0.017  11.766  0.2841  0.4706  0.0934
  417TIP3    H122666   1.016   0.003  11.697  1.3630 -0.1670 -0.8281
  417TIP3    H222667   1.029   0.028  11.846 -0.9879  1.1169 -0.7902
  418TIP3   OH222668   0.822   5.367  14.704 -0.0601  0.8525  0.4616
  418TIP3    H122669   0.822   5.427  14.779  0.5775  3.1014 -1.2115
  418TIP3    H222670   0.751   5.400  14.648 -0.4987 -0.7431  0.0353
  419TIP3   OH222671   0.321   5.660  16.275 -0.2093 -0.5411 -0.7107
  419TIP3    H122672   0.351   5.668  16.185  0.2691 -0.8666 -0.5882
  419TIP3    H222673   0.395   5.620  16.321 -0.5308 -0.5834 -0.2237
  420TIP3   OH222674   4.802   5.509  13.963 -1.0853  0.1410 -0.9407
  420TIP3    H122675   4.727   5.449  13.963 -0.5795 -0.6025  1.2857
  420TIP3    H222676   4.837   5.503  14.052  0.9660  1.3053 -1.6033
  421TIP3   OH222677   1.713   1.839  14.072 -0.3181 -0.5275 -0.1196
  421TIP3    H122678   1.674   1.760  14.109 -2.0787  2.0287  4.1631
  421TIP3    H222679   1.806   1.834  14.098 -0.0438 -1.7809 -1.2163
  422TIP3   OH222680   2.560   3.949  11.571  0.8189  0.0311  0.0696
  422TIP3    H122681   2.487   3.971  11.513  0.3744 -0.9896  0.2210
  422TIP3    H222682   2.521   3.940  11.658  0.9735 -1.2383  0.0323
  423TIP3   OH222683   6.592   6.165  15.676 -0.0836  0.4338  0.5536
  423TIP3    H122684   6.686   6.149  15.672  0.2479  2.0320  1.2659
  423TIP3    H222685   6.554   6.079  15.692  1.4241  0.0216  2.2666
  424TIP3   OH222686   0.879   0.793  15.569 -0.3149 -0.6431 -0.0132
  424TIP3    H122687   0.942   0.750  15.512 -0.9483 -1.6262 -0.0082
  424TIP3    H222688   0.830   0.721  15.609 -1.1356  0.0757  0.3226
  425TIP3   OH222689   2.357   0.953   4.177 -0.1293 -0.2096 -0.5228
  425TIP3    H122690   2.379   1.002   4.097  1.8065  1.7285  1.0509
  425TIP3    H222691   2.428   0.974   4.237 -0.7655 -2.7589  1.2672
  426TIP3   OH222692   2.511   2.043  13.581  0.0805  0.6062  0.2219
  426TIP3    H122693   2.460   2.016  13.657 -0.2538 -0.1724 -0.2621
  426TIP3    H222694   2.446   2.079  13.520  0.4586  2.0909  0.6577
  427TIP3   OH222695   6.371   2.556  11.661  0.2427 -0.5358  0.1506
  427TIP3    H122696   6.340   2.475  11.622  0.7850 -0.1387 -1.1597
  427TIP3    H222697   6.423   2.597  11.592 -0.3556  1.1164  0.6309
  428TIP3   OH222698   4.465   0.572  11.486  0.7413 -0.2883 -0.1638
  428TIP3    H122699   4.485   0.620  11.406  2.7114 -0.5342  0.1333
  428TIP3    H222700   4.534   0.505  11.492 -1.5047 -2.7551 -0.2150
  429TIP3   OH222701   5.066   3.429   2.969 -0.5055 -0.3710 -0.1303
  429TIP3    H122702   5.042   3.482   2.894 -1.1732  1.5595  1.3507
  429TIP3    H222703   5.006   3.355   2.968 -0.0118 -0.7817 -1.8590
  430TIP3   OH222704   3.696   2.181  15.744 -0.0471  0.6916 -0.5562
  430TIP3    H122705   3.764   2.113  15.744 -0.0416  0.6963  0.2180
  430TIP3    H222706   3.653   2.170  15.659 -1.5167 -1.7872  0.3836
  431TIP3   OH222707   1.256   5.623  14.823  0.0185  0.1077  0.3789
  431TIP3    H122708   1.340   5.655  14.789 -1.2468  2.8488 -0.4016
  431TIP3    H222709   1.242   5.540  14.776  1.9639 -0.1143  0.0785
  432TIP3   OH222710   5.473   3.809  11.846 -0.3202  0.3958 -0.9476
  432TIP3    H122711   5.549   3.799  11.903 -0.1421  0.2323 -1.2098
  432TIP3    H222712   5.424   3.728  11.856 -1.2959  1.1104  0.4093
  433TIP3   OH222713   4.048   6.064  14.887 -0.0465 -0.3441  0.0339
  433TIP3    H122714   4.015   6.002  14.952 -0.2679 -0.7766 -0.4879
  433TIP3    H222715   4.120   6.019  14.844 -0.5628 -0.4657 -0.7288
  434TIP3   OH222716   4.240   5.842   6.388 -0.5229 -0.4089 -0.3189
  434TIP3    H122717   4.264   5.836   6.296 -1.3166  0.3942 -0.5975
  434TIP3    H222718   4.301   5.784   6.433  1.4695  1.0072 -1.0417
  435TIP3   OH222719   5.672   0.305  13.705 -0.1709  0.1954 -0.4795
  435TIP3    H122720   5.665   0.250  13.783  2.7060  1.8581  1.1037
  435TIP3    H222721   5.650   0.393  13.736  4.0027  1.4674 -0.5852
  436TIP3   OH222722   6.462   4.903  11.828 -0.0377  0.2049 -0.0339
  436TIP3    H122723   6.557   4.897  11.834  0.2571  2.0724 -1.7472
  436TIP3    H222724   6.440   4.986  11.871 -0.8190  0.0813 -0.1734
  437TIP3   OH222725   1.561   4.458   2.366  0.2386  0.6578  0.0547
  437TIP3    H122726   1.622   4.488   2.299  0.9151 -0.9718 -0.1023
  437TIP3    H222727   1.611   4.397   2.419 -0.7917  0.5727  0.9771
  438TIP3   OH222728   2.488   0.536  16.710  0.4126 -0.3220  0.6026
  438TIP3    H122729   2.525   0.486  16.783  0.5164  1.8616  2.1402
  438TIP3    H222730   2.530   0.621  16.716 -1.6100  0.8050 -0.3359
  439TIP3   OH222731   4.501   3.184   2.195  0.3394  0.3501 -0.3954
  439TIP3    H122732   4.519   3.145   2.281 -1.9029  1.7841  0.8263
  439TIP3    H222733   4.554   3.264   2.194 -0.4584  0.9122  0.1892
  440TIP3   OH222734   2.277   1.914   2.740 -0.1263  0.0635 -0.4434
  440TIP3    H122735   2.281   1.902   2.645 -0.3627  0.7307 -0.5403
  440TIP3    H222736   2.364   1.889   2.771  0.0509  0.1419 -0.8739
  441TIP3   OH222737   6.122   3.160   6.213  0.2454  0.3585  0.1359
  441TIP3    H122738   6.030   3.148   6.237  0.6964 -1.8114  1.0653
  441TIP3    H222739   6.170   3.099   6.269  2.4134  2.2248  0.4807
  442TIP3   OH222740   1.791   6.022   2.309 -0.2037  0.1104  0.0193
  442TIP3    H122741   1.754   6.032   2.397  0.4657 -0.7555  0.4154
  442TIP3    H222742   1.878   6.061   2.316  0.4467 -1.3084  0.1821
  443TIP3   OH222743   4.499   3.464   1.431 -0.2319 -0.2590 -0.7552
  443TIP3    H122744   4.556   3.406   1.380  0.7502  0.3589 -0.3785
  443TIP3    H222745   4.466   3.408   1.502  2.2551  0.0540  0.7724
  444TIP3   OH222746   5.960   3.874   2.311 -0.5088  0.0082  0.5549
  444TIP3    H122747   6.008   3.807   2.262  1.6500  0.7799  1.4517
  444TIP3    H222748   5.896   3.909   2.250  0.2526 -0.9133 -0.8145
  445TIP3   OH222749   6.437   0.127  15.822 -0.8153  0.5371 -0.3896
  445TIP3    H122750   6.366   0.071  15.851  1.0972 -1.5596  0.5651
  445TIP3    H222751   6.489   0.072  15.764 -0.1774  2.1432 -1.4319
  446TIP3   OH222752   5.151   5.798   5.504 -0.0757  0.1273  0.1328
  446TIP3    H122753   5.170   5.886   5.471  0.5014  0.6627  1.7636
  446TIP3    H222754   5.072   5.809   5.557  1.6156  0.4296  2.8613
  447TIP3   OH222755   5.495   4.563   0.198 -0.6055 -0.1360  0.1499
  447TIP3    H122756   5.574   4.590   0.245 -0.1212 -0.1215 -0.6607
  447TIP3    H222757   5.479   4.473   0.228 -0.3718 -0.0886  0.4268
  448TIP3   OH222758   5.110   0.116   5.596  0.1381 -0.5199  0.4394
  448TIP3    H122759   5.181   0.069   5.641 -0.8391 -1.2954  1.2300
  448TIP3    H222760   5.140   0.207   5.591  0.5825 -0.5560  2.0382
  449TIP3   OH222761   5.431   5.244  15.540  0.7779 -0.4859 -0.0146
  449TIP3    H122762   5.360   5.191  15.575  1.7290 -1.2538  0.8146
  449TIP3    H222763   5.502   5.236  15.605  1.6637  0.1564 -0.8665
  450TIP3   OH222764   0.823   2.192   4.210  0.3921  0.1608  0.4181
  450TIP3    H122765   0.869   2.226   4.287  1.9055 -1.9838  0.5447
  450TIP3    H222766   0.824   2.097   4.222  1.1424 -0.2714 -2.4646
  451TIP3   OH222767   5.565   5.737  16.064  0.0184 -0.5354  0.5147
  451TIP3    H122768   5.528   5.822  16.090 -0.2413 -0.6533  0.5331
  451TIP3    H222769   5.490   5.678  16.062  0.2017 -0.7697  0.5142
  452TIP3   OH222770   4.955   1.161  15.573  0.3513 -0.2588 -0.1104
  452TIP3    H122771   4.883   1.199  15.522  0.9689 -0.2678 -1.0053
  452TIP3    H222772   4.927   1.071  15.592 -0.6607  0.2805  1.1305
  453TIP3   OH222773   2.447   1.759   5.167 -0.1665  0.0695  0.3761
  453TIP3    H122774   2.355   1.742   5.190 -0.2281 -0.6000 -0.3198
  453TIP3    H222775   2.476   1.679   5.124  1.2913 -0.4211  2.1520
  454TIP3   OH222776   5.857   2.079  14.554  0.8685 -0.7538  0.6416
  454TIP3    H122777   5.855   2.123  14.639  0.2759 -0.3372  0.4152
  454TIP3    H222778   5.808   1.997  14.568 -1.1151  0.2805  0.1893
  455TIP3   OH222779   2.537   6.116  14.820  0.1284  0.3116  0.0596
  455TIP3    H122780   2.500   6.201  14.794  1.3139  0.4056 -1.4624
  455TIP3    H222781   2.533   6.063  14.740  0.3539 -0.7272  0.7294
  456TIP3   OH222782   1.925   0.006  12.150 -0.2564 -0.0169 -0.2605
  456TIP3    H122783   1.941   0.093  12.187 -1.8126  0.1717  0.0610
  456TIP3    H222784   1.897  -0.047  12.225 -0.6189 -0.4212 -0.6700
  457TIP3   OH222785   3.911   2.803  15.472 -0.4344  0.3182  0.2115
  457TIP3    H122786   3.942   2.856  15.399  0.3542  0.7945  0.8779
  457TIP3    H222787   3.982   2.742  15.489 -0.0033  1.1442  1.4853
  458TIP3   OH222788   5.475   1.998   1.579  0.0980  0.2259  0.5652
  458TIP3    H122789   5.542   1.987   1.512 -0.9951 -1.4483 -0.2987
  458TIP3    H222790   5.500   1.936   1.648 -0.4137 -0.2195  0.3528
  459TIP3   OH222791   4.381   2.679  12.366  0.4421 -0.6058  0.6945
  459TIP3    H122792   4.393   2.584  12.370 -1.6277 -1.0233 -0.9932
  459TIP3    H222793   4.288   2.690  12.347  0.6596  1.7796  0.7748
  460TIP3   OH222794   6.260   2.972  15.251 -0.0697 -0.1183  0.3144
  460TIP3    H122795   6.324   3.043  15.241 -0.6638  0.6025  1.5161
  460TIP3    H222796   6.175   3.013  15.236 -0.2866 -1.1914 -1.8774
  461TIP3   OH222797   0.700   0.015   4.803 -0.6683  0.0452  0.0181
  461TIP3    H122798   0.748  -0.051   4.853 -0.7976  1.3634  1.9841
  461TIP3    H222799   0.741   0.014   4.717  2.0475  0.1795  1.2017
  462TIP3   OH222800   1.371   6.412  10.791 -0.4051 -0.0941  0.2270
  462TIP3    H122801   1.288   6.375  10.761  0.1127 -3.0829  2.0680
  462TIP3    H222802   1.346   6.489  10.843 -1.8168  0.3236 -1.0024
  463TIP3   OH222803   4.046   2.431  16.232  0.7754 -0.6456  0.2625
  463TIP3    H122804   4.122   2.377  16.210 -0.4086 -2.0139 -0.6224
  463TIP3    H222805   3.971   2.374  16.220 -0.5382  1.1413 -0.5310
  464TIP3   OH222806   4.611   2.207   2.162  0.8240  0.0413 -0.1614
  464TIP3    H122807   4.612   2.265   2.238  0.2281  0.1882 -0.2614
  464TIP3    H222808   4.598   2.266   2.088 -0.5378 -0.2737 -0.1993
  465TIP3   OH222809   4.435   5.756   4.673  0.1103  0.4820 -0.1953
  465TIP3    H122810   4.422   5.662   4.691 -0.7389  0.4910 -0.7175
  465TIP3    H222811   4.516   5.778   4.720 -1.0854  0.1118  2.2037
  466TIP3   OH222812   2.750   3.471   0.362 -0.3539 -0.5008 -0.2935
  466TIP3    H122813   2.787   3.399   0.311  0.1826 -1.1721  1.0023
  466TIP3    H222814   2.802   3.473   0.443 -0.1837  1.5135 -0.4049
  467TIP3   OH222815   2.793   5.026   0.697 -0.0726  0.2270 -0.3076
  467TIP3    H122816   2.765   4.941   0.732 -1.6310  1.1075  0.6923
  467TIP3    H222817   2.876   5.007   0.654 -0.6324 -1.9204 -0.6154
  468TIP3   OH222818   2.364   3.318  14.138 -0.4118  0.5246 -0.4982
  468TIP3    H122819   2.375   3.237  14.188  1.5139  0.9630 -0.1227
  468TIP3    H222820   2.347   3.384  14.205 -0.4986  0.6799 -0.6751
  469TIP3   OH222821   2.464   5.785  12.281  0.0185  0.5733 -0.3414
  469TIP3    H122822   2.404   5.860  12.277 -0.4521  0.2385  0.3152
  469TIP3    H222823   2.466   5.760  12.373  1.3927  0.7387 -0.3006
  470TIP3   OH222824   1.573   5.268  12.100 -0.0168  0.6214  0.3889
  470TIP3    H122825   1.485   5.240  12.073 -1.0796  0.8860  3.2487
  470TIP3    H222826   1.593   5.342  12.042 -1.0859 -0.2755 -1.1985
  471TIP3   OH222827   6.101   3.623   2.998  0.1590 -0.7191  0.5862
  471TIP3    H122828   6.124   3.624   2.906 -0.8748 -0.3850  0.3159
  471TIP3    H222829   6.010   3.652   3.001  0.3665 -0.1094  1.7700
  472TIP3   OH222830   0.908   5.514   0.840  0.2421  0.1147  0.7077
  472TIP3    H122831   0.946   5.457   0.906 -2.5014 -1.3818  1.1681
  472TIP3    H222832   0.858   5.455   0.783  2.3673  1.3448 -2.7434
  473TIP3   OH222833   2.353   6.562  16.169  0.9219 -0.1584  0.0521
  473TIP3    H122834   2.388   6.496  16.229  0.6328 -0.0446  0.3511
  473TIP3    H222835   2.342   6.640  16.224  4.5070  1.2946 -0.9736
  474TIP3   OH222836   6.580   2.070   1.745 -0.6214 -0.2541  0.1945
  474TIP3    H122837   6.572   2.077   1.650 -0.1858  2.7279  0.2966
  474TIP3    H222838   6.549   1.981   1.765 -2.3748 -0.3741 -2.5267
  475TIP3   OH222839   2.663   4.340  15.402 -0.0720  0.2450  0.5863
  475TIP3    H122840   2.731   4.394  15.442 -0.1129  0.7831 -0.0488
  475TIP3    H222841   2.581   4.375  15.436 -0.0765  0.2797  0.5404
  476TIP3   OH222842   1.098   6.482  11.019 -0.4783 -0.4675  0.0252
  476TIP3    H122843   1.117   6.450  10.931  1.8428  0.9609 -0.0726
  476TIP3    H222844   1.119   6.409  11.077  1.1123 -0.4048 -0.4332
  477TIP3   OH222845   2.640   5.107   0.385 -0.1649  0.2104 -0.2673
  477TIP3    H122846   2.595   5.037   0.339 -0.8283 -0.6626  1.5901
  477TIP3    H222847   2.733   5.084   0.380 -0.4073 -1.0108  0.6126
  478TIP3   OH222848   6.480   0.217   1.598  0.0802 -0.7164 -0.3018
  478TIP3    H122849   6.469   0.284   1.665  0.7834 -0.5897 -0.3012
  478TIP3    H222850   6.427   0.247   1.524 -0.1691 -0.5228 -0.0457
  479TIP3   OH222851   1.453   4.942   3.869 -0.3131  0.0488 -0.7532
  479TIP3    H122852   1.429   4.972   3.782  1.4631  1.0218 -0.9515
  479TIP3    H222853   1.528   4.884   3.855  2.5817  3.1930  0.2618
  480TIP3   OH222854   0.150   5.609   4.843 -0.2942  0.1086  0.1168
  480TIP3    H122855   0.211   5.682   4.833 -0.2188  0.2141  1.2020
  480TIP3    H222856   0.103   5.605   4.760  1.4162 -0.1902 -0.8645
  481TIP3   OH222857   0.579   0.962  13.044 -0.1627 -0.2641 -0.3408
  481TIP3    H122858   0.672   0.954  13.064 -0.2298 -2.0599 -0.5424
  481TIP3    H222859   0.576   0.973  12.949 -0.1553  0.2308 -0.2878
  482TIP3   OH222860   1.979   1.889   3.432 -0.5650 -0.1922  0.7088
  482TIP3    H122861   1.990   1.809   3.381  1.3157 -0.0994  0.8993
  482TIP3    H222862   1.932   1.861   3.510 -0.1081 -1.0713  0.6806
  483TIP3   OH222863   0.990   3.369  13.328 -0.7274  0.0552 -0.3231
  483TIP3    H122864   0.945   3.302  13.380  0.8152  0.1643  1.2584
  483TIP3    H222865   1.065   3.324  13.289  0.8066  0.9297  1.4210
  484TIP3   OH222866   2.632   4.343   4.059 -0.3552 -0.0095  0.4590
  484TIP3    H122867   2.577   4.286   4.114  2.8343 -2.6955  1.1998
  484TIP3    H222868   2.682   4.395   4.122  0.7625 -0.5016 -0.0114
  485TIP3   OH222869   2.479   6.504  11.599  0.4100 -0.0374 -0.0272
  485TIP3    H122870   2.466   6.532  11.689  2.6526  1.2734 -0.0179
  485TIP3    H222871   2.542   6.431  11.605 -0.0137 -0.4491 -0.4886
  486TIP3   OH222872   5.327   0.169   0.950  0.1203 -0.1774 -0.0328
  486TIP3    H122873   5.303   0.250   0.996  0.2264 -0.2843  0.2123
  486TIP3    H222874   5.374   0.118   1.015  1.7817  0.3794 -0.7418
  487TIP3   OH222875   4.449   4.837  16.705  0.0237  0.3927  0.0249
  487TIP3    H122876   4.539   4.865  16.725 -0.1737  0.8738  0.2669
  487TIP3    H222877   4.459   4.756  16.655  0.6208  0.9460 -0.7728
  488TIP3   OH222878   5.927   3.182  14.935 -0.2807 -0.2409  0.1962
  488TIP3    H122879   5.880   3.123  14.876 -1.3257  1.0112 -0.2679
  488TIP3    H222880   6.019   3.171  14.911 -0.6687  0.1966 -1.6572
  489TIP3   OH222881   0.862   1.888  14.053 -0.0998  0.0658  0.1865
  489TIP3    H122882   0.796   1.950  14.082  1.2536  1.1652  0.9890
  489TIP3    H222883   0.944   1.937  14.054  0.9074 -1.5451  0.2075
  490TIP3   OH222884   3.018   5.767   2.565  0.2669 -0.1916  0.1733
  490TIP3    H122885   3.111   5.788   2.565  0.0381  0.9313  0.6110
  490TIP3    H222886   2.991   5.776   2.474  0.3409  0.7293  0.2350
  491TIP3   OH222887   6.647   0.870  13.510  0.1483  0.0670 -0.1019
  491TIP3    H122888   6.737   0.846  13.532  0.1160 -0.0773 -0.1283
  491TIP3    H222889   6.593   0.807  13.558  0.0980 -0.8603 -1.3337
  492TIP3   OH222890   5.283   4.568   3.530  0.5795  0.0844 -0.1845
  492TIP3    H122891   5.206   4.581   3.586 -0.6232  1.9498 -2.0740
  492TIP3    H222892   5.350   4.626   3.567 -0.0490  0.9570 -0.3747
  493TIP3   OH222893   5.208   2.832  16.770  0.5003  0.3245  0.3398
  493TIP3    H122894   5.268   2.902  16.800 -0.4379  2.6737 -2.7425
  493TIP3    H222895   5.229   2.821  16.677 -1.1469 -1.7268  0.1451
  494TIP3   OH222896   6.373   0.049  11.928  0.0421  0.4533  0.1844
  494TIP3    H122897   6.444  -0.004  11.965  0.6162  0.2165 -1.1983
  494TIP3    H222898   6.293   0.001  11.952  0.5849 -1.8472 -2.0676
  495TIP3   OH222899   2.188   4.660  11.691 -0.0426 -0.1064 -0.1999
  495TIP3    H122900   2.181   4.751  11.662  0.9365 -0.0619 -0.3140
  495TIP3    H222901   2.246   4.618  11.628 -0.6534 -0.8772 -0.2708
  496TIP3   OH222902   6.020   3.322   3.441  0.3986  0.3109 -0.3445
  496TIP3    H122903   6.046   3.330   3.533  3.2353 -0.3070 -1.0040
  496TIP3    H222904   5.952   3.389   3.429  0.8690  1.2615  1.8644
  497TIP3   OH222905   5.884   0.390  17.166 -0.3196 -0.4037 -0.0940
  497TIP3    H122906   5.960   0.377  17.108  0.9231 -1.6023  1.6959
  497TIP3    H222907   5.861   0.302  17.195 -1.8317  0.0418  0.1612
  498TIP3   OH222908   2.731   5.219  13.678 -0.4426  0.4551 -0.1768
  498TIP3    H122909   2.681   5.149  13.720 -0.5992  0.2823 -0.6388
  498TIP3    H222910   2.664   5.279  13.644 -0.4199 -0.4772 -2.0097
  499TIP3   OH222911   3.307   4.365  12.734  0.2806 -0.2345  0.1340
  499TIP3    H122912   3.247   4.430  12.697 -0.8674 -0.8871  0.7928
  499TIP3    H222913   3.350   4.410  12.806 -2.2107 -0.7956  2.1158
  500TIP3   OH222914   4.680   0.873   1.716  0.1554 -0.5833 -0.3516
  500TIP3    H122915   4.690   0.785   1.680 -1.3382 -0.5307 -0.9477
  500TIP3    H222916   4.590   0.876   1.748  0.6542  0.2379  1.0941
  501TIP3   OH222917   5.458   4.884  11.704  0.5025  0.3592 -0.3826
  501TIP3    H122918   5.366   4.892  11.732  0.3755 -2.2193  0.1752
  501TIP3    H222919   5.508   4.892  11.785  0.5681 -0.7357 -0.2996
  502TIP3   OH222920   4.515   5.729  14.596  0.2263  0.8928 -0.3732
  502TIP3    H122921   4.505   5.634  14.607  1.7544  0.6489 -0.7118
  502TIP3    H222922   4.427   5.764  14.603 -0.0951 -0.2355  2.6233
  503TIP3   OH222923   2.284   3.628   1.836 -0.4121 -0.3216  0.4250
  503TIP3    H122924   2.251   3.539   1.848  0.1092 -0.4800  0.6885
  503TIP3    H222925   2.245   3.678   1.908 -1.6538 -0.0647 -0.3955
  504TIP3   OH222926   5.293   4.869   0.610 -0.6849 -0.3780  0.7154
  504TIP3    H122927   5.312   4.962   0.606 -0.6619 -0.4016  0.1489
  504TIP3    H222928   5.269   4.846   0.520  2.6901 -1.6336 -0.0094
  505TIP3   OH222929   6.116   5.722  11.409 -0.2987  0.0476  0.7353
  505TIP3    H122930   6.134   5.691  11.321 -0.7436 -0.0604  0.6782
  505TIP3    H222931   6.093   5.642  11.458 -0.9987  0.2184  0.7035
  506TIP3   OH222932   3.369   0.533   5.687 -0.0088  0.0122  0.0179
  506TIP3    H122933   3.290   0.574   5.651  1.1888  0.3874 -2.3817
  506TIP3    H222934   3.415   0.604   5.731  0.4748  0.5531 -1.3089
  507TIP3   OH222935   2.953   5.417   2.761 -0.2613  0.5341 -0.6300
  507TIP3    H122936   2.943   5.494   2.704 -0.5768 -0.7667 -2.4366
  507TIP3    H222937   2.940   5.342   2.702 -0.5553 -0.9079  1.1748
  508TIP3   OH222938   4.854   6.066  15.707 -0.2261 -0.5868 -0.8713
  508TIP3    H122939   4.926   6.009  15.682  0.7288  0.1436  0.1408
  508TIP3    H222940   4.860   6.073  15.802 -1.4137 -0.2252 -0.8055
  509TIP3   OH222941   4.096   1.822   0.664  0.6372  0.1413  0.1753
  509TIP3    H122942   4.097   1.913   0.636 -2.0255  0.0658 -0.3985
  509TIP3    H222943   4.022   1.815   0.724 -1.4276 -2.2319 -2.3326
  510TIP3   OH222944   2.899   2.648  12.471 -0.4868 -0.2324  0.1663
  510TIP3    H122945   2.935   2.659  12.559  4.6490 -1.6317 -1.3972
  510TIP3    H222946   2.859   2.561  12.471 -0.3752 -0.2876  1.0728
  511TIP3   OH222947   5.652   5.251  13.852  0.0140  0.2691 -0.2440
  511TIP3    H122948   5.654   5.163  13.891 -0.1050  0.5235  0.3549
  511TIP3    H222949   5.614   5.306  13.921  2.7271  1.3280  0.4983
  512TIP3   OH222950   4.573   3.709   3.012  0.3036  0.6478  0.0720
  512TIP3    H122951   4.488   3.732   3.048 -1.6881  1.1723 -4.3025
  512TIP3    H222952   4.573   3.613   3.008  0.2738  0.6150  0.7675
  513TIP3   OH222953   4.022   1.367  14.393  0.2118  0.1217  0.2885
  513TIP3    H122954   4.037   1.364  14.488  0.6760 -0.8219  0.2071
  513TIP3    H222955   3.958   1.436  14.381  1.9668  1.9738  1.0448
  514TIP3   OH222956   0.890   5.155  12.313 -0.0893 -0.1248 -0.1052
  514TIP3    H122957   0.969   5.195  12.277  0.8705 -2.6046 -0.9120
  514TIP3    H222958   0.878   5.199  12.398  1.5622  0.9971 -0.4046
  515TIP3   OH222959   5.313   6.070  16.345 -0.5084 -0.6763  0.3013
  515TIP3    H122960   5.294   6.006  16.413  0.5004 -1.6046 -0.2519
  515TIP3    H222961   5.406   6.091  16.356 -1.0973  1.7256  1.2911
  516TIP3   OH222962   5.684   3.825  12.697  0.7307  0.1066  0.1630
  516TIP3    H122963   5.699   3.905  12.747 -1.4556  1.0394 -0.5789
  516TIP3    H222964   5.772   3.800  12.666  1.3143  3.1495 -0.9816
  517TIP3   OH222965   1.484   6.626   5.404  0.0876  0.7887  0.2336
  517TIP3    H122966   1.518   6.549   5.451  0.2088  1.4746  1.2983
  517TIP3    H222967   1.545   6.638   5.331  0.1698 -0.0225  0.1626
  518TIP3   OH222968   2.147   4.987  15.275  0.2296  0.2281  0.1346
  518TIP3    H122969   2.201   4.908  15.277 -0.9507 -0.6125  2.2691
  518TIP3    H222970   2.057   4.955  15.274 -0.2641  1.5714 -0.4266
  519TIP3   OH222971   6.447   2.481  16.633 -0.0599 -0.5462  0.0548
  519TIP3    H122972   6.355   2.466  16.656  0.0535 -0.6865  0.4255
  519TIP3    H222973   6.496   2.442  16.705  0.2592  1.4945  1.0118
  520TIP3   OH222974   3.184   5.356   6.022 -0.4443  0.1825  0.1374
  520TIP3    H122975   3.181   5.286   6.088  1.7651 -0.7202 -0.6124
  520TIP3    H222976   3.277   5.363   5.999 -0.9635  1.4928 -1.8105
  521TIP3   OH222977   3.753   3.367  14.686 -0.6421  0.2605 -0.1815
  521TIP3    H122978   3.715   3.284  14.716 -1.1449  0.1639 -1.0651
  521TIP3    H222979   3.677   3.418  14.658 -0.3247  0.9959  0.2833
  522TIP3   OH222980   2.371   4.447  13.430  0.5265  0.6406  0.3289
  522TIP3    H122981   2.457   4.465  13.469  0.7627 -0.9564  0.6111
  522TIP3    H222982   2.309   4.465  13.500  0.8326 -0.6104  0.9499
  523TIP3   OH222983   2.702   4.264  11.782 -0.1035 -0.2296 -0.1303
  523TIP3    H122984   2.633   4.308  11.832  1.3997  1.5995  0.4340
  523TIP3    H222985   2.729   4.191  11.837 -0.8026 -0.2760  0.1568
  524TIP3   OH222986   5.886   2.229  16.629 -0.1581 -0.0657  0.0401
  524TIP3    H122987   5.920   2.179  16.703 -0.3382 -0.5177 -0.1789
  524TIP3    H222988   5.835   2.165  16.578  1.8847 -0.3795 -1.7657
  525TIP3   OH222989   6.376   4.857   2.140 -0.0584  0.3653 -1.0140
  525TIP3    H122990   6.293   4.814   2.161 -0.2729  1.3247  0.2708
  525TIP3    H222991   6.443   4.801   2.181 -0.2190  0.4742 -0.5933
  526TIP3   OH222992   1.345   0.523   0.413 -0.5245 -0.2218 -0.4662
  526TIP3    H122993   1.396   0.446   0.387  1.5825  0.4939  1.1918
  526TIP3    H222994   1.354   0.584   0.340 -0.0992 -0.6390 -0.7629
  527TIP3   OH222995   5.268   3.623  17.115 -0.2977  0.5117 -0.1639
  527TIP3    H122996   5.352   3.660  17.089  0.0647 -0.3803 -0.2972
  527TIP3    H222997   5.238   3.572  17.040 -1.8301  2.2228 -0.7890
  528TIP3   OH222998   0.294   2.851   4.056 -0.4852 -0.3470 -0.6405
  528TIP3    H122999   0.332   2.778   4.007  1.6766  1.3749 -1.6888
  528TIP3    H223000   0.368   2.887   4.105 -1.8722  0.1568  1.1751
  529TIP3   OH223001   3.761   4.778  13.304  0.0093  0.3939  0.0668
  529TIP3    H123002   3.699   4.837  13.260 -0.7572  0.0022  0.5879
  529TIP3    H223003   3.706   4.710  13.341  0.5720  0.8814  1.9067
  530TIP3   OH223004   0.868   2.862  15.737 -0.1205 -0.5756  0.3228
  530TIP3    H123005   0.882   2.776  15.777  0.1926 -0.4303  0.5302
  530TIP3    H223006   0.953   2.906  15.745  0.4777 -1.1880 -2.0650
  531TIP3   OH223007   2.509   2.181  11.104  0.1078 -0.0053 -0.2552
  531TIP3    H123008   2.455   2.136  11.039 -0.0246  0.2372 -0.3141
  531TIP3    H223009   2.448   2.236  11.153  0.1379 -0.5259  0.3740
  532TIP3   OH223010   2.340   2.986  12.073 -0.4122  0.3774 -0.5152
  532TIP3    H123011   2.277   2.941  12.018  0.2864 -0.3319 -0.7669
  532TIP3    H223012   2.376   2.917  12.129  0.6028  0.6318 -0.8331
  533TIP3   OH223013   3.122   4.021  11.539 -0.0654 -0.6799  0.5190
  533TIP3    H123014   3.078   3.938  11.525 -0.5780 -0.4598  0.7967
  533TIP3    H223015   3.052   4.082  11.561  0.2091  0.0103 -0.4569
  534TIP3   OH223016   1.801   1.832   2.201  0.0659  0.1348 -0.2673
  534TIP3    H123017   1.857   1.848   2.277 -1.6714  2.4934  0.6742
  534TIP3    H223018   1.731   1.777   2.235 -0.8059  1.3336 -0.0246
  535TIP3   OH223019   6.743   5.560  12.249 -0.3283 -0.0786 -0.2180
  535TIP3    H123020   6.757   5.654  12.239  0.6420  0.1228  2.3711
  535TIP3    H223021   6.687   5.551  12.325 -0.7527 -1.6113 -0.6686
  536TIP3   OH223022   0.381   4.876  17.217 -0.0833  0.3417 -0.0421
  536TIP3    H123023   0.452   4.930  17.181  1.0542 -0.8308  0.3559
  536TIP3    H223024   0.380   4.898  17.311 -1.3632  1.5441 -0.3077
  537TIP3   OH223025   0.767   2.797  14.717 -0.1964 -0.2859 -0.4044
  537TIP3    H123026   0.732   2.709  14.730 -0.6046 -0.0327  0.2741
  537TIP3    H223027   0.709   2.854  14.769 -1.0679  0.6325 -2.3100
  538TIP3   OH223028   5.396   3.251  16.767 -0.1857  0.6056 -0.0281
  538TIP3    H123029   5.396   3.157  16.785 -1.7054  0.7113  0.7107
  538TIP3    H223030   5.461   3.263  16.698 -2.1304 -1.4590 -2.4261
  539TIP3   OH223031   1.661   2.039   2.083  0.4471  1.0371  0.6887
  539TIP3    H123032   1.710   1.973   2.132  1.6697  0.8658 -0.6907
  539TIP3    H223033   1.708   2.121   2.099  0.6189  1.0501  0.1420
  540TIP3   OH223034   2.216   1.295  12.713 -0.2052 -0.1185  0.0490
  540TIP3    H123035   2.164   1.243  12.652 -1.6510  0.3901  0.8052
  540TIP3    H223036   2.300   1.305  12.670 -0.9878 -0.2814 -1.5839
  541TIP3   OH223037   4.903   5.520  12.663 -0.5229 -0.0745 -0.1145
  541TIP3    H123038   4.834   5.573  12.704 -0.2182  0.5356 -0.3780
  541TIP3    H223039   4.855   5.451  12.616 -0.9106 -0.2069  0.4657
  542TIP3   OH223040   3.411   5.859  14.192  0.3846 -0.2666 -0.2995
  542TIP3    H123041   3.450   5.898  14.270 -1.8449  0.4024  0.5683
  542TIP3    H223042   3.485   5.837  14.136  2.0302 -0.2194  1.7376
  543TIP3   OH223043   0.277   3.488  15.466  0.1298  0.7086 -0.7002
  543TIP3    H123044   0.207   3.447  15.518 -0.0345  0.0771 -1.4057
  543TIP3    H223045   0.282   3.578  15.500 -0.0804  0.3590  0.2943
  544TIP3   OH223046   5.934   4.277  12.853  0.9115  0.2126  0.5473
  544TIP3    H123047   5.858   4.335  12.854 -0.2109 -1.1952  0.3734
  544TIP3    H223048   6.002   4.326  12.899 -0.2473  1.3154  1.1608
  545TIP3   OH223049   5.472   5.501   2.625 -0.3481 -0.4416 -0.7326
  545TIP3    H123050   5.514   5.423   2.661  1.4939  0.5330 -0.6263
  545TIP3    H223051   5.390   5.469   2.587  0.3742 -2.4254 -0.7518
  546TIP3   OH223052   4.385   1.069   0.304 -0.6061 -0.5751 -0.4227
  546TIP3    H123053   4.343   0.997   0.351  2.4395 -0.5592  2.6925
  546TIP3    H223054   4.342   1.148   0.337  0.3141 -0.6810  1.1384
  547TIP3   OH223055   2.472   4.024   5.551 -0.2547  0.2138  0.0056
  547TIP3    H123056   2.483   3.966   5.475  0.3037  0.3235 -0.0002
  547TIP3    H223057   2.377   4.041   5.554 -0.3221 -0.0421 -0.4791
  548TIP3   OH223058   4.278   5.215   3.930 -0.3850 -0.1323 -0.3010
  548TIP3    H123059   4.346   5.148   3.933 -0.5005 -0.3159 -1.2818
  548TIP3    H223060   4.223   5.189   3.856 -2.9853 -1.3797  1.8675
  549TIP3   OH223061   4.495   4.605   3.705  0.0348  0.3444  0.4165
  549TIP3    H123062   4.425   4.637   3.761  0.9475  0.1761  1.6908
  549TIP3    H223063   4.466   4.519   3.675 -0.0627  0.0394  1.3839
  550TIP3   OH223064   5.072   2.631   6.181 -0.0809 -0.1848 -0.9957
  550TIP3    H123065   5.003   2.565   6.178  0.4294 -0.9881  1.9924
  550TIP3    H223066   5.118   2.614   6.263  2.0875  1.9254 -1.6652
  551TIP3   OH223067   4.837   3.761   5.773  0.3634  0.2020  0.4064
  551TIP3    H123068   4.858   3.850   5.744  1.5353 -0.2402 -0.1662
  551TIP3    H223069   4.766   3.772   5.836  0.3159  1.5174  0.1425
  552TIP3   OH223070   1.141   4.426  16.184 -0.3743  0.0882  0.4979
  552TIP3    H123071   1.083   4.369  16.234 -1.6292  1.1394  0.2900
  552TIP3    H223072   1.228   4.409  16.220 -1.1604  0.4365  2.6800
  553TIP3   OH223073   4.669   1.242  16.966  0.0984 -0.0372  0.6155
  553TIP3    H123074   4.623   1.241  16.882  0.3678  0.5462  0.4571
  553TIP3    H223075   4.696   1.333  16.978 -1.5058  0.2882  2.1955
  554TIP3   OH223076   1.106   3.000   6.501  0.0968 -0.1745 -0.3119
  554TIP3    H123077   1.137   3.039   6.583 -1.5355 -0.1048  0.2944
  554TIP3    H223078   1.017   3.032   6.491 -0.9249 -2.8267 -0.3751
  555TIP3   OH223079   3.202   2.514   3.702 -0.2324 -0.7689 -0.4629
  555TIP3    H123080   3.112   2.540   3.681 -0.0979  1.2940  1.1523
  555TIP3    H223081   3.194   2.430   3.746 -1.3503 -0.7116 -0.5308
  556TIP3   OH223082   0.119   5.519  15.623  0.6251  0.1583 -0.4334
  556TIP3    H123083   0.097   5.484  15.537  0.4047  1.4532 -0.9299
  556TIP3    H223084   0.043   5.499  15.678  1.3898 -2.0400 -0.0795
  557TIP3   OH223085   1.259   5.054   0.995  0.0699  0.4896 -0.4877
  557TIP3    H123086   1.175   5.083   0.962 -1.0790 -1.5793  0.4432
  557TIP3    H223087   1.259   4.959   0.982  1.4597  0.2016  1.2025
  558TIP3   OH223088   4.556   2.782   1.378  0.2971 -0.1944 -0.1248
  558TIP3    H123089   4.494   2.854   1.386 -1.1792 -1.2997 -1.0461
  558TIP3    H223090   4.587   2.767   1.467 -1.0078  0.1939  0.4170
  559TIP3   OH223091   1.433   5.810   1.034  0.2340 -0.4387  0.3264
  559TIP3    H123092   1.408   5.804   1.126 -1.3178  2.8575  0.2726
  559TIP3    H223093   1.529   5.810   1.035  0.2535  0.2176  2.0219
  560TIP3   OH223094   5.828   2.012  13.201 -0.4572 -0.0986  0.3251
  560TIP3    H123095   5.857   1.974  13.284 -1.4141  0.5048  0.9500
  560TIP3    H223096   5.831   2.107  13.216  0.3667  0.0562 -0.6874
  561TIP3   OH223097   2.831   4.513  12.378 -0.1440  0.1806  0.5755
  561TIP3    H123098   2.925   4.526  12.366 -0.2685  0.8806  0.3520
  561TIP3    H223099   2.794   4.601  12.383 -0.9030 -0.0715 -0.2559
  562TIP3   OH223100   5.098   1.568  12.922  0.6269  0.5888  0.2139
  562TIP3    H123101   5.067   1.479  12.937 -0.8662  1.2531  1.3521
  562TIP3    H223102   5.027   1.611  12.874  0.8512  1.4522  0.6335
  563TIP3   OH223103   0.794   1.366   0.999  0.1370  0.7372  0.0733
  563TIP3    H123104   0.715   1.411   1.029 -0.6753 -0.7315  0.2181
  563TIP3    H223105   0.837   1.339   1.080 -0.9133 -1.2830  0.0183
  564TIP3   OH223106   5.094   3.515  12.311  0.4372 -0.0186  0.0945
  564TIP3    H123107   5.143   3.523  12.229  0.9454 -1.2963  0.2556
  564TIP3    H223108   5.148   3.561  12.375 -0.7058  2.3709 -0.5240
  565TIP3   OH223109   4.611   4.433  14.884  0.0187  0.0998  0.2348
  565TIP3    H123110   4.598   4.355  14.938  1.7644 -1.0478 -0.8829
  565TIP3    H223111   4.630   4.503  14.947 -1.3294 -0.4108  1.2467
  566TIP3   OH223112   0.153   1.986  13.130 -0.3948  0.2658  0.2266
  566TIP3    H123113   0.123   1.996  13.040 -1.2296  1.4944  0.6088
  566TIP3    H223114   0.117   2.063  13.176  0.5073 -0.0204  1.4704
  567TIP3   OH223115   1.095   2.568  11.550 -0.1523  0.2598  0.2758
  567TIP3    H123116   1.009   2.553  11.588 -0.3659  1.6261  0.4092
  567TIP3    H223117   1.139   2.624  11.615  1.2026 -1.1976  0.6670
  568TIP3   OH223118   2.976   4.643   4.993  0.2641  0.2155 -0.8009
  568TIP3    H123119   2.930   4.712   4.946  0.8638  1.4129  0.2996
  568TIP3    H223120   2.998   4.578   4.926  0.5694  1.5646 -2.0615
  569TIP3   OH223121   0.352   1.076  10.887  0.4121  0.1479  0.3569
  569TIP3    H123122   0.271   1.026  10.898  0.6196 -0.5319 -0.9444
  569TIP3    H223123   0.327   1.167  10.904 -0.5061 -0.1078  0.4502
  570TIP3   OH223124   5.726   2.187  15.800  0.1467 -0.1395  0.4489
  570TIP3    H123125   5.806   2.186  15.748 -0.2691 -0.4514 -0.1959
  570TIP3    H223126   5.656   2.204  15.736 -0.3588 -0.4342  0.9161
  571TIP3   OH223127   6.129   4.162   2.346 -0.2030 -0.2511  0.4953
  571TIP3    H123128   6.152   4.086   2.399  0.0856  0.1592  0.9730
  571TIP3    H223129   6.164   4.237   2.395  0.4306  0.1097 -0.4683
  572TIP3   OH223130   0.093   2.199   0.764  0.3158  0.6886  0.2123
  572TIP3    H123131   0.102   2.243   0.680 -1.5466  0.2274 -0.2673
  572TIP3    H223132  -0.001   2.189   0.776  0.5652  0.3431  2.1539
  573TIP3   OH223133   4.561   1.017   0.721  0.9981  0.3014 -0.1212
  573TIP3    H123134   4.511   1.099   0.725  0.6297  0.1198 -0.9044
  573TIP3    H223135   4.505   0.953   0.766 -0.0436 -0.1685 -1.9712
  574TIP3   OH223136   1.625   6.642  14.891 -0.1484  0.2887  0.3084
  574TIP3    H123137   1.530   6.637  14.880 -0.0460  0.4282 -0.7184
  574TIP3    H223138   1.657   6.683  14.810  0.9071 -1.0228  0.0114
  575TIP3   OH223139   1.778   6.136   5.448  0.0527  0.2636  0.4004
  575TIP3    H123140   1.762   6.231   5.451 -1.4266  0.3406 -3.7668
  575TIP3    H223141   1.865   6.127   5.409 -0.6628 -0.0324 -1.1762
  576TIP3   OH223142   1.730   4.036  15.070 -0.3985 -0.0454  0.2372
  576TIP3    H123143   1.737   4.129  15.050  0.3143 -0.1035  0.1816
  576TIP3    H223144   1.746   3.992  14.986  0.7057 -0.2444  0.5312
  577TIP3   OH223145   5.449   4.032   5.428 -1.1198 -0.5586  0.2093
  577TIP3    H123146   5.486   4.060   5.511 -2.4009  2.5617 -0.1412
  577TIP3    H223147   5.358   4.010   5.448 -0.9541 -1.5866 -0.0910
  578TIP3   OH223148   0.806   0.205   6.283 -0.7531 -0.0640  0.2769
  578TIP3    H123149   0.795   0.265   6.209 -2.1651  0.6971  1.0503
  578TIP3    H223150   0.738   0.139   6.270 -1.4172  0.4166  1.1788
  579TIP3   OH223151   3.583   6.570  13.201 -0.1963  0.3697 -0.5293
  579TIP3    H123152   3.648   6.639  13.210 -0.1658  0.1300  1.7114
  579TIP3    H223153   3.622   6.508  13.139  0.9680  1.0263 -0.4865
  580TIP3   OH223154   6.675   1.329   3.233  0.3065  0.0357  0.3507
  580TIP3    H123155   6.581   1.343   3.225 -0.1440 -1.3774  2.4665
  580TIP3    H223156   6.702   1.385   3.306  0.8022 -0.7058  0.7514
  581TIP3   OH223157   2.228   4.872  11.529 -0.0462  0.4415  0.0553
  581TIP3    H123158   2.312   4.883  11.485  0.4101  0.3186  0.8777
  581TIP3    H223159   2.165   4.914  11.470  0.4227 -0.4081 -1.0915
  582TIP3   OH223160   1.555   3.664   3.596 -0.1303  0.1226 -0.3331
  582TIP3    H123161   1.580   3.584   3.642  0.9448  0.7142  0.1332
  582TIP3    H223162   1.505   3.634   3.521 -0.7035 -0.9317  0.4458
  583TIP3   OH223163   4.702   5.291  12.546  0.3807 -0.1943  0.4397
  583TIP3    H123164   4.684   5.356  12.478  2.8986  0.6175  0.4597
  583TIP3    H223165   4.734   5.215  12.499 -0.2940 -0.5724  0.5778
  584TIP3   OH223166   2.313   4.454   1.346 -0.2885  0.1898  0.0875
  584TIP3    H123167   2.301   4.380   1.288 -0.0790  1.2056 -1.2931
  584TIP3    H223168   2.231   4.504   1.339 -0.7147 -0.2332  1.5397
  585TIP3   OH223169   5.033   2.357   4.136 -0.1631 -0.0240 -0.3043
  585TIP3    H123170   5.118   2.336   4.098  0.2960 -1.3951  1.3416
  585TIP3    H223171   5.027   2.300   4.213 -1.0015  2.6116  1.7045
  586TIP3   OH223172   0.821   0.063  14.728 -0.5262  0.2563 -0.1665
  586TIP3    H123173   0.742   0.072  14.675 -0.6438 -1.0603 -0.2431
  586TIP3    H223174   0.865   0.148  14.721 -1.7637  0.8913 -0.3892
  587TIP3   OH223175   6.302   2.025   4.070  0.0007 -0.4675  0.8112
  587TIP3    H123176   6.258   1.953   4.114 -0.8245 -0.3522  0.1948
  587TIP3    H223177   6.365   2.058   4.134 -0.8459 -0.5963  1.7238
  588TIP3   OH223178   2.726   1.569  15.802  0.8557 -0.3494 -0.0793
  588TIP3    H123179   2.714   1.639  15.866 -0.4351  0.1329 -0.8044
  588TIP3    H223180   2.669   1.593  15.729  2.9739 -0.3925 -1.8550
  589TIP3   OH223181   4.071   4.111   0.445 -0.0266  0.1804  0.2212
  589TIP3    H123182   3.979   4.087   0.441  0.6419 -2.5081 -2.6764
  589TIP3    H223183   4.076   4.194   0.396 -0.7455 -0.4458 -0.9600
  590TIP3   OH223184   6.169   4.246   4.527 -0.2171  0.3147  0.0225
  590TIP3    H123185   6.245   4.302   4.539 -0.8634  1.1297  0.3888
  590TIP3    H223186   6.104   4.303   4.486 -0.0773 -0.8103 -1.8699
  591TIP3   OH223187   2.286   4.330  15.451 -0.3063  0.2066 -0.0689
  591TIP3    H123188   2.270   4.270  15.524 -0.2858 -1.0990 -1.0895
  591TIP3    H223189   2.346   4.396  15.486 -3.5841  2.1968  2.3688
  592TIP3   OH223190   5.607   1.067  15.912 -0.4230  1.1135  0.6556
  592TIP3    H123191   5.683   1.051  15.857 -0.6788 -0.1989  0.6683
  592TIP3    H223192   5.533   1.040  15.860 -0.6268 -0.7375  1.8278
  593TIP3   OH223193   1.582   4.571   1.655  0.1472 -0.1583  0.1568
  593TIP3    H123194   1.592   4.664   1.673 -2.9757  0.5925 -1.4184
  593TIP3    H223195   1.580   4.564   1.560 -1.5494 -1.5584  0.2511
  594TIP3   OH223196   3.241   5.076   0.978 -0.7653 -0.0208  0.0181
  594TIP3    H123197   3.321   5.107   1.021 -1.3811  1.4405  0.1729
  594TIP3    H223198   3.271   5.028   0.902  0.2948 -0.7440  0.8734
  595TIP3   OH223199   1.537   2.526   0.307  0.0904 -0.1483  0.5897
  595TIP3    H123200   1.571   2.605   0.264 -0.1622 -0.5551 -0.3997
  595TIP3    H223201   1.446   2.548   0.330  0.7198  0.6394  2.4472
  596TIP3   OH223202   3.920   2.293  12.803  0.6416 -0.0152  0.7462
  596TIP3    H123203   3.866   2.367  12.776  1.6261  0.9006  1.2198
  596TIP3    H223204   3.966   2.323  12.881 -0.6383 -1.9207  2.3417
  597TIP3   OH223205   4.251   1.932  11.652 -0.0225  0.2395  0.5871
  597TIP3    H123206   4.229   1.950  11.561 -2.2357  1.9808  1.3690
  597TIP3    H223207   4.197   1.992  11.702  0.8034 -0.9587  3.0957
  598TIP3   OH223208   4.169   6.702   5.282  0.1494 -0.4935 -0.0601
  598TIP3    H123209   4.143   6.663   5.365  0.8883 -0.8558 -0.0003
  598TIP3    H223210   4.264   6.697   5.281  0.2153  0.5675 -0.4112
  599TIP3   OH223211   4.321   1.280  12.226 -0.4065  0.2084  0.3708
  599TIP3    H123212   4.344   1.191  12.255 -0.8683 -0.1132 -0.2166
  599TIP3    H223213   4.298   1.326  12.307 -0.7985 -0.4058  0.6196
  600TIP3   OH223214   5.282   5.630   3.235  0.0624 -0.6159  0.5285
  600TIP3    H123215   5.235   5.586   3.306  0.1669 -1.3398  0.1584
  600TIP3    H223216   5.214   5.680   3.189 -0.1143 -0.6359  0.7629
  601TIP3   OH223217   2.786   2.825  14.314  0.2289 -0.0706  0.4137
  601TIP3    H123218   2.848   2.881  14.268  0.5700  0.0269  0.9906
  601TIP3    H223219   2.768   2.871  14.396 -0.3314 -0.2742  0.4094
  602TIP3   OH223220   2.288   5.066   5.618 -0.0841  0.1393 -0.1275
  602TIP3    H123221   2.288   5.158   5.643  0.2269 -0.4174  2.0768
  602TIP3    H223222   2.197   5.049   5.590 -0.1820  1.0436 -0.3931
  603TIP3   OH223223   3.564   1.008  13.487 -0.6450 -0.4249 -0.0835
  603TIP3    H123224   3.537   0.918  13.505  1.4216 -0.9238  0.9007
  603TIP3    H223225   3.500   1.063  13.531 -1.5606 -1.4347 -0.1238
  604TIP3   OH223226   0.650   0.816   2.871  0.6127 -0.3230 -0.0107
  604TIP3    H123227   0.601   0.750   2.821 -0.0457 -1.1728  1.6795
  604TIP3    H223228   0.739   0.782   2.875  0.6913 -0.2136 -0.6276
  605TIP3   OH223229   0.094   0.212   1.149  0.3628 -0.1269  0.3392
  605TIP3    H123230   0.081   0.202   1.243  0.1684  0.5829  0.3979
  605TIP3    H223231   0.089   0.124   1.113 -0.5372 -0.3034  0.8742
  606TIP3   OH223232   1.730   5.442   3.411  0.2058 -0.0125 -0.0640
  606TIP3    H123233   1.671   5.511   3.439 -0.8940 -1.4411  1.3769
  606TIP3    H223234   1.802   5.444   3.475  0.4424  0.1547 -0.3375
  607TIP3   OH223235   2.706   4.088  17.242 -0.4466 -0.2887 -0.7262
  607TIP3    H123236   2.721   4.180  17.262  0.0215 -0.4033 -0.5387
  607TIP3    H223237   2.633   4.088  17.181 -0.8720  0.1630 -0.2183
  608TIP3   OH223238   2.557   6.326   4.030  0.1154  0.3743 -0.1160
  608TIP3    H123239   2.646   6.328   3.995 -0.0295  1.9811 -0.4450
  608TIP3    H223240   2.569   6.325   4.125  0.4889  1.1294 -0.1516
  609TIP3   OH223241   6.295   5.587   3.311  0.0973 -0.2578 -0.0337
  609TIP3    H123242   6.365   5.640   3.350 -0.3614 -0.1456  0.6538
  609TIP3    H223243   6.310   5.594   3.216  1.7624 -1.2504  0.1011
  610TIP3   OH223244   2.546   0.623   5.492 -0.1868 -0.4387 -0.4483
  610TIP3    H123245   2.498   0.540   5.501 -0.8001  0.0313  0.9998
  610TIP3    H223246   2.496   0.685   5.545  1.8334  0.1573  0.8753
  611TIP3   OH223247   3.148   5.298  12.973  0.4370  0.2040 -0.5843
  611TIP3    H123248   3.073   5.249  12.938  0.5879  1.0961 -2.3053
  611TIP3    H223249   3.164   5.366  12.907 -0.7038  3.6081  2.3499
  612TIP3   OH223250   3.619   4.048   4.286  0.4397  0.0549  0.5801
  612TIP3    H123251   3.543   3.996   4.260  0.6404 -0.1543  0.4025
  612TIP3    H223252   3.604   4.069   4.378 -0.4313  1.0742  0.2165
  613TIP3   OH223253   4.647   4.909   1.470  0.0176 -0.1452 -0.6676
  613TIP3    H123254   4.578   4.939   1.529 -0.1632  0.6190 -1.2552
  613TIP3    H223255   4.724   4.898   1.526 -0.8040 -1.9547  0.1762
  614TIP3   OH223256   1.781   0.687   5.972  0.2654  0.0460  0.0634
  614TIP3    H123257   1.809   0.743   5.900  2.4879 -2.2793 -1.0382
  614TIP3    H223258   1.827   0.721   6.048  0.9328  0.2400 -0.4165
  615TIP3   OH223259   5.702   2.420  14.516  0.5675  0.6013 -0.0319
  615TIP3    H123260   5.663   2.333  14.518  0.4010  0.5233 -2.6841
  615TIP3    H223261   5.672   2.462  14.597 -2.3400 -0.5860 -0.3611
  616TIP3   OH223262   0.695   0.382  13.956  0.2652 -0.4296 -0.3610
  616TIP3    H123263   0.761   0.406  13.891  0.3842  2.3332  0.6487
  616TIP3    H223264   0.745   0.365  14.036  0.0004 -2.2800 -0.5434
  617TIP3   OH223265   6.008   0.893  14.056  0.0864  0.5717 -0.4042
  617TIP3    H123266   5.969   0.813  14.021 -1.5400  0.2276  1.9561
  617TIP3    H223267   5.967   0.963  14.006 -1.5084  0.0649  0.1391
  618TIP3   OH223268   3.762   0.647  12.803 -0.0789  0.5074 -0.8006
  618TIP3    H123269   3.761   0.685  12.891 -0.1497  0.9121 -0.9772
  618TIP3    H223270   3.706   0.704  12.751  1.4316  1.3804 -1.5709
  619TIP3   OH223271   5.523   3.677  12.866  0.0288  0.3101  0.3336
  619TIP3    H123272   5.588   3.743  12.844 -1.3088  2.1370  1.6378
  619TIP3    H223273   5.513   3.626  12.785  1.9221  0.9438 -0.3525
  620TIP3   OH223274   3.762   3.879  13.623  0.2891 -0.4981 -0.3583
  620TIP3    H123275   3.789   3.902  13.534  0.8992 -0.5451 -0.1951
  620TIP3    H223276   3.674   3.915  13.632  0.4951  0.1137 -0.7421
  621TIP3   OH223277   4.402   4.106   1.652  0.5611 -0.4009 -0.0572
  621TIP3    H123278   4.386   4.185   1.600 -1.6444 -1.5381 -1.2674
  621TIP3    H223279   4.470   4.060   1.604  0.8955  0.1243 -0.0948
  622TIP3   OH223280   3.318   4.611  15.515  0.0503 -0.8597  0.5497
  622TIP3    H123281   3.228   4.639  15.500 -0.1170 -0.8425  1.5751
  622TIP3    H223282   3.310   4.529  15.564  0.5932 -0.4487  1.3446
  623TIP3   OH223283   2.608   5.740   4.167 -0.4001 -0.2797 -0.0819
  623TIP3    H123284   2.520   5.775   4.184 -0.1730 -0.2111  1.0415
  623TIP3    H223285   2.618   5.670   4.232  0.1443 -0.6924 -0.6035
  624TIP3   OH223286   3.457   6.204  14.906  0.5560 -0.0723  0.5474
  624TIP3    H123287   3.518   6.176  14.838  1.4665  0.9510  0.9175
  624TIP3    H223288   3.444   6.297  14.890 -0.3421 -0.1147  0.9329
  625TIP3   OH223289   3.101   4.071  13.756  0.2275 -0.0451 -0.9405
  625TIP3    H123290   3.107   4.164  13.779 -3.1769  0.2450 -0.7475
  625TIP3    H223291   3.124   4.025  13.837 -0.3081  0.6893 -0.3613
  626TIP3   OH223292   4.726   2.325   2.907 -0.3943 -0.4709  0.2667
  626TIP3    H123293   4.789   2.372   2.851 -1.2474 -0.5070 -0.7509
  626TIP3    H223294   4.646   2.320   2.854 -0.4530 -2.7589  0.4727
  627TIP3   OH223295   5.009   2.071   5.138 -0.0082  0.2921  0.0705
  627TIP3    H123296   5.065   2.109   5.070  0.1561 -2.6963 -1.6563
  627TIP3    H223297   4.921   2.073   5.100  0.0084 -0.9329 -0.0744
  628TIP3   OH223298   0.979   4.101  12.484 -0.1284  0.1775 -0.2829
  628TIP3    H123299   1.073   4.082  12.484  0.5479  3.0179 -0.6124
  628TIP3    H223300   0.973   4.191  12.516 -2.9148 -0.4469  1.2377
  629TIP3   OH223301   1.574   0.537   5.409 -0.1995  0.0441  0.5954
  629TIP3    H123302   1.559   0.456   5.458 -0.0313  1.2296  2.7217
  629TIP3    H223303   1.668   0.538   5.393 -0.4111 -0.9497 -0.9523
  630TIP3   OH223304   4.890   4.947   1.594 -0.5768 -0.4170 -0.3545
  630TIP3    H123305   4.876   5.010   1.664 -0.0858  0.4782 -1.0454
  630TIP3    H223306   4.956   4.988   1.537 -0.4611 -1.4225 -0.9686
  631TIP3   OH223307   2.987   5.292  16.835 -0.6068 -0.3591  0.1500
  631TIP3    H123308   2.920   5.341  16.882 -0.7745  0.2425 -0.6845
  631TIP3    H223309   3.055   5.275  16.900 -0.1169  1.8081  0.2839
  632TIP3   OH223310   4.288   2.389   5.832 -0.3990 -0.5977  0.3730
  632TIP3    H123311   4.252   2.301   5.825  2.2318 -1.7745  0.4548
  632TIP3    H223312   4.374   2.377   5.873 -0.4103  2.1515  1.4341
  633TIP3   OH223313   3.263   5.347   4.867  0.4235  0.1099  0.5297
  633TIP3    H123314   3.301   5.361   4.954 -1.5859 -0.1786  1.4982
  633TIP3    H223315   3.333   5.372   4.807  1.1237  2.5096  2.1889
  634TIP3   OH223316   3.571   5.243  15.031 -0.4137  0.4130  0.2704
  634TIP3    H123317   3.649   5.190  15.015  0.0902  1.1276  0.2946
  634TIP3    H223318   3.589   5.287  15.114 -1.1308  0.0824  0.6119
  635TIP3   OH223319   1.978   0.792  13.359 -0.2352 -0.3848  0.3797
  635TIP3    H123320   1.954   0.841  13.280  1.9337  1.3020  0.6485
  635TIP3    H223321   1.900   0.797  13.415 -1.0095  0.4097 -0.7276
  636TIP3   OH223322   1.972   2.707  13.937 -0.1888 -0.1831 -0.2366
  636TIP3    H123323   1.899   2.646  13.927  0.4900 -0.8449 -1.4886
  636TIP3    H223324   1.948   2.782  13.883  0.4724 -0.8455 -1.5106
  637TIP3   OH223325   3.087   1.264   4.402  0.0447 -0.5575 -0.7425
  637TIP3    H123326   3.144   1.213   4.461 -0.0416 -0.1629 -0.3113
  637TIP3    H223327   3.089   1.352   4.439 -1.8020 -0.7897 -0.0091
  638TIP3   OH223328   2.309   6.696   6.435 -1.0335 -0.0968 -0.5051
  638TIP3    H123329   2.299   6.761   6.366 -0.7909  1.8315  1.1804
  638TIP3    H223330   2.221   6.684   6.470 -0.7215  1.4696  0.9644
  639TIP3   OH223331   5.925   4.618  11.693 -0.3684  0.0441  0.0515
  639TIP3    H123332   5.871   4.651  11.621 -0.0457  2.0352  0.6733
  639TIP3    H223333   5.894   4.528  11.707 -2.7065  0.7097 -0.4019
  640TIP3   OH223334   0.645   5.886  13.914 -0.2086  0.4273  1.0221
  640TIP3    H123335   0.726   5.903  13.963  0.7843 -1.3003  0.0684
  640TIP3    H223336   0.593   5.832  13.974  1.0230 -1.7226  0.2795
  641TIP3   OH223337   1.872   5.632  15.244 -0.0642  0.5822 -0.2485
  641TIP3    H123338   1.951   5.686  15.245  0.3044  0.0884 -1.4101
  641TIP3    H223339   1.897   5.553  15.197 -1.1754  0.2802 -0.3672
  642TIP3   OH223340   3.952   3.326   3.015 -1.1075  0.0545  0.3387
  642TIP3    H123341   3.922   3.416   3.010 -0.7383  0.3218  2.1307
  642TIP3    H223342   3.980   3.315   3.106  1.6457 -0.9623 -0.5165
  643TIP3   OH223343   0.350   6.285   1.528  0.1527  0.1978  0.1523
  643TIP3    H123344   0.442   6.310   1.518  0.6492 -0.7694  1.8703
  643TIP3    H223345   0.314   6.289   1.440  1.7172  1.0651 -0.4814
  644TIP3   OH223346   0.905   2.156  12.236 -0.3438  0.4298 -0.5862
  644TIP3    H123347   0.907   2.250  12.220 -0.0577  0.4197 -0.6177
  644TIP3    H223348   0.880   2.117  12.152 -1.5826  0.5387 -0.2991
  645TIP3   OH223349   4.233   0.496   3.593  0.4726 -0.4239 -0.2607
  645TIP3    H123350   4.209   0.418   3.542  0.4813 -0.4580 -0.2131
  645TIP3    H223351   4.158   0.509   3.652  0.0316  0.1878 -0.9521
  646TIP3   OH223352   1.529   2.131  13.231  0.0070  0.6088  0.3019
  646TIP3    H123353   1.623   2.138  13.246 -0.1010  1.2433  0.7117
  646TIP3    H223354   1.511   2.037  13.233  0.6319  0.4833  0.2006
  647TIP3   OH223355   5.438   2.057  13.983 -0.2351 -0.1714 -0.3630
  647TIP3    H123356   5.384   2.131  14.010 -0.9672 -1.0003  0.5347
  647TIP3    H223357   5.417   1.988  14.047  3.2063  0.0253  1.2088
  648TIP3   OH223358   5.398   3.744   4.050 -0.7019 -0.8821  0.0628
  648TIP3    H123359   5.426   3.689   4.124 -1.4849 -2.5273 -0.7922
  648TIP3    H223360   5.474   3.799   4.031  0.0502 -1.5026  1.1209
  649TIP3   OH223361   6.568   4.836   1.186 -0.0093  0.3347  0.9622
  649TIP3    H123362   6.611   4.752   1.205 -2.6666 -1.0328  1.3866
  649TIP3    H223363   6.510   4.851   1.261 -0.3584  2.0446  0.3978
  650TIP3   OH223364   4.765   6.503  13.224 -0.6189 -0.0956  0.4586
  650TIP3    H123365   4.859   6.511  13.240 -0.2254 -2.1527 -0.5225
  650TIP3    H223366   4.753   6.413  13.195 -2.7062  0.5018 -0.7410
  651TIP3   OH223367   4.800   0.409   3.655 -0.1553 -0.0877  0.3910
  651TIP3    H123368   4.740   0.446   3.720  0.0316 -1.4102  1.3683
  651TIP3    H223369   4.856   0.349   3.706 -0.2561 -1.4663 -1.0451
  652TIP3   OH223370   2.809   4.979   2.027 -0.1845  0.1555  0.1956
  652TIP3    H123371   2.765   4.975   2.112 -0.1099  0.3049  0.2429
  652TIP3    H223372   2.756   4.924   1.969 -1.2114  1.4045 -0.0938
  653TIP3   OH223373   3.657   0.698  14.860  0.2111 -0.3012  0.3040
  653TIP3    H123374   3.717   0.772  14.862  0.0711 -0.2011  0.8494
  653TIP3    H223375   3.701   0.633  14.806 -0.0623  0.5208 -0.9572
  654TIP3   OH223376   4.021   1.669   2.859 -0.0258  0.8822  0.5284
  654TIP3    H123377   4.031   1.576   2.837  0.1781  0.6956  1.3729
  654TIP3    H223378   4.087   1.713   2.806 -0.4217  0.6050 -0.2154
  655TIP3   OH223379   1.409   6.628  14.395 -0.2434 -0.0659 -0.1269
  655TIP3    H123380   1.504   6.630  14.403 -0.3473  1.2393  1.3523
  655TIP3    H223381   1.388   6.701  14.337 -0.3859  0.5709  0.6943
  656TIP3   OH223382   1.312   0.470  16.298 -0.4413 -0.7275  0.4512
  656TIP3    H123383   1.345   0.421  16.374 -2.5445 -0.5936  1.5138
  656TIP3    H223384   1.307   0.561  16.328 -1.0335 -0.6320  0.0783
  657TIP3   OH223385   1.204   6.528   0.544 -0.6648 -0.3443 -0.0925
  657TIP3    H123386   1.232   6.524   0.636 -0.7554 -1.5130 -0.0937
  657TIP3    H223387   1.194   6.621   0.526 -0.9604 -0.1050  1.1815
  658TIP3   OH223388   5.142   5.886  16.163 -0.0216  0.1617 -0.2961
  658TIP3    H123389   5.113   5.795  16.164 -1.8695  0.6989  1.4313
  658TIP3    H223390   5.147   5.911  16.255  0.8861  1.6848 -0.7209
  659TIP3   OH223391   5.745   5.305  14.186  0.0942 -1.0436  0.4356
  659TIP3    H123392   5.710   5.300  14.274 -1.9322  0.0096 -0.2357
  659TIP3    H223393   5.732   5.396  14.160  3.4513 -0.5212  0.0732
  660TIP3   OH223394   2.512   0.881  11.005 -0.4002 -0.1107 -0.5141
  660TIP3    H123395   2.605   0.902  11.015 -0.1619 -1.8673  1.8271
  660TIP3    H223396   2.478   0.952  10.950  2.1385  1.0142 -0.8214
  661TIP3   OH223397   0.005   0.767   4.374 -0.4048  0.0333  0.4481
  661TIP3    H123398   0.007   0.707   4.300 -1.8512 -0.1122  0.4910
  661TIP3    H223399  -0.016   0.853   4.336 -1.3292 -0.0744  0.6706
  662TIP3   OH223400   3.479   3.905   0.273 -0.5746 -0.3265 -0.3095
  662TIP3    H123401   3.478   3.810   0.259 -1.4455 -0.5111  0.8059
  662TIP3    H223402   3.386   3.929   0.276 -0.4216  0.1867  1.5971
  663TIP3   OH223403   3.235   5.423  14.825  0.0128  0.5985  0.0866
  663TIP3    H123404   3.152   5.386  14.795 -0.0363  0.3480  0.5153
  663TIP3    H223405   3.209   5.490  14.889  0.1513 -0.0598  0.8568
  664TIP3   OH223406   0.631   6.118   3.758 -0.7949 -0.1559 -0.5457
  664TIP3    H123407   0.628   6.040   3.702 -0.9598  0.3431 -1.2517
  664TIP3    H223408   0.691   6.095   3.829  0.0430 -0.5285 -1.3568
  665TIP3   OH223409   0.587   0.409   2.670 -0.2907 -0.2353  0.5303
  665TIP3    H123410   0.648   0.477   2.698  1.4490 -2.0934  1.5305
  665TIP3    H223411   0.564   0.433   2.580 -1.4947  2.7917  1.5489
  666TIP3   OH223412   0.630   6.001  12.698 -0.0427 -0.0189 -0.0954
  666TIP3    H123413   0.565   5.936  12.670  0.3101 -0.1436 -0.6275
  666TIP3    H223414   0.673   6.029  12.618 -0.8043  1.5557  0.0032
  667TIP3   OH223415   4.915   2.562  15.122  0.0591 -0.0149 -0.0098
  667TIP3    H123416   4.973   2.638  15.129  0.4796 -0.3708  0.4823
  667TIP3    H223417   4.971   2.487  15.145 -0.5047 -0.4036  0.1201
  668TIP3   OH223418   1.111   0.514  17.041 -0.0360 -0.0903 -0.3784
  668TIP3    H123419   1.144   0.576  16.976  0.7027  1.0010  0.9928
  668TIP3    H223420   1.173   0.441  17.039  0.9210  0.6888  0.2384
  669TIP3   OH223421   5.542   1.640  15.724  0.2762  0.1345  0.2809
  669TIP3    H123422   5.466   1.582  15.723  0.2977  0.0117 -2.6404
  669TIP3    H223423   5.505   1.728  15.730  0.2269  0.0364  4.1505
  670TIP3   OH223424   4.161   6.048  16.381 -0.8424  0.0336  0.5727
  670TIP3    H123425   4.222   5.993  16.331 -1.7323 -2.4429  2.0754
  670TIP3    H223426   4.138   6.119  16.320  0.1944 -1.3393 -1.5317
  671TIP3   OH223427   1.565   6.431   3.220  0.3765 -0.4633  0.0431
  671TIP3    H123428   1.604   6.516   3.200 -0.0262 -0.4101 -0.5481
  671TIP3    H223429   1.509   6.448   3.296  0.1502 -0.1492 -0.1873
  672TIP3   OH223430   5.830   6.043   2.429 -0.3196  0.5874 -0.1743
  672TIP3    H123431   5.832   6.020   2.336 -0.8013 -0.0206 -0.0435
  672TIP3    H223432   5.779   5.973   2.469  1.3862 -0.1279  0.8334
  673TIP3   OH223433   4.301   4.948   3.429 -0.2090  0.0186  0.3742
  673TIP3    H123434   4.212   4.982   3.420  0.2958  1.0701 -0.8936
  673TIP3    H223435   4.296   4.858   3.397 -1.1611 -0.5660  2.0037
  674TIP3   OH223436   1.588   2.042  13.735 -0.3496  0.0657  0.5930
  674TIP3    H123437   1.654   1.973  13.732  0.2664  0.6764 -0.5709
  674TIP3    H223438   1.519   2.011  13.677 -0.4446  0.0548  0.7128
  675TIP3   OH223439   4.917   1.851   3.971 -0.8367  0.3648  0.1508
  675TIP3    H123440   4.956   1.790   4.035 -1.6981  0.8384  1.1572
  675TIP3    H223441   4.822   1.843   3.986 -1.1319 -0.2812 -1.7951
  676TIP3   OH223442   5.781   0.316  12.396 -0.2612 -0.1683  0.5438
  676TIP3    H123443   5.803   0.368  12.318 -0.3991 -0.0233  0.6037
  676TIP3    H223444   5.694   0.282  12.378  0.3996 -1.6092 -0.1584
  677TIP3   OH223445   2.852   1.083  11.960  0.6690  0.4264  0.2827
  677TIP3    H123446   2.934   1.048  11.924 -0.3200  1.4716 -3.4244
  677TIP3    H223447   2.785   1.023  11.929 -0.3000  1.5328  0.1637
  678TIP3   OH223448   0.537   0.922   2.449 -0.3980  0.0494 -0.2275
  678TIP3    H123449   0.594   0.976   2.503 -0.8616  1.3007 -0.9506
  678TIP3    H223450   0.464   0.900   2.506 -0.6325  0.9336 -0.1741
  679TIP3   OH223451   2.918   2.602  14.420 -0.2239 -0.2904 -0.9396
  679TIP3    H123452   2.877   2.679  14.380  1.2188  0.0157 -1.8986
  679TIP3    H223453   2.984   2.638  14.479 -1.3218 -0.7778  0.6358
  680TIP3   OH223454   2.193   4.379   4.003  0.0524 -0.3054  0.2451
  680TIP3    H123455   2.103   4.403   3.985 -0.5975 -2.3390  0.5894
  680TIP3    H223456   2.245   4.430   3.940 -1.4368 -0.2572 -0.9837
  681TIP3   OH223457   5.028   3.514  15.256  0.2307  0.5925 -0.1815
  681TIP3    H123458   5.086   3.453  15.211 -0.5380 -1.1567  1.0464
  681TIP3    H223459   5.013   3.584  15.193  0.1730 -1.0960 -2.1731
  682TIP3   OH223460   5.936   2.075   0.939 -0.2069  0.3128 -0.3958
  682TIP3    H123461   5.968   2.150   0.888 -1.1502  0.5736 -0.6366
  682TIP3    H223462   5.911   2.010   0.874  0.8920 -0.3552 -0.1784
  683TIP3   OH223463   0.678   3.870   4.651 -0.4884 -0.5781 -0.3336
  683TIP3    H123464   0.684   3.810   4.577  0.3237  0.2891 -0.9995
  683TIP3    H223465   0.675   3.957   4.611  1.8358  0.0310  0.6537
  684TIP3   OH223466   0.145   4.036   3.804 -0.2824 -0.1576  0.4197
  684TIP3    H123467   0.087   3.972   3.846 -1.4548 -0.5076 -1.5851
  684TIP3    H223468   0.097   4.063   3.726  1.2650  1.3635 -0.0472
  685TIP3   OH223469   0.400   4.781   2.268  0.1594 -0.2622 -0.8989
  685TIP3    H123470   0.444   4.765   2.185  1.3070 -0.3167 -0.2982
  685TIP3    H223471   0.416   4.702   2.319  1.9895  0.8914  0.4284
  686TIP3   OH223472   3.156   6.106   3.864 -0.4346  0.4901  0.3658
  686TIP3    H123473   3.121   6.192   3.842 -2.6266 -0.5370 -0.4856
  686TIP3    H223474   3.233   6.096   3.807 -0.3027  1.7563  0.2944
  687TIP3   OH223475   0.184   5.876  11.554 -0.1190 -0.1643  0.0085
  687TIP3    H123476   0.182   5.861  11.648 -1.8941  0.1781  0.0600
  687TIP3    H223477   0.098   5.848  11.523 -0.4391  1.8649 -1.1320
  688TIP3   OH223478   5.491   2.391   3.681  0.1300 -0.3222 -0.3845
  688TIP3    H123479   5.496   2.304   3.642  1.4590 -0.8597  0.8822
  688TIP3    H223480   5.398   2.412   3.681 -0.3893 -2.3774  0.5693
  689TIP3   OH223481   2.819   0.880  11.475 -0.3431 -0.0809  0.0144
  689TIP3    H123482   2.730   0.867  11.507  0.0502  1.2479  1.8042
  689TIP3    H223483   2.854   0.951  11.529  1.8129 -0.5584 -0.6462
  690TIP3   OH223484   6.411   2.798   3.099  0.0344  0.2289 -0.0103
  690TIP3    H123485   6.472   2.861   3.137  1.0269  0.5377 -2.0115
  690TIP3    H223486   6.466   2.729   3.064 -0.8914 -0.3863 -0.2972
  691TIP3   OH223487   5.657   2.815   3.522 -0.7633  0.0544 -1.0804
  691TIP3    H123488   5.735   2.796   3.471 -2.1032 -1.4664 -2.7150
  691TIP3    H223489   5.661   2.909   3.541  0.8329  0.2243 -2.1444
  692TIP3   OH223490   6.559   4.027  12.320  0.0542 -0.7823  0.1125
  692TIP3    H123491   6.612   3.947  12.320  2.4197  0.6495  1.1450
  692TIP3    H223492   6.624   4.098  12.322 -1.9351  1.1301  0.6942
  693TIP3   OH223493   0.567   0.530  15.932 -0.0266 -0.1595  0.2250
  693TIP3    H123494   0.486   0.490  15.963 -0.2410  1.5160  2.0233
  693TIP3    H223495   0.636   0.479  15.975 -0.1846 -0.3891  0.2111
  694TIP3   OH223496   4.137   0.335   0.220  0.3713 -0.4417  0.5197
  694TIP3    H123497   4.190   0.257   0.204 -1.9438 -1.6628 -2.2350
  694TIP3    H223498   4.076   0.308   0.290  1.9201  0.2844  2.2412
  695TIP3   OH223499   2.462   6.756  17.060  0.4362  0.4195  0.1780
  695TIP3    H123500   2.400   6.800  17.119  0.4326  0.3054  0.2601
  695TIP3    H223501   2.486   6.676  17.106 -0.9302 -0.5691 -0.7365
  696TIP3   OH223502   6.432   5.195  15.869  0.0777  0.0773 -0.1971
  696TIP3    H123503   6.464   5.108  15.846  0.2957  0.0718  0.1185
  696TIP3    H223504   6.450   5.203  15.963 -0.8104  0.0921 -0.0187
  697TIP3   OH223505   5.713   6.047  13.085  0.0629  0.2293 -0.2101
  697TIP3    H123506   5.714   5.994  13.165  0.6336  0.3031 -0.1630
  697TIP3    H223507   5.731   5.985  13.015  1.8119  0.5104 -0.0485
  698TIP3   OH223508   3.350   2.341   6.400 -0.7749 -0.5891 -0.8940
  698TIP3    H123509   3.254   2.347   6.395 -1.0645 -1.8479  1.7348
  698TIP3    H223510   3.381   2.407   6.338 -3.3426  0.2301 -1.4207
  699TIP3   OH223511   1.613   3.411   3.742  0.1731  0.2567  0.1527
  699TIP3    H123512   1.704   3.388   3.725  0.4267  1.5214 -0.3122
  699TIP3    H223513   1.608   3.421   3.837  0.9073  1.6328  0.0694
  700TIP3   OH223514   1.070   6.266   1.385 -0.2738 -0.3149  0.3296
  700TIP3    H123515   1.109   6.224   1.309  0.1604  0.5775  0.0428
  700TIP3    H223516   0.984   6.225   1.394 -0.3478 -0.3987 -0.6573
  701TIP3   OH223517   5.659   2.728  12.757  0.2478 -0.8355 -0.4219
  701TIP3    H123518   5.754   2.722  12.764  0.2915  1.2172  1.5576
  701TIP3    H223519   5.644   2.782  12.679  0.7045 -0.7502 -0.4518
  702TIP3   OH223520   1.987   5.464   2.396  0.3714  0.1638 -0.4713
  702TIP3    H123521   1.897   5.496   2.402  0.3698  0.4866 -1.8930
  702TIP3    H223522   1.978   5.370   2.379  0.3224  0.1025 -0.1227
  703TIP3   OH223523   1.239   2.995   3.832  0.3755 -0.1137  0.4987
  703TIP3    H123524   1.222   2.947   3.751 -1.6393 -1.0712  1.4053
  703TIP3    H223525   1.298   3.066   3.806 -0.0855 -0.4730 -1.7709
  704TIP3   OH223526   5.853   5.617  13.465  0.0328 -0.4218 -0.3579
  704TIP3    H123527   5.898   5.608  13.381  0.3153  0.0386 -0.2596
  704TIP3    H223528   5.845   5.712  13.478  0.7458 -0.4650  0.5246
  705TIP3   OH223529   4.830   0.153   2.199 -0.3053 -0.5533 -0.2192
  705TIP3    H123530   4.835   0.079   2.139 -2.1744 -0.3354 -0.7099
  705TIP3    H223531   4.877   0.124   2.277  1.0143 -1.3400 -1.2701
  706TIP3   OH223532   5.508   2.217  16.765  0.4526 -0.7714 -0.3197
  706TIP3    H123533   5.445   2.146  16.779  0.0458 -0.0112  2.2715
  706TIP3    H223534   5.554   2.194  16.685 -1.1499 -2.8381 -0.7064
  707TIP3   OH223535   1.839   2.454  15.984 -0.0071  0.3388  0.0685
  707TIP3    H123536   1.923   2.415  16.006 -0.9572 -3.1309 -1.6720
  707TIP3    H223537   1.860   2.529  15.929  2.0551 -1.5175 -1.8816
  708TIP3   OH223538   2.103   1.194  14.170  0.1092 -0.0894 -0.1729
  708TIP3    H123539   2.191   1.185  14.134  0.4427  0.2100  0.5560
  708TIP3    H223540   2.117   1.212  14.263 -0.7474 -1.2338  0.1958
  709TIP3   OH223541   6.065   1.767   4.390  0.4956 -0.2427 -0.1620
  709TIP3    H123542   6.038   1.826   4.319  0.4767 -0.9650 -0.7620
  709TIP3    H223543   5.984   1.752   4.440  0.2801 -0.5507 -0.5969
  710TIP3   OH223544   6.391   2.965  14.542  0.6702  0.0547  0.1388
  710TIP3    H123545   6.328   2.999  14.479  0.4711 -1.0784 -0.3019
  710TIP3    H223546   6.400   3.034  14.608 -0.5837  0.4649 -0.1076
  711TIP3   OH223547   6.508   5.319  11.727  0.2433  0.1924  0.2614
  711TIP3    H123548   6.535   5.410  11.716 -1.1961  0.5338 -0.8788
  711TIP3    H223549   6.469   5.296  11.642  0.9193 -1.6185  0.3994
  712TIP3   OH223550   2.220   2.239  12.619  0.1200 -0.9490  0.0139
  712TIP3    H123551   2.219   2.332  12.594  1.3910  0.1624  3.5159
  712TIP3    H223552   2.306   2.208  12.592  0.2715 -0.6947  0.2074
  713TIP3   OH223553   0.095   6.039  12.829  0.0021  0.3152 -0.1562
  713TIP3    H123554   0.055   6.091  12.898 -1.1843  0.4824 -0.9352
  713TIP3    H223555   0.096   5.950  12.863 -0.5450  0.4002  0.0936
  714TIP3   OH223556   3.810   1.857   4.180  0.3795  0.0655 -0.6071
  714TIP3    H123557   3.820   1.830   4.089 -3.6546  0.7164 -1.4554
  714TIP3    H223558   3.775   1.946   4.174  0.0227  0.1216  1.5798
  715TIP3   OH223559   0.657   5.455  14.160 -0.1116  0.6765 -0.1861
  715TIP3    H123560   0.737   5.462  14.108  0.5358  0.3810  0.7424
  715TIP3    H223561   0.686   5.467  14.251 -0.9218 -0.7314  0.2861
  716TIP3   OH223562   3.478   4.641   6.693  0.7187  0.3742 -0.1103
  716TIP3    H123563   3.536   4.565   6.700  0.6685  0.1694 -1.5852
  716TIP3    H223564   3.471   4.675   6.782  3.7839  0.9072  0.0184
  717TIP3   OH223565   3.813   4.662  14.281 -0.2624 -0.1663 -0.0614
  717TIP3    H123566   3.722   4.642  14.302  0.0292  0.2454  1.8280
  717TIP3    H223567   3.816   4.665  14.186 -1.7775 -2.2075 -0.2471
  718TIP3   OH223568   1.985   2.278  13.361  0.2252 -0.0915  0.4587
  718TIP3    H123569   2.043   2.333  13.413  1.3677 -0.7545 -0.0596
  718TIP3    H223570   1.939   2.224  13.424  0.3574  0.2674  0.8662
  719TIP3   OH223571   5.313   0.477   3.025 -0.6852  0.0867 -0.4808
  719TIP3    H123572   5.254   0.425   3.080 -0.2092 -1.9322 -1.7769
  719TIP3    H223573   5.396   0.476   3.071 -0.6646 -0.3624 -0.5244
  720TIP3   OH223574   3.007   1.240  12.468 -0.3728  0.0710  0.7397
  720TIP3    H123575   3.073   1.266  12.531  0.2989 -0.4116  0.2479
  720TIP3    H223576   2.925   1.238  12.518 -0.0837  0.9780  1.2787
  721TIP3   OH223577   2.661   1.705  11.538  0.1315  0.1350  0.4427
  721TIP3    H123578   2.655   1.690  11.444 -2.0621 -1.7657  0.7732
  721TIP3    H223579   2.717   1.782  11.548  0.9046  0.0089 -2.3530
  722TIP3   OH223580   0.390   3.970  15.089  0.2699 -0.0837 -0.0222
  722TIP3    H123581   0.432   4.050  15.056  0.0283  0.1775  0.2894
  722TIP3    H223582   0.339   4.000  15.164  1.5003 -0.8158  1.1319
  723TIP3   OH223583   3.511   2.869  16.054  0.2743 -0.4086 -0.5979
  723TIP3    H123584   3.451   2.883  16.128  1.5570  0.4819  0.3099
  723TIP3    H223585   3.512   2.953  16.009  0.3248 -0.6316 -1.0142
  724TIP3   OH223586   2.192   1.562  14.134  0.3738  0.6571 -0.3134
  724TIP3    H123587   2.227   1.478  14.164 -0.1744  0.0049 -1.4226
  724TIP3    H223588   2.213   1.624  14.204  0.5188 -0.4673  0.6616
  725TIP3   OH223589   1.634   1.852  15.187  0.0831 -0.3207  0.7053
  725TIP3    H123590   1.633   1.877  15.095 -0.4913 -0.4330  0.6762
  725TIP3    H223591   1.680   1.768  15.188 -0.3199 -0.5522  0.4512
  726TIP3   OH223592   0.295   2.096   3.740  0.4494  0.0940  0.1790
  726TIP3    H123593   0.252   2.135   3.664  1.8607  0.8043 -0.2843
  726TIP3    H223594   0.350   2.026   3.703 -0.4165 -0.9511  0.7863
  727TIP3   OH223595   1.659   1.669   3.436  0.5633  0.6124  0.2763
  727TIP3    H123596   1.582   1.658   3.491 -0.6342  1.8975 -1.0418
  727TIP3    H223597   1.689   1.579   3.418 -0.8581  0.0697  0.5179
  728TIP3   OH223598   4.860   2.106   2.638  0.4269  0.0387  0.9038
  728TIP3    H123599   4.780   2.082   2.686 -1.7846  0.1373 -2.4378
  728TIP3    H223600   4.832   2.175   2.578  2.7238 -0.7657 -1.2171
  729TIP3   OH223601   0.215   4.774  16.007  0.9968 -0.0954 -0.5335
  729TIP3    H123602   0.293   4.801  16.055 -0.1262  1.5574  0.4674
  729TIP3    H223603   0.204   4.841  15.940 -0.6652  0.9046  0.6497
  730TIP3   OH223604   3.031   5.066  14.165 -0.2281  0.4516 -0.0256
  730TIP3    H123605   3.098   5.052  14.097  1.3224  0.4375  1.4386
  730TIP3    H223606   2.973   4.990  14.156  1.7035 -1.2037  0.5923
  731TIP3   OH223607   0.600   4.703   1.636  0.4076  0.2201 -0.0427
  731TIP3    H123608   0.670   4.644   1.608  0.3747  0.3578 -0.4183
  731TIP3    H223609   0.540   4.647   1.686 -2.2478 -1.3359 -4.4160
  732TIP3   OH223610   5.373   1.307   0.099  0.0307 -0.0751 -0.0454
  732TIP3    H123611   5.289   1.307   0.144 -0.8784  0.0755 -1.6889
  732TIP3    H223612   5.375   1.224   0.051 -0.5751  1.2522 -2.4736
  733TIP3   OH223613   5.891   5.787   2.700 -0.5877 -0.5386 -0.0650
  733TIP3    H123614   5.972   5.795   2.650 -0.4547 -1.8337 -0.0869
  733TIP3    H223615   5.920   5.780   2.791 -0.8048  1.3448  0.1760
  734TIP3   OH223616   4.383   6.564   3.495 -0.0358 -0.0533 -0.5907
  734TIP3    H123617   4.359   6.633   3.557  0.9914 -0.0034 -0.2200
  734TIP3    H223618   4.368   6.482   3.543 -1.2671 -0.1007 -1.0353
  735TIP3   OH223619   3.602   4.498  16.838 -0.4223  0.3438 -0.5399
  735TIP3    H123620   3.507   4.513  16.833 -0.4139  1.2118  1.2988
  735TIP3    H223621   3.611   4.416  16.886 -0.2442  1.2367  1.0137
  736TIP3   OH223622   4.675   6.301  12.768 -0.8013  0.1391  0.5803
  736TIP3    H123623   4.729   6.372  12.734 -1.4515  1.0489  1.3691
  736TIP3    H223624   4.737   6.240  12.807  0.0492 -1.3153 -2.6923
  737TIP3   OH223625   0.820   3.281   3.978 -0.2247 -0.2702  0.3185
  737TIP3    H123626   0.892   3.312   4.032 -0.3640  0.8218 -0.1155
  737TIP3    H223627   0.851   3.291   3.888 -0.4869 -0.8764  0.1539
  738TIP3   OH223628   0.781   5.392   4.328  0.1691  0.5079  0.3677
  738TIP3    H123629   0.815   5.304   4.315 -0.6072  0.1092  0.9136
  738TIP3    H223630   0.842   5.433   4.389  0.4136  0.2737  0.2784
  739TIP3   OH223631   2.620   2.709   3.229 -0.1556  0.1843 -0.2839
  739TIP3    H123632   2.696   2.730   3.285  1.2896 -1.3578 -1.5507
  739TIP3    H223633   2.659   2.682   3.146 -2.1388 -0.3696 -1.0846
  740TIP3   OH223634   5.385   0.066   3.862 -0.4245  0.0115  0.1321
  740TIP3    H123635   5.464   0.017   3.837 -0.2740 -0.1938  0.9880
  740TIP3    H223636   5.318  -0.001   3.870 -1.0512  0.3168 -1.8840
  741TIP3   OH223637   4.588   3.243  16.975  0.3732 -0.4382  0.0555
  741TIP3    H123638   4.534   3.321  16.988 -0.0876 -0.2660 -2.4371
  741TIP3    H223639   4.531   3.170  17.000 -0.3869 -0.1496 -0.8020
  742TIP3   OH223640   4.071   3.807  14.578  0.3176  0.4570  0.5144
  742TIP3    H123641   4.076   3.892  14.532  1.0426  1.0779  1.7009
  742TIP3    H223642   4.125   3.748  14.525 -2.5657 -0.1583 -2.0481
  743TIP3   OH223643   2.569   1.681  15.587 -0.0947  0.3628  0.5582
  743TIP3    H123644   2.542   1.634  15.508 -1.6741  0.5726  0.9444
  743TIP3    H223645   2.491   1.682  15.643  0.9282  0.4023  2.0413
  744TIP3   OH223646   1.627   0.162  17.057  0.4340  0.0875  0.6053
  744TIP3    H123647   1.607   0.249  17.091  3.4384  1.3262 -0.5063
  744TIP3    H223648   1.570   0.152  16.981  0.3807  1.2795  0.4814
  745TIP3   OH223649   2.964   6.688   5.281 -0.1415  0.3410 -0.3236
  745TIP3    H123650   2.894   6.632   5.315  0.4882 -1.0661 -1.2404
  745TIP3    H223651   2.976   6.756   5.348 -2.3864  0.6509 -0.1695
  746TIP3   OH223652   5.538   1.905  14.266  0.7716 -0.8974  0.3268
  746TIP3    H123653   5.554   1.998  14.278  0.5372 -0.5037 -2.0314
  746TIP3    H223654   5.489   1.879  14.345 -1.4353  1.5588 -0.0862
  747TIP3   OH223655   0.158   3.053   1.602  0.5452  0.2636 -0.3362
  747TIP3    H123656   0.137   3.146   1.612 -0.4475 -0.0766  0.9576
  747TIP3    H223657   0.204   3.030   1.683 -1.1657 -0.8744  0.3595
  748TIP3   OH223658   6.133   5.956   6.200  0.1289  0.1277 -0.0308
  748TIP3    H123659   6.176   6.035   6.234  0.7868  0.4643 -1.5587
  748TIP3    H223660   6.205   5.899   6.173 -0.3147 -1.4084  1.8305
  749TIP3   OH223661   2.476   4.025  12.690  0.3789  0.4142  0.1392
  749TIP3    H123662   2.534   4.002  12.763  1.5060  0.0500 -0.8344
  749TIP3    H223663   2.418   3.949  12.681 -0.3057  0.7909  1.1342
  750TIP3   OH223664   4.398   1.807  14.737  0.5281  0.0455 -0.2857
  750TIP3    H123665   4.413   1.713  14.750  2.2698  0.4326  0.7808
  750TIP3    H223666   4.448   1.829  14.659  0.1096  0.1054 -0.5429
  751TIP3   OH223667   2.120   5.331  16.735 -0.4184  0.0343 -0.2142
  751TIP3    H123668   2.129   5.391  16.808  0.1280 -1.5274  1.0480
  751TIP3    H223669   2.202   5.338  16.687  0.0781 -0.4978  0.5539
  752TIP3   OH223670   1.288   2.619   4.687 -0.3361 -0.1383 -0.0946
  752TIP3    H123671   1.367   2.651   4.644 -0.5748 -0.1050 -0.5123
  752TIP3    H223672   1.277   2.530   4.654  0.2014 -0.6014  0.8936
  753TIP3   OH223673   1.503   1.777   5.899 -0.4724  0.6338  0.6031
  753TIP3    H123674   1.487   1.821   5.983 -0.8248  1.1047  0.2953
  753TIP3    H223675   1.422   1.788   5.850 -0.8025 -0.9054  0.7399
  754TIP3   OH223676   3.998   4.516  15.018  0.1938  0.1649  0.1740
  754TIP3    H123677   3.973   4.569  15.094 -0.1234 -0.4947  0.5368
  754TIP3    H223678   3.953   4.433  15.032  0.2625 -0.0127 -0.6620
  755TIP3   OH223679   0.826   6.004  11.564  0.1392  0.4746 -0.1850
  755TIP3    H123680   0.903   6.006  11.508 -1.0821 -1.7877 -2.1022
  755TIP3    H223681   0.813   6.096  11.590  2.0727  1.2538 -1.6997
  756TIP3   OH223682   1.103   1.800  16.273  0.1049  0.1708 -0.1690
  756TIP3    H123683   1.025   1.777  16.221  0.4366  1.3584 -1.2296
  756TIP3    H223684   1.112   1.894  16.262  2.7226 -0.1704 -1.5544
  757TIP3   OH223685   3.656   2.648   2.045 -0.4580 -0.1824 -0.1058
  757TIP3    H123686   3.603   2.574   2.015 -0.1368 -0.3703 -0.2055
  757TIP3    H223687   3.597   2.697   2.104 -0.6203 -0.5987  0.0821
  758TIP3   OH223688   4.951   2.631  13.424  0.3349 -0.3933 -0.7148
  758TIP3    H123689   4.956   2.723  13.398  0.1301  0.2967  1.4938
  758TIP3    H223690   4.880   2.628  13.488  1.4187 -1.7640  0.5017
  759TIP3   OH223691   3.665   2.364   2.855 -0.0702  0.0981  0.3938
  759TIP3    H123692   3.729   2.415   2.906  1.2337 -0.6726 -0.3929
  759TIP3    H223693   3.614   2.430   2.809  1.3621  0.7494 -0.3492
  760TIP3   OH223694   2.837   0.529  14.309  0.0547 -0.4393 -0.4896
  760TIP3    H123695   2.903   0.497  14.371 -0.1230 -1.5044 -0.8252
  760TIP3    H223696   2.814   0.452  14.257 -1.2552 -0.0196 -0.5709
  761TIP3   OH223697   1.413   0.274   6.072  0.1479  0.1669 -0.0581
  761TIP3    H123698   1.483   0.334   6.098  0.8447  0.2277 -1.9054
  761TIP3    H223699   1.355   0.328   6.018 -0.3059 -0.3406 -0.0868
  762TIP3   OH223700   6.034   0.163  12.745  0.3803 -0.3001  0.3737
  762TIP3    H123701   6.021   0.198  12.657 -1.0832 -0.3757  0.5239
  762TIP3    H223702   6.001   0.073  12.740 -0.8796  0.0783  1.2737
  763TIP3   OH223703   5.362   3.035   2.447 -0.2918  0.6832  0.7047
  763TIP3    H123704   5.396   3.092   2.516  1.1779  0.7477 -0.0322
  763TIP3    H223705   5.309   3.092   2.392  2.7128  1.9321 -1.1495
  764TIP3   OH223706   3.198   5.834   2.011  0.0796  0.1698 -0.2072
  764TIP3    H123707   3.230   5.876   2.090 -1.6396  1.7983 -0.2965
  764TIP3    H223708   3.158   5.905   1.960 -0.9920 -1.2242 -1.4156
  765TIP3   OH223709   1.987   6.681  15.720  0.2528 -0.2816 -0.0601
  765TIP3    H123710   1.975   6.773  15.747  0.4437  0.0050 -0.9427
  765TIP3    H223711   2.045   6.644  15.787  1.7129  0.7457 -0.7086
  766TIP3   OH223712   0.569   5.623   2.061  0.2762 -0.4002 -0.6464
  766TIP3    H123713   0.567   5.529   2.045 -0.1624 -0.1215 -2.3494
  766TIP3    H223714   0.625   5.658   1.992  0.4330  0.6039 -0.0302
  767TIP3   OH223715   0.924   6.224   3.691 -0.2391 -0.1689  0.6105
  767TIP3    H123716   0.891   6.159   3.753  2.3911 -0.9821  1.2794
  767TIP3    H223717   0.945   6.174   3.612 -2.8141  0.7421 -0.7956
  768TIP3   OH223718   1.050   2.858  12.063  0.3057 -0.3968 -0.5017
  768TIP3    H123719   1.097   2.881  12.144  0.6908 -0.4483 -0.7094
  768TIP3    H223720   0.989   2.789  12.090 -1.8023  1.7064  0.4182
  769TIP3   OH223721   2.988   3.641   2.675 -0.5068  0.2074  0.5419
  769TIP3    H123722   3.044   3.719   2.675  0.1436 -0.2543  0.9481
  769TIP3    H223723   2.901   3.674   2.653 -0.0440  0.9075 -0.3256
  770TIP3   OH223724   4.823   4.132  14.697 -0.5406 -0.2707 -0.5053
  770TIP3    H123725   4.738   4.094  14.717 -0.1818 -0.7086  0.2499
  770TIP3    H223726   4.884   4.058  14.705  0.1144  0.3640  0.6088
  771TIP3   OH223727   2.242   1.564   2.157  0.5696 -0.0790  0.3840
  771TIP3    H123728   2.329   1.605   2.161  0.2603  0.7348 -0.8628
  771TIP3    H223729   2.237   1.528   2.068 -0.1035 -0.7417  0.6843
  772TIP3   OH223730   4.301   2.336   0.469 -0.2945  0.0399 -0.0405
  772TIP3    H123731   4.391   2.316   0.442  1.1337  1.4740  3.0720
  772TIP3    H223732   4.254   2.253   0.460  2.0950 -1.5159  0.8021
  773TIP3   OH223733   1.157   4.583  13.009  0.0223  0.1881  0.0153
  773TIP3    H123734   1.066   4.569  13.032 -0.0176  1.6298  0.8941
  773TIP3    H223735   1.196   4.621  13.088  1.0315  0.9505 -0.8188
  774TIP3   OH223736   0.349   3.422   2.379 -0.1950 -0.1547 -0.1250
  774TIP3    H123737   0.326   3.418   2.472  1.0739  1.6128  0.3148
  774TIP3    H223738   0.334   3.513   2.355  0.2192 -0.4234 -1.4521
  775TIP3   OH223739   4.653   1.423  14.820  0.3317 -0.1018  0.2181
  775TIP3    H123740   4.679   1.351  14.878 -1.5106 -0.2692  0.8915
  775TIP3    H223741   4.557   1.418  14.816  0.3025  0.8057 -1.7020
  776TIP3   OH223742   1.707   1.587  10.469  0.4247 -0.4261 -0.2421
  776TIP3    H123743   1.627   1.574  10.417  1.1478 -3.0178 -0.8310
  776TIP3    H223744   1.765   1.637  10.411  0.2238 -0.9371 -0.8949
  777TIP3   OH223745   1.362   0.660   5.133  0.3527 -0.0313 -0.3442
  777TIP3    H123746   1.274   0.640   5.163  0.0882 -0.8758 -1.5730
  777TIP3    H223747   1.392   0.731   5.190 -1.8622  1.6484 -1.1196
  778TIP3   OH223748   2.323   3.914   1.611 -0.1729 -0.4882  0.2106
  778TIP3    H123749   2.274   3.953   1.683  2.0520  0.4068  1.3232
  778TIP3    H223750   2.317   3.979   1.540 -0.6403 -0.4141  0.3188
  779TIP3   OH223751   2.619   5.866  15.719  0.5119  0.1184  0.6590
  779TIP3    H123752   2.649   5.807  15.788 -1.5869  0.4460  1.9444
  779TIP3    H223753   2.560   5.927  15.764  0.7061  1.6720 -1.0686
  780TIP3   OH223754   6.676   2.182  11.565 -0.1500  0.2132 -0.1378
  780TIP3    H123755   6.698   2.096  11.603  1.9697  0.7404 -0.0172
  780TIP3    H223756   6.630   2.228  11.635  0.5335 -0.1129  0.5542
  781TIP3   OH223757   1.937   5.698   3.610 -0.4262 -0.4576 -0.6319
  781TIP3    H123758   1.880   5.765   3.648  0.3224  0.5325 -1.1798
  781TIP3    H223759   1.898   5.680   3.524  1.1236  1.7474 -1.9139
  782TIP3   OH223760   0.855   2.789  15.454  0.4366 -0.0157  0.7995
  782TIP3    H123761   0.765   2.793  15.489  0.6841 -1.4364  1.6668
  782TIP3    H223762   0.907   2.838  15.518  0.2968  0.8609  0.2642
  783TIP3   OH223763   1.849   3.431   2.860 -0.2324  0.3482 -0.0640
  783TIP3    H123764   1.863   3.525   2.847 -0.4009  0.4808  0.6683
  783TIP3    H223765   1.906   3.389   2.796  0.1890  0.9428 -0.0830
  784TIP3   OH223766   4.500   2.040   4.202  0.8880  0.3701 -0.1778
  784TIP3    H123767   4.501   1.964   4.143  0.5779 -0.8545  1.3073
  784TIP3    H223768   4.584   2.036   4.248  0.6295  0.5749  0.3222
  785TIP3   OH223769   2.513   2.835  13.366  0.2997 -0.2116  0.0082
  785TIP3    H123770   2.525   2.902  13.434 -1.4692  0.4292 -0.2571
  785TIP3    H223771   2.453   2.772  13.406  0.9588 -0.9899 -0.2070
  786TIP3   OH223772   6.516   3.440   6.206 -0.0532 -0.1669 -0.1918
  786TIP3    H123773   6.466   3.376   6.156 -0.5621 -0.1274  0.2623
  786TIP3    H223774   6.595   3.394   6.232 -0.8839 -0.9584  1.0296
  787TIP3   OH223775   3.716   6.096  12.803 -0.1303 -0.2926  0.0916
  787TIP3    H123776   3.694   6.159  12.872 -0.4307  0.0404 -0.3094
  787TIP3    H223777   3.666   6.018  12.827 -0.2095 -0.1905  0.2687
  788TIP3   OH223778   4.183   4.079  16.600 -0.7133  0.2805  0.7255
  788TIP3    H123779   4.208   4.093  16.692 -1.6894  0.7289  0.9330
  788TIP3    H223780   4.088   4.074  16.602 -0.6883 -0.7816 -0.1309
  789TIP3   OH223781   1.990   2.166  14.855 -0.4017  0.5641  1.1172
  789TIP3    H123782   1.963   2.181  14.765 -1.2788  0.8816  1.4245
  789TIP3    H223783   1.962   2.244  14.902 -0.5233  0.1251  1.7860
  790TIP3   OH223784   2.173   4.588  16.270  0.0366 -0.6002 -0.5120
  790TIP3    H123785   2.205   4.621  16.354 -2.2862  2.7308 -0.7373
  790TIP3    H223786   2.086   4.552  16.290 -0.1114 -0.7116 -1.3184
  791TIP3   OH223787   3.902   2.094   3.466  0.2287 -0.5966  0.3508
  791TIP3    H123788   3.943   2.070   3.549  2.4231 -0.2445 -0.5440
  791TIP3    H223789   3.860   2.014   3.436 -0.4133 -0.7835  1.6801
  792TIP3   OH223790   0.102   3.852  16.031  0.0324 -0.2282 -0.6596
  792TIP3    H123791   0.117   3.759  16.010 -1.5908 -0.7979  0.5188
  792TIP3    H223792   0.166   3.899  15.977  0.1824 -1.9589 -2.1060
  793TIP3   OH223793   4.329   5.510  13.236  0.0252 -0.8305  0.2076
  793TIP3    H123794   4.315   5.514  13.331 -0.8746 -1.3782  0.1124
  793TIP3    H223795   4.374   5.427  13.221  1.1957 -0.2221  0.2557
  794TIP3   OH223796   3.041   5.026  11.844  0.2797 -0.3203 -0.2083
  794TIP3    H123797   3.093   4.994  11.918  0.0625  1.1281  0.6278
  794TIP3    H223798   3.101   5.082  11.795 -0.1506  0.4350  0.1089
  795TIP3   OH223799   0.563   2.388   0.853 -0.1657 -0.2353 -0.3623
  795TIP3    H123800   0.563   2.482   0.834 -0.7184  0.4142  2.3906
  795TIP3    H223801   0.476   2.358   0.826 -0.2460  0.1956 -0.5900
  796TIP3   OH223802   2.182   2.341   5.574 -0.0360 -0.3204 -0.0012
  796TIP3    H123803   2.095   2.380   5.568  0.5315  0.7754 -2.4649
  796TIP3    H223804   2.238   2.413   5.603  0.0085 -1.2121  2.3396
  797TIP3   OH223805   0.703   3.518  16.233 -0.6173  0.2482  0.5072
  797TIP3    H123806   0.760   3.442  16.230 -0.9012 -0.1381  2.9765
  797TIP3    H223807   0.614   3.482  16.226 -0.7267  0.4099  1.0378
  798TIP3   OH223808   3.751   3.166  14.099 -0.3779 -0.0231  0.5177
  798TIP3    H123809   3.698   3.109  14.155  1.7681 -2.3267  0.4107
  798TIP3    H223810   3.689   3.206  14.039 -2.1032 -1.9588  0.9055
  799TIP3   OH223811   0.837   1.436   4.872 -0.4216  0.5469  0.1153
  799TIP3    H123812   0.782   1.386   4.933 -1.0921  0.0770 -0.8522
  799TIP3    H223813   0.878   1.503   4.927 -0.9677  0.1111  1.0904
  800TIP3   OH223814   2.208   0.440  11.111  0.3375  0.6039 -0.4299
  800TIP3    H123815   2.233   0.467  11.199 -1.0208  2.3056 -0.5013
  800TIP3    H223816   2.253   0.503  11.054  0.6449 -0.0433 -0.9114
  801TIP3   OH223817   2.916   1.941  10.732  0.0453  0.0656  0.4849
  801TIP3    H123818   2.968   2.010  10.690  0.6986 -0.1360  0.9422
  801TIP3    H223819   2.978   1.869  10.747 -0.1701  0.1067  1.7428
  802TIP3   OH223820   4.964   1.068   3.365  0.1036 -0.3143  0.9018
  802TIP3    H123821   4.994   0.979   3.347 -0.7585 -0.3562 -0.4583
  802TIP3    H223822   4.905   1.058   3.440 -1.3803 -1.2146 -0.3103
  803TIP3   OH223823   3.913   4.493   0.792 -0.1487 -0.3833  0.2054
  803TIP3    H123824   3.977   4.515   0.860  0.7553 -1.1833 -0.3800
  803TIP3    H223825   3.964   4.451   0.723 -1.1200  0.0748 -0.8133
  804TIP3   OH223826   2.129   5.506  14.265 -0.1083 -0.1415  0.4944
  804TIP3    H123827   2.200   5.543  14.214 -0.4004  0.8780  0.8163
  804TIP3    H223828   2.050   5.528  14.216 -0.4058  0.9640  1.4194
  805TIP3   OH223829   2.691   5.380   4.332 -0.0522 -0.0963 -0.3611
  805TIP3    H123830   2.737   5.299   4.310 -0.6257 -0.4371 -0.3465
  805TIP3    H223831   2.609   5.350   4.372  0.3185  0.4903  0.8820
  806TIP3   OH223832   2.076   3.139  11.304 -0.3523 -0.0640  0.7365
  806TIP3    H123833   2.124   3.061  11.332  0.3522  0.9462  2.4266
  806TIP3    H223834   2.086   3.201  11.375 -0.4924  1.7870 -0.7722
  807TIP3   OH223835   1.025   2.454  16.053  0.5462 -0.4319  0.2950
  807TIP3    H123836   1.083   2.378  16.064  0.5133 -0.4221  0.5391
  807TIP3    H223837   1.077   2.529  16.080  0.2492 -0.4834  1.0193
  808TIP3   OH223838   5.875   1.600  15.965 -0.6420  0.0233  0.2914
  808TIP3    H123839   5.834   1.590  15.879 -1.1214 -0.8186  0.6008
  808TIP3    H223840   5.843   1.685  15.997 -1.6044 -0.2974  0.2250
  809TIP3   OH223841   1.454   2.084   1.085  0.5722 -0.0620  0.0729
  809TIP3    H123842   1.524   2.024   1.060  0.9496  1.0316 -1.6611
  809TIP3    H223843   1.489   2.171   1.067 -1.0566  0.5362 -0.3832
  810TIP3   OH223844   0.598   1.086   4.870 -0.2097  0.4108 -0.6205
  810TIP3    H123845   0.684   1.105   4.833 -1.0438  0.9755 -2.3340
  810TIP3    H223846   0.588   0.991   4.859  0.5490  0.1764  0.4641
  811TIP3   OH223847   1.095   4.290   4.387  0.4269  0.0774  0.0592
  811TIP3    H123848   1.047   4.246   4.457 -1.5351 -0.6580 -1.6105
  811TIP3    H223849   1.057   4.378   4.383  2.0601  0.8860  1.2690
  812TIP3   OH223850   1.234   0.624  11.124  0.0756  0.1776 -0.3221
  812TIP3    H123851   1.326   0.645  11.105 -0.0076  0.8697 -0.0087
  812TIP3    H223852   1.187   0.659  11.048  0.0028  0.4962 -0.1311
  813TIP3   OH223853   3.524   0.802   3.736  0.2371  0.3735 -0.1555
  813TIP3    H123854   3.501   0.720   3.692 -0.3315  0.0563  0.7164
  813TIP3    H223855   3.616   0.816   3.713  0.1427 -0.1402 -0.8824
  814TIP3   OH223856   2.642   4.597  13.448  0.3624  0.0375  0.9141
  814TIP3    H123857   2.628   4.670  13.388  0.9924 -1.3063 -0.9683
  814TIP3    H223858   2.723   4.556  13.418  0.0088 -1.4612  1.9012
  815TIP3   OH223859   2.233   5.765   3.629 -0.1062 -0.3038 -0.2039
  815TIP3    H123860   2.179   5.752   3.707 -1.4699 -0.6909 -1.1681
  815TIP3    H223861   2.214   5.688   3.575  2.9994 -1.5129  0.2648
  816TIP3   OH223862   4.530   3.043  15.976  0.5345  0.2312  0.1090
  816TIP3    H123863   4.497   2.966  16.023 -0.2699 -1.2303 -2.6181
  816TIP3    H223864   4.518   3.115  16.037 -1.5883 -1.3141  1.6855
  817TIP3   OH223865   3.541   6.755   4.134  0.0539 -0.4308  0.0674
  817TIP3    H123866   3.479   6.756   4.060 -1.3899  0.9798  1.1930
  817TIP3    H223867   3.621   6.793   4.098 -0.7074  0.4889 -0.7374
  818TIP3   OH223868   4.417   6.067   0.255 -0.1346 -0.5287 -0.2461
  818TIP3    H123869   4.505   6.053   0.219 -0.1519 -0.8883 -0.1526
  818TIP3    H223870   4.363   6.087   0.178 -0.4391 -2.5748 -0.6295
  819TIP3   OH223871   6.152   3.729   3.669  0.2927 -0.1153 -0.0627
  819TIP3    H123872   6.185   3.640   3.664  0.4875 -0.1360  1.1977
  819TIP3    H223873   6.207   3.771   3.735  0.3568  1.0134 -0.8048
  820TIP3   OH223874   0.176   6.434  15.164 -0.1824 -0.6458  0.2969
  820TIP3    H123875   0.263   6.461  15.193  0.8200 -3.1038 -0.1867
  820TIP3    H223876   0.159   6.352  15.210 -2.4969  0.0105  0.7540
  821TIP3   OH223877   3.522   3.929  11.565 -0.0757  0.8031 -0.4973
  821TIP3    H123878   3.448   3.871  11.581 -0.2497  0.7604 -1.3867
  821TIP3    H223879   3.483   4.016  11.553  0.3291  1.6847  3.1918
  822TIP3   OH223880   2.981   3.186  13.582 -0.4381 -0.1767 -0.2880
  822TIP3    H123881   2.896   3.230  13.584 -1.4237 -1.8804 -1.7072
  822TIP3    H223882   2.971   3.111  13.641  0.2716 -0.1103 -0.0685
  823TIP3   OH223883   5.144   1.743   5.919 -0.0196  0.2978  0.0413
  823TIP3    H123884   5.193   1.682   5.974  0.5441  0.8551  0.1657
  823TIP3    H223885   5.178   1.829   5.942 -1.7675  0.8122  0.8826
  824TIP3   OH223886   2.387   6.262   1.369  0.4095  0.1783 -0.1880
  824TIP3    H123887   2.406   6.235   1.459 -1.3555 -2.1449 -0.4203
  824TIP3    H223888   2.293   6.281   1.369  0.1667 -0.8896 -1.7513
  825TIP3   OH223889   5.148   0.965   2.507  0.2189 -0.7406  0.4075
  825TIP3    H123890   5.116   0.990   2.594  0.9078  1.7235  0.0069
  825TIP3    H223891   5.225   0.911   2.525  2.0145  2.0002  1.4081
  826TIP3   OH223892   1.100   0.629   5.194 -0.1571 -0.2940  0.3124
  826TIP3    H123893   1.052   0.686   5.255 -0.5687 -1.5175  1.1555
  826TIP3    H223894   1.073   0.660   5.107  0.2770  1.3384  0.7115
  827TIP3   OH223895   5.080   4.997  11.246  0.4426  0.0133 -0.0705
  827TIP3    H123896   5.094   4.905  11.266 -0.8993 -0.5600 -1.5318
  827TIP3    H223897   5.040   5.033  11.325  2.3578 -0.2590  1.0670
  828TIP3   OH223898   3.124   2.692  12.318  0.1726  0.0141 -1.1241
  828TIP3    H123899   3.190   2.623  12.328 -1.6135 -1.7226 -0.7302
  828TIP3    H223900   3.047   2.658  12.364 -0.9402  2.0761 -1.3615
  829TIP3   OH223901   1.194   6.612   4.139  0.3831 -0.0921 -0.2867
  829TIP3    H123902   1.130   6.595   4.070  2.0005 -2.6829 -1.3032
  829TIP3    H223903   1.273   6.568   4.109  1.4211 -0.5745  2.8351
  830TIP3   OH223904   2.771   4.426   1.062 -0.1325 -0.0020  0.4257
  830TIP3    H123905   2.858   4.443   1.026 -0.3019 -0.7771 -0.3829
  830TIP3    H223906   2.765   4.483   1.139  1.2834 -0.3179  0.7928
  831TIP3   OH223907   5.079   4.902  12.771  0.6780 -0.4848  0.0893
  831TIP3    H123908   5.096   4.833  12.836 -1.0045 -0.1975  0.9015
  831TIP3    H223909   5.130   4.977  12.802  2.1113 -1.1872 -0.5122
  832TIP3   OH223910   4.612   4.279  12.399 -0.1148 -0.2513 -0.5303
  832TIP3    H123911   4.694   4.238  12.428 -0.8982 -2.3125 -1.0349
  832TIP3    H223912   4.570   4.309  12.479  0.8705  0.3289 -0.2199
  833TIP3   OH223913   3.616   4.176  12.894  0.5382  0.3022  0.0709
  833TIP3    H123914   3.527   4.142  12.892  0.9849 -1.2609  2.6259
  833TIP3    H223915   3.608   4.267  12.864 -2.1539  0.6769  1.6513
  834TIP3   OH223916   6.456   0.409  17.281 -1.1064  0.0877  0.4070
  834TIP3    H123917   6.481   0.328  17.236  0.4101  1.2671 -1.0424
  834TIP3    H223918   6.482   0.396  17.372  0.3450 -0.5955 -0.0772
  835TIP3   OH223919   4.406   1.753  17.283 -0.1569 -0.2607 -0.4403
  835TIP3    H123920   4.444   1.736  17.197 -0.9953 -0.0826 -0.8645
  835TIP3    H223921   4.353   1.676  17.302 -1.4350  0.4706 -0.9289
  836TIP3   OH223922   2.766   4.482   3.413 -0.3957  0.5801 -0.3253
  836TIP3    H123923   2.675   4.453   3.404 -0.2884 -0.3366  1.0977
  836TIP3    H223924   2.782   4.479   3.508  1.4072 -0.2234 -0.6192
  837TIP3   OH223925   4.352   5.694   2.940  0.3083  0.0712 -0.3630
  837TIP3    H123926   4.423   5.679   2.878 -0.0340 -0.1010 -0.7204
  837TIP3    H223927   4.277   5.716   2.885  0.4517  1.8136  0.0705
  838TIP3   OH223928   2.537   5.399  13.576 -0.0106 -0.4893  0.4954
  838TIP3    H123929   2.571   5.413  13.487 -0.7339 -2.5629 -0.1684
  838TIP3    H223930   2.445   5.378  13.563 -0.1106 -0.8650  1.7444
  839TIP3   OH223931   4.517   5.077  13.278  0.1189 -0.1311  0.1966
  839TIP3    H123932   4.559   5.064  13.364 -1.4445  1.3393  1.2461
  839TIP3    H223933   4.444   5.016  13.278  1.7035 -2.2007 -1.3601
  840TIP3   OH223934   3.962   3.725  11.544  0.2824 -0.3729  0.8120
  840TIP3    H123935   3.875   3.748  11.511  0.8460  0.6639  0.0139
  840TIP3    H223936   3.957   3.630  11.559 -0.6990 -0.4919 -0.1131
  841TIP3   OH223937   1.905   0.992   1.453  0.3040  0.6002 -0.1880
  841TIP3    H123938   1.869   0.956   1.534 -1.6345  0.8617 -0.8713
  841TIP3    H223939   1.912   0.917   1.394  1.8047  0.3935  0.2303
  842TIP3   OH223940   5.952   0.460   0.739 -0.2396 -0.2701  0.7643
  842TIP3    H123941   6.031   0.416   0.768 -0.7271 -0.7744  1.3614
  842TIP3    H223942   5.979   0.511   0.663  0.6920 -0.2917  1.0712
  843TIP3   OH223943   0.353   1.493   4.018  0.1162 -0.1279 -0.0328
  843TIP3    H123944   0.369   1.580   3.980 -1.8677 -0.3393 -1.5165
  843TIP3    H223945   0.366   1.432   3.945  1.8553 -1.1632  1.0820
  844TIP3   OH223946   1.405   3.208  15.570  0.0309  0.4760 -0.1629
  844TIP3    H123947   1.485   3.208  15.622  0.7377  1.0107 -1.2260
  844TIP3    H223948   1.337   3.180  15.632  0.9381  0.5116  0.8891
  845TIP3   OH223949   6.740   1.765   0.782 -0.6085 -0.1932 -0.2352
  845TIP3    H123950   6.793   1.808   0.849  0.2509 -2.1890  0.4363
  845TIP3    H223951   6.795   1.694   0.751 -0.9302  0.7466 -3.2238
  846TIP3   OH223952   1.073   0.697   5.792 -0.7319  0.3926  0.0413
  846TIP3    H123953   1.058   0.653   5.707  0.2641  1.1244 -0.5295
  846TIP3    H223954   1.047   0.631   5.857 -2.0591  0.0112 -0.8153
  847TIP3   OH223955   2.447   4.529   0.890 -0.2693  0.3420  0.2407
  847TIP3    H123956   2.491   4.445   0.904 -0.1696  0.7503  2.8020
  847TIP3    H223957   2.364   4.505   0.847  0.3029 -0.9116 -0.2206
  848TIP3   OH223958   4.831   1.661  15.743 -0.1471  0.5532  0.1708
  848TIP3    H123959   4.926   1.668  15.738 -0.0562  1.5181  2.1910
  848TIP3    H223960   4.814   1.567  15.747  0.9363  0.3927  2.1497
  849TIP3   OH223961   0.991   4.577  12.378 -0.1359  0.1708  0.0175
  849TIP3    H123962   1.038   4.558  12.297  2.1541  1.9264  0.8082
  849TIP3    H223963   0.900   4.560  12.358  0.5626 -1.2175 -2.3380
  850TIP3   OH223964   6.128   6.266   1.839 -0.2519  0.0959 -0.5271
  850TIP3    H123965   6.175   6.215   1.906 -1.6491 -0.6077 -0.0337
  850TIP3    H223966   6.188   6.337   1.816  1.0536 -0.7873  0.0360
  851TIP3   OH223967   2.429   2.208  12.329  0.3382  0.5265 -0.8165
  851TIP3    H123968   2.441   2.184  12.421  1.0189  2.6566 -0.3016
  851TIP3    H223969   2.518   2.223  12.297 -0.0273  2.5610 -0.9972
  852TIP3   OH223970   1.469   2.686   5.328 -0.0946 -0.0738  0.7378
  852TIP3    H123971   1.443   2.757   5.270 -0.2270  0.1234  1.0362
  852TIP3    H223972   1.402   2.619   5.314 -0.4501  0.2024  1.0794
  853TIP3   OH223973   6.184   1.343  16.004  0.5121 -0.3768 -0.4249
  853TIP3    H123974   6.252   1.279  15.983 -0.1617 -2.1690  2.2411
  853TIP3    H223975   6.112   1.323  15.944  0.8165 -1.2416 -0.5180
  854TIP3   OH223976   5.163   4.798   4.519 -0.2916  0.0672  0.1684
  854TIP3    H123977   5.085   4.797   4.575  0.9489  0.2792  1.9805
  854TIP3    H223978   5.139   4.744   4.443 -1.9329 -0.4985  1.0446
  855TIP3   OH223979   2.871   0.677   4.998  0.1570 -0.0848  0.7400
  855TIP3    H123980   2.846   0.755   4.950 -0.1621  0.9013  2.4105
  855TIP3    H223981   2.929   0.629   4.940  0.5977  1.5481 -0.2038
  856TIP3   OH223982   0.884   5.501  13.963  0.0727 -0.1319  0.0769
  856TIP3    H123983   0.957   5.469  14.017 -0.7123  0.4536  1.5411
  856TIP3    H223984   0.923   5.569  13.909  0.7422 -0.2412  0.4005
  857TIP3   OH223985   5.217   1.429  13.504 -0.0955 -0.1282  0.0590
  857TIP3    H123986   5.213   1.343  13.463  0.0369  0.7300 -1.8430
  857TIP3    H223987   5.147   1.427  13.569 -0.6953 -1.3540 -0.5767
  858TIP3   OH223988   5.413   4.751   3.773 -0.3000 -0.1077  0.4746
  858TIP3    H123989   5.361   4.831   3.771 -3.0036 -1.7571  0.1572
  858TIP3    H223990   5.485   4.767   3.712 -0.3559  2.3112  0.9791
  859TIP3   OH223991   3.711   6.059   4.228  0.6367 -0.3433  0.3617
  859TIP3    H123992   3.799   6.032   4.255  1.1354  0.7797 -0.0511
  859TIP3    H223993   3.705   6.150   4.256 -0.4240 -0.4249  0.4300
  860TIP3   OH223994   1.648   0.482  12.836  0.0613  0.2645 -0.3541
  860TIP3    H123995   1.717   0.443  12.782  0.9187  0.8661  0.2780
  860TIP3    H223996   1.629   0.416  12.901  3.3285  1.6558  2.3277
  861TIP3   OH223997   4.842   0.804   4.148 -0.1705  0.7985 -0.0879
  861TIP3    H123998   4.811   0.727   4.195 -2.0174  0.0086 -2.4132
  861TIP3    H223999   4.880   0.770   4.067 -1.6807  2.2951 -1.5033
  862TIP3   OH224000   1.343   6.736  15.884 -0.1139  0.2049 -0.0192
  862TIP3    H124001   1.365   6.813  15.832 -3.1569 -0.6670 -2.9600
  862TIP3    H224002   1.262   6.760  15.930 -0.8911 -1.0395 -0.6804
  863TIP3   OH224003   1.604   6.162  15.416  0.2538  0.8525  0.1745
  863TIP3    H124004   1.668   6.092  15.406  0.5827  1.3995 -2.1079
  863TIP3    H224005   1.520   6.116  15.420  0.6145  0.2383  1.0357
  864TIP3   OH224006   0.703   1.796  11.542  0.7450 -0.0906 -0.7314
  864TIP3    H124007   0.761   1.872  11.544 -1.2915  1.5493  1.2458
  864TIP3    H224008   0.673   1.791  11.451  1.0837  1.3688 -0.9495
  865TIP3   OH224009   5.731   3.322   3.551 -0.0942 -0.0686  0.6940
  865TIP3    H124010   5.671   3.257   3.587 -2.0591  0.3809 -1.5548
  865TIP3    H224011   5.761   3.285   3.468 -0.9321  1.6236 -0.4307
  866TIP3   OH224012   6.203   0.390   5.194 -0.0739  0.1046  0.1717
  866TIP3    H124013   6.151   0.332   5.249  0.9413 -0.7196  0.3078
  866TIP3    H224014   6.285   0.402   5.244  0.3135  0.4618 -0.5358
  867TIP3   OH224015   3.199   5.166   5.604  0.0359  0.3567  0.0178
  867TIP3    H124016   3.120   5.135   5.558  0.2506 -0.3023  0.0770
  867TIP3    H224017   3.168   5.189   5.691  0.3425 -2.8044  1.1227
  868TIP3   OH224018   1.795   0.270  16.858 -0.0721  0.1299  0.4718
  868TIP3    H124019   1.752   0.198  16.812  2.8038 -0.1725 -1.9857
  868TIP3    H224020   1.819   0.234  16.943 -3.8320  0.1334  1.7491
  869TIP3   OH224021   3.004   5.269  13.656 -0.1023 -0.6141  0.0314
  869TIP3    H124022   2.910   5.255  13.666 -0.0433 -0.3557  1.0650
  869TIP3    H224023   3.043   5.232  13.735  0.5981 -0.1167 -0.0656
  870TIP3   OH224024   0.050   4.487  16.833 -0.4552  0.4253 -0.3311
  870TIP3    H124025   0.070   4.535  16.914 -0.4621  0.8917 -0.6020
  870TIP3    H224026   0.037   4.396  16.862  0.8847  0.3185  0.0254
  871TIP3   OH224027   4.355   5.855  12.550 -0.0877 -0.4821  0.4913
  871TIP3    H124028   4.263   5.830  12.559  0.3556 -2.7242 -0.6125
  871TIP3    H224029   4.353   5.950  12.534 -2.3751 -0.7810 -1.5377
  872TIP3   OH224030   1.987   5.544   0.267  0.2753  0.2446 -0.2171
  872TIP3    H124031   1.901   5.578   0.244 -0.2919  0.0800  1.5189
  872TIP3    H224032   2.029   5.617   0.314  0.0865 -0.4756  1.1391
  873TIP3   OH224033   3.633   4.400  13.200  0.7636  0.2599 -0.4487
  873TIP3    H124034   3.602   4.436  13.283  0.0484 -1.4777  0.0860
  873TIP3    H224035   3.587   4.317  13.192  1.2461  0.1459 -2.3322
  874TIP3   OH224036   0.272   1.576  13.343  0.0689  0.2270  0.4343
  874TIP3    H124037   0.342   1.632  13.377 -0.5130  1.0344  0.3199
  874TIP3    H224038   0.282   1.493  13.390 -0.0576  0.9616  1.7780
  875TIP3   OH224039   3.674   0.427  16.674  0.3913 -0.1994  0.0472
  875TIP3    H124040   3.581   0.424  16.696  0.3434  0.2831 -0.0802
  875TIP3    H224041   3.719   0.411  16.757  0.2040  0.7064  0.3345
  876TIP3   OH224042   5.962   0.125   0.303  0.6096 -0.3542 -0.3370
  876TIP3    H124043   6.050   0.106   0.337 -0.6095 -1.2384  2.6948
  876TIP3    H224044   5.971   0.208   0.256  3.0623 -0.4781 -0.2028
  877TIP3   OH224045   5.555   4.309   3.990 -0.7003  0.2352  0.0965
  877TIP3    H124046   5.602   4.372   4.045 -0.0710  0.6707 -0.9014
  877TIP3    H224047   5.557   4.347   3.903 -0.5505 -1.0304 -0.4869
  878TIP3   OH224048   1.011   0.756   1.378  0.5548 -0.3022  0.1073
  878TIP3    H124049   0.981   0.845   1.391  0.1425 -0.5393  0.8736
  878TIP3    H224050   0.983   0.733   1.290 -0.1542  0.0058  0.2494
  879TIP3   OH224051   3.884   0.675   4.269 -0.0522  0.7320  0.5113
  879TIP3    H124052   3.930   0.748   4.228  0.2759  0.2900  0.0788
  879TIP3    H224053   3.932   0.659   4.350 -1.0437  1.9761  1.3799
  880TIP3   OH224054   3.452   5.729  16.987  0.0229  0.0027 -0.3925
  880TIP3    H124055   3.389   5.659  16.968 -1.0408  0.0838  2.3525
  880TIP3    H224056   3.506   5.694  17.059  0.9267  1.1900 -0.4580
  881TIP3   OH224057   5.807   6.346   0.982  0.2468 -0.0810  0.1171
  881TIP3    H124058   5.755   6.397   0.920  0.6603  0.7761  0.4643
  881TIP3    H224059   5.890   6.393   0.989 -0.0859  0.3148  1.9301
  882TIP3   OH224060   5.869   4.600   1.511  0.1256  0.1041 -0.4652
  882TIP3    H124061   5.901   4.641   1.431 -0.6094  2.1237  0.2274
  882TIP3    H224062   5.791   4.650   1.534  0.3202 -0.4317  1.5292
  883TIP3   OH224063   5.839   0.690  11.019  0.4498  0.3147  0.5950
  883TIP3    H124064   5.932   0.695  11.000  0.1346  1.4905 -0.7580
  883TIP3    H224065   5.807   0.617  10.966  0.1755  1.4810 -0.8882
  884TIP3   OH224066   4.331   3.662   1.473 -0.0067 -0.3158 -0.1540
  884TIP3    H124067   4.307   3.653   1.565 -1.0160 -1.3337 -0.4994
  884TIP3    H224068   4.387   3.587   1.455 -0.3199 -0.4685 -0.5160
  885TIP3   OH224069   0.703   1.025  13.357 -0.3382  0.9942  0.0323
  885TIP3    H124070   0.707   1.013  13.262  0.2463 -0.2278  0.2020
  885TIP3    H224071   0.612   1.003  13.379 -0.1887  0.1743 -0.1170
  886TIP3   OH224072   4.598   3.349  12.206 -0.1282 -0.0107  0.2126
  886TIP3    H124073   4.671   3.384  12.155 -0.3151 -0.5414 -0.4460
  886TIP3    H224074   4.565   3.276  12.153 -2.6689  1.6656 -0.7434
  887TIP3   OH224075   2.217   4.104  16.140  0.2633 -0.4658  0.1053
  887TIP3    H124076   2.212   4.129  16.233 -0.8023 -1.5451  0.3595
  887TIP3    H224077   2.293   4.152  16.107  1.0719 -0.5635  1.7007
  888TIP3   OH224078   2.674   1.504   4.289 -0.9754 -0.1912  0.1895
  888TIP3    H124079   2.710   1.551   4.213 -0.4348  1.4574  1.4073
  888TIP3    H224080   2.622   1.570   4.335 -1.2201 -1.1365  1.2956
  889TIP3   OH224081   4.722   4.269  13.586 -0.6743  0.6569 -0.5211
  889TIP3    H124082   4.635   4.307  13.574 -0.5182  0.5353 -2.4130
  889TIP3    H224083   4.782   4.343  13.577 -0.5532  0.7361  0.7555
  890TIP3   OH224084   6.213   0.032   0.388 -0.3372 -0.0124  0.3357
  890TIP3    H124085   6.252   0.025   0.301 -0.8088  0.9962  0.0298
  890TIP3    H224086   6.162  -0.049   0.398 -0.3895 -0.0728 -0.3829
  891TIP3   OH224087   6.726   2.132   1.988  0.1895 -0.3162  0.4521
  891TIP3    H124088   6.666   2.120   1.914  1.3312 -0.2150 -0.5222
  891TIP3    H224089   6.788   2.198   1.957  0.2125  0.3354  1.8201
  892TIP3   OH224090   0.628   0.233   5.766 -0.0634 -0.3562  0.1877
  892TIP3    H124091   0.609   0.182   5.844  1.3268  0.1318  0.8796
  892TIP3    H224092   0.565   0.305   5.769  0.7254  0.3259  1.5372
  893TIP3   OH224093   6.536   0.921   5.378  0.6659  0.5859  0.1981
  893TIP3    H124094   6.616   0.885   5.342  0.9068  1.5968 -0.3106
  893TIP3    H224095   6.496   0.968   5.305 -1.4694 -1.5865 -0.1690
  894TIP3   OH224096   3.697   1.865  15.954  0.1361 -0.1027  0.1438
  894TIP3    H124097   3.668   1.782  15.993  0.7259 -0.0800  0.6275
  894TIP3    H224098   3.618   1.901  15.913 -0.2877 -0.5413  0.5719
  895TIP3   OH224099   2.010   4.034  16.716 -0.0487  0.4043 -0.1726
  895TIP3    H124100   1.972   3.954  16.753  0.1719 -0.1500 -1.0899
  895TIP3    H224101   1.957   4.051  16.638 -0.1246  1.1863  0.0493
  896TIP3   OH224102   4.139   3.765  14.838  0.1328  0.2400  0.1715
  896TIP3    H124103   4.098   3.769  14.752 -0.4782  1.7147  0.4935
  896TIP3    H224104   4.160   3.673  14.851 -0.1670 -0.0633 -1.3634
  897TIP3   OH224105   5.895   1.121  11.169 -0.1483  0.2506  0.4614
  897TIP3    H124106   5.988   1.112  11.150 -0.4069  1.5001 -1.6874
  897TIP3    H224107   5.892   1.150  11.261  1.5041 -0.6462  0.8306
  898TIP3   OH224108   4.678   5.852  13.718 -0.4267 -0.1509 -0.3664
  898TIP3    H124109   4.702   5.900  13.798 -4.3018 -0.8890  1.4529
  898TIP3    H224110   4.680   5.919  13.650  1.4469  0.8644  0.5903
  899TIP3   OH224111   1.465   4.254   0.522 -0.1928 -0.3397 -0.1211
  899TIP3    H124112   1.547   4.210   0.502  0.6198  1.6786 -1.5651
  899TIP3    H224113   1.402   4.218   0.460  0.0448 -0.6035 -0.2094
  900TIP3   OH224114   5.982   0.786  12.990  0.0983  0.1029 -0.2079
  900TIP3    H124115   5.977   0.867  12.938  1.0485  0.3258  0.0281
  900TIP3    H224116   6.075   0.765  12.992 -0.2139 -1.5147 -1.0348
  901TIP3   OH224117   3.455   5.961  15.042  0.2078  0.8624  0.1862
  901TIP3    H124118   3.471   6.033  14.981  1.5316  0.4014 -0.0364
  901TIP3    H224119   3.427   5.888  14.988 -1.2827  1.2151  0.4279
  902TIP3   OH224120   1.569   4.982  13.260  0.2954 -0.2750 -0.7781
  902TIP3    H124121   1.643   5.038  13.235  0.7207 -0.1366  0.7158
  902TIP3    H224122   1.583   4.902  13.210 -0.2631  0.8423 -2.8752
  903TIP3   OH224123   1.142   5.171  13.816 -0.6767 -0.7976 -0.6349
  903TIP3    H124124   1.067   5.124  13.780 -0.2179 -1.7350 -0.3913
  903TIP3    H224125   1.206   5.103  13.835 -1.0547 -0.4183  2.3779
  904TIP3   OH224126   0.737   5.792   4.061 -0.3814  0.4902 -0.8308
  904TIP3    H124127   0.760   5.707   4.022 -1.5419  0.4689 -1.4870
  904TIP3    H224128   0.755   5.779   4.155  0.0149 -0.2849 -0.9980
  905TIP3   OH224129   5.257   5.070  12.901  0.3138  0.3645  0.5869
  905TIP3    H124130   5.283   5.161  12.893 -0.3659  0.5655  0.6102
  905TIP3    H224131   5.245   5.056  12.995  2.2511 -0.2860  0.7870
  906TIP3   OH224132   6.404   5.901  14.168 -1.0582 -0.0703 -0.3088
  906TIP3    H124133   6.462   5.834  14.203 -1.9890 -1.3698 -1.1466
  906TIP3    H224134   6.446   5.984  14.191  0.5179 -0.9405  0.1034
  907TIP3   OH224135   4.890   4.243  12.103  0.3435  0.0825 -0.4541
  907TIP3    H124136   4.951   4.181  12.143  0.7231  0.8831  0.2277
  907TIP3    H224137   4.901   4.231  12.009  2.3195  0.9144 -0.3676
  908TIP3   OH224138   1.538   0.136  15.183  0.4623 -0.1439  0.1318
  908TIP3    H124139   1.455   0.173  15.154  1.7192  0.3310 -3.3187
  908TIP3    H224140   1.525   0.041  15.179  0.6109 -0.1389 -2.6119
  909TIP3   OH224141   6.178   0.579  13.780 -0.0764  0.0622 -0.6487
  909TIP3    H124142   6.239   0.651  13.798 -0.3608  0.2476 -0.4017
  909TIP3    H224143   6.175   0.574  13.684  1.0704 -0.6009 -0.6700
  910TIP3   OH224144   5.910   3.058   3.479 -0.7830  0.1647  0.2006
  910TIP3    H124145   5.852   3.074   3.405  0.1658 -0.0749 -0.6101
  910TIP3    H224146   5.973   3.129   3.476 -0.7662  0.1827  0.8175
  911TIP3   OH224147   4.885   4.612  12.761  0.1997  0.4849 -0.8143
  911TIP3    H124148   4.843   4.698  12.755  0.2662  0.6021  0.2205
  911TIP3    H224149   4.975   4.631  12.790 -0.0000  0.0356  0.1454
  912TIP3   OH224150   3.198   0.577   3.511 -0.0574  0.4072 -0.1307
  912TIP3    H124151   3.271   0.584   3.571 -0.1798  0.2402  0.0382
  912TIP3    H224152   3.123   0.554   3.566 -0.2609  0.6888 -0.2846
  913TIP3   OH224153   6.393   2.044   0.686  0.6365 -0.0105 -0.1764
  913TIP3    H124154   6.364   2.080   0.602  1.9017  1.0654 -0.1851
  913TIP3    H224155   6.471   1.992   0.665 -0.0155 -1.1505  0.1222
  914TIP3   OH224156   5.474   3.430  12.121  0.1264 -0.1968 -0.2827
  914TIP3    H124157   5.451   3.498  12.185  2.7654  0.2844  0.2907
  914TIP3    H224158   5.460   3.348  12.167  0.7935  0.1147  0.5113
  915TIP3   OH224159   5.943   2.612   1.636 -0.1484 -0.3155  0.0534
  915TIP3    H124160   5.989   2.533   1.664  0.5462  0.0753  0.0472
  915TIP3    H224161   6.001   2.651   1.570 -1.3638 -0.7815 -1.3289
  916TIP3   OH224162   5.859   6.610   2.050  0.0776 -0.0127  0.2430
  916TIP3    H124163   5.873   6.671   1.978  0.2055 -1.2372 -0.8016
  916TIP3    H224164   5.934   6.626   2.109  1.0785 -0.3674 -0.8926
  917TIP3   OH224165   4.385   2.744  16.303 -0.3244  0.3519 -0.4528
  917TIP3    H124166   4.301   2.784  16.327 -1.1273 -1.1326 -0.6554
  917TIP3    H224167   4.385   2.660  16.349  1.0489  0.3061 -0.4975
  918TIP3   OH224168   4.675   1.051   2.521  0.2252  0.0061  0.2191
  918TIP3    H124169   4.583   1.041   2.544  0.1799  1.6252  0.8787
  918TIP3    H224170   4.720   1.060   2.606  0.9276 -0.2998 -0.1115
  919TIP3   OH224171   6.153   3.741   1.241  0.2113  0.4986 -0.1261
  919TIP3    H124172   6.175   3.774   1.154 -0.5289 -1.2628 -1.0281
  919TIP3    H224173   6.232   3.694   1.269 -0.1811 -0.5350 -0.6901
  920TIP3   OH224174   6.515   3.803  17.261  0.1510  0.6365 -0.1088
  920TIP3    H124175   6.508   3.738  17.191  0.0846 -0.6319  1.0329
  920TIP3    H224176   6.424   3.825  17.281  0.1531  0.6448 -0.1076
  921TIP3   OH224177   6.625   4.452   6.353  0.0171 -0.4501  0.2805
  921TIP3    H124178   6.678   4.391   6.301 -1.1002 -0.1349 -1.3203
  921TIP3    H224179   6.681   4.476   6.427  0.9072 -2.5093  0.3351
  922TIP3   OH224180   4.586   1.386  14.172 -1.0874  0.0724 -0.1607
  922TIP3    H124181   4.554   1.313  14.120 -0.6716 -1.1298  1.2126
  922TIP3    H224182   4.648   1.431  14.116 -0.7407 -1.1114 -0.7503
  923TIP3   OH224183   6.435   4.893  12.598  0.4052  0.2555  0.2582
  923TIP3    H124184   6.497   4.955  12.636  0.8126 -0.8668  1.4852
  923TIP3    H224185   6.389   4.944  12.530  0.5331  1.9576  1.3915
  924TIP3   OH224186   0.879   5.055   0.317 -0.9806  0.1471  0.0018
  924TIP3    H124187   0.951   5.036   0.378  0.7416  0.4741 -1.8115
  924TIP3    H224188   0.817   4.983   0.330 -1.0580  0.6076  2.6185
  925TIP3   OH224189   6.392   2.815   0.468 -0.0101 -0.3407 -0.0537
  925TIP3    H124190   6.329   2.864   0.522 -1.3180 -1.1148 -0.8215
  925TIP3    H224191   6.434   2.755   0.529  1.1212  1.2116  0.7683
  926TIP3   OH224192   2.647   6.325   4.300 -0.1490  0.2773  0.4478
  926TIP3    H124193   2.738   6.298   4.300  0.7627  2.9847 -0.8098
  926TIP3    H224194   2.641   6.391   4.368 -1.3071 -0.1831  0.8205
  927TIP3   OH224195   0.394   1.703  12.299 -0.2112 -0.5113  0.0719
  927TIP3    H124196   0.410   1.707  12.205 -0.3454  0.4729  0.0737
  927TIP3    H224197   0.481   1.713  12.338 -0.0813 -1.5083  0.0593
  928TIP3   OH224198   3.224   2.627  11.502 -0.3808 -0.3552  0.9779
  928TIP3    H124199   3.292   2.647  11.567  0.0539  1.5726 -0.0068
  928TIP3    H224200   3.261   2.656  11.419 -2.2566  0.4088  0.3674
  929TIP3   OH224201   6.318   3.720  14.688 -0.1336  0.2393 -0.4433
  929TIP3    H124202   6.291   3.644  14.636 -1.4173  0.6870 -0.4582
  929TIP3    H224203   6.302   3.795  14.630  1.3327  0.5316 -0.5133
  930TIP3   OH224204   1.755   3.738  17.125 -0.7216  0.1140 -0.3679
  930TIP3    H124205   1.681   3.685  17.095 -1.4578  1.0402 -0.2581
  930TIP3    H224206   1.718   3.792  17.196 -0.1587  1.1804 -0.8587
  931TIP3   OH224207   4.900   1.650   1.296  0.2658 -0.2274  0.1999
  931TIP3    H124208   4.831   1.668   1.360  0.1318  0.0487 -0.0197
  931TIP3    H224209   4.902   1.555   1.289  1.5503 -0.3696  1.9887
  932TIP3   OH224210   6.323   3.486   0.817  0.3780 -0.2493 -0.3446
  932TIP3    H124211   6.256   3.439   0.767 -0.0494 -0.1439  0.1169
  932TIP3    H224212   6.273   3.542   0.876  0.8403  1.9636 -1.9196
  933TIP3   OH224213   6.614   5.947   5.819  0.5319 -0.4263  0.6724
  933TIP3    H124214   6.682   5.956   5.752  0.0720  0.8148  0.3425
  933TIP3    H224215   6.594   5.853   5.820  0.8374 -0.5320 -0.6379
  934TIP3   OH224216   3.773   3.423  15.755 -0.1015  0.5489 -0.3075
  934TIP3    H124217   3.840   3.364  15.721  1.0335 -1.3855  4.4086
  934TIP3    H224218   3.690   3.381  15.732  0.5218 -0.3706 -0.9700
  935TIP3   OH224219   5.713   6.700   3.775 -0.0274 -0.2339  0.3227
  935TIP3    H124220   5.676   6.692   3.688 -0.7685  0.0044  0.6068
  935TIP3    H224221   5.727   6.610   3.804 -0.0662 -0.3181  0.0803
  936TIP3   OH224222   0.767   5.105  16.636  0.0722  0.0894 -0.3582
  936TIP3    H124223   0.850   5.137  16.671 -0.2727  0.7270 -0.1234
  936TIP3    H224224   0.767   5.011  16.657  0.8684  0.0196 -0.6349
  937TIP3   OH224225   5.365   0.770   2.531 -0.3425  0.0552 -0.0676
  937TIP3    H124226   5.428   0.825   2.577 -0.6780  0.7989 -0.4847
  937TIP3    H224227   5.377   0.683   2.570  1.7921 -0.1122 -0.9731
  938TIP3   OH224228   2.506   5.711   5.638 -0.1485 -0.0940 -0.0271
  938TIP3    H124229   2.443   5.668   5.696 -0.4270  0.1995 -0.1074
  938TIP3    H224230   2.506   5.657   5.559  1.5379 -1.5134  0.8726
  939TIP3   OH224231   0.351   3.474  13.510  0.0416  0.3238 -0.1285
  939TIP3    H124232   0.304   3.401  13.551  0.8217 -0.5336 -0.7209
  939TIP3    H224233   0.324   3.471  13.419  0.3327  0.5645 -0.2232
  940TIP3   OH224234   5.819   0.210  11.650  0.2597  0.3769 -0.2017
  940TIP3    H124235   5.884   0.262  11.697  0.3317  0.3917 -0.3179
  940TIP3    H224236   5.746   0.202  11.712 -0.8194  2.7349 -1.0327
  941TIP3   OH224237   5.072   3.869   6.044 -0.4340 -0.4891  0.3364
  941TIP3    H124238   5.099   3.873   6.136 -0.2154  0.8114  0.2248
  941TIP3    H224239   4.983   3.903   6.043  0.1412  1.0662 -0.1422
  942TIP3   OH224240   6.344   1.919   4.476 -0.7596 -0.0440  0.2907
  942TIP3    H124241   6.391   1.888   4.553 -0.6177  1.4812  0.8611
  942TIP3    H224242   6.261   1.871   4.476 -0.4074 -0.6581  0.9168
  943TIP3   OH224243   1.125   3.571   2.252  0.0951  0.3229 -0.2643
  943TIP3    H124244   1.187   3.566   2.325 -1.7718 -0.1951  1.3505
  943TIP3    H224245   1.039   3.576   2.293 -0.9210  2.8621 -2.4007
  944TIP3   OH224246   3.577   0.964   6.378  0.2086 -0.6358 -0.0359
  944TIP3    H124247   3.520   0.954   6.455  1.1108 -0.4527  0.6739
  944TIP3    H224248   3.534   1.033   6.326  0.0259 -0.1599  0.7241
  945TIP3   OH224249   2.414   0.211   3.161  0.4057 -0.2708  0.2720
  945TIP3    H124250   2.477   0.155   3.207  0.3242 -0.3928  0.2369
  945TIP3    H224251   2.385   0.273   3.227 -2.4744 -2.6781  1.5223
  946TIP3   OH224252   1.836   1.066  13.869  0.0267  0.4474 -0.0638
  946TIP3    H124253   1.881   0.998  13.919 -0.0382  0.8206  0.5055
  946TIP3    H224254   1.897   1.087  13.798  2.1448  2.9351  2.2283
  947TIP3   OH224255   4.982   2.136  11.911 -0.2936  0.1699  0.7116
  947TIP3    H124256   4.891   2.108  11.900 -0.2523  1.1462 -4.1959
  947TIP3    H224257   5.032   2.055  11.899 -0.4434  0.0664  0.7653
  948TIP3   OH224258   4.023   0.747  15.412  0.5792 -0.4975 -0.3096
  948TIP3    H124259   3.937   0.789  15.419  0.5748 -0.5796  0.1695
  948TIP3    H224260   4.086   0.819  15.425  0.5721 -0.6107  0.4040
  949TIP3   OH224261   6.702   5.925   3.368  0.6197  0.2112  1.2076
  949TIP3    H124262   6.761   5.980   3.419 -0.0972  0.4958  1.7413
  949TIP3    H224263   6.720   5.948   3.277  2.1672 -0.5654  1.2889
  950TIP3   OH224264   4.369   0.882   2.949 -0.2296  0.0023 -0.2812
  950TIP3    H124265   4.443   0.909   3.003 -0.8828  0.0393  0.6151
  950TIP3    H224266   4.339   0.963   2.906  1.0695 -0.2418 -1.7069
  951TIP3   OH224267   1.521   4.974  17.136 -0.3719  0.1622  0.3372
  951TIP3    H124268   1.468   4.898  17.114 -1.9705  1.6235 -1.2497
  951TIP3    H224269   1.610   4.951  17.110 -0.9166 -0.9938 -0.5639
  952TIP3   OH224270   0.977   3.587   0.969  0.3152 -0.2914  0.1359
  952TIP3    H124271   0.937   3.665   0.931  0.4845 -0.2047  0.1361
  952TIP3    H224272   1.066   3.585   0.934  0.1070 -0.8512 -0.3907
  953TIP3   OH224273   5.001   1.438   6.342 -0.4732 -0.1267 -0.3008
  953TIP3    H124274   4.953   1.462   6.263 -0.1739 -1.3556 -0.8702
  953TIP3    H224275   4.934   1.409   6.403 -0.5326 -1.4957 -0.9700
  954TIP3   OH224276   3.923   2.534  12.319 -0.2213  0.1061  0.6578
  954TIP3    H124277   3.834   2.537  12.284  0.1073  0.6851 -0.1465
  954TIP3    H224278   3.971   2.478  12.259  0.4689  1.5028 -0.1335
  955TIP3   OH224279   4.595   0.961   3.096  0.5660 -0.2826 -0.3993
  955TIP3    H124280   4.582   0.925   3.183 -0.6158 -0.7421 -0.7421
  955TIP3    H224281   4.689   0.977   3.090  0.9391 -2.0187  0.2728
  956TIP3   OH224282   5.521   3.468   2.508  0.1211 -0.4362  0.0363
  956TIP3    H124283   5.611   3.500   2.499 -0.0647  0.0286 -0.2243
  956TIP3    H224284   5.512   3.445   2.600 -0.4546  2.5699  0.8314
  957TIP3   OH224285   5.539   4.224  11.992 -0.9458 -0.4783  0.3427
  957TIP3    H124286   5.514   4.316  11.977 -0.5356 -0.4097  0.0587
  957TIP3    H224287   5.469   4.173  11.952 -0.9360 -0.2853  0.0720
  958TIP3   OH224288   1.557   5.597   0.623  0.6511  0.1370  0.2390
  958TIP3    H124289   1.505   5.631   0.551 -1.3073 -1.4162  0.8283
  958TIP3    H224290   1.495   5.591   0.696  2.0909 -0.1796  1.4841
  959TIP3   OH224291   3.777   2.400  14.935  0.2037 -0.3056 -0.2095
  959TIP3    H124292   3.756   2.353  15.016  2.8778 -0.4668  0.4702
  959TIP3    H224293   3.841   2.344  14.891  0.6802  0.9785 -1.1962
  960TIP3   OH224294   2.660   5.260   1.794  0.3877 -0.7140  0.2802
  960TIP3    H124295   2.613   5.178   1.785 -0.8095  0.0469 -0.8049
  960TIP3    H224296   2.591   5.326   1.808  1.1461  0.3375 -0.6877
  961TIP3   OH224297   5.339   0.268   4.854  0.7236 -0.0656 -0.2783
  961TIP3    H124298   5.249   0.289   4.829  2.5252  4.1195 -4.9861
  961TIP3    H224299   5.344   0.295   4.946 -2.6528 -0.1558  0.0793
  962TIP3   OH224300   2.071   3.668  13.068  0.1061 -0.1369 -0.2367
  962TIP3    H124301   2.132   3.742  13.069  0.9482 -0.6812 -3.1720
  962TIP3    H224302   2.032   3.669  13.155  1.4759  2.5808  0.4677
  963TIP3   OH224303   6.366   0.869   2.780  0.6074  0.1425  0.0285
  963TIP3    H124304   6.308   0.886   2.854 -0.0520  0.3528 -0.5260
  963TIP3    H224305   6.343   0.936   2.716 -0.0056 -1.0509 -1.0281
  964TIP3   OH224306   3.160   6.530  12.478 -0.2244 -0.4108 -0.8061
  964TIP3    H124307   3.232   6.540  12.540 -0.0890 -2.4385 -0.5495
  964TIP3    H224308   3.136   6.619  12.454  1.4599  0.3495  0.1462
  965TIP3   OH224309   0.965   5.646  11.918 -0.3124 -0.6428  0.0312
  965TIP3    H124310   0.885   5.699  11.922 -1.3604 -2.2080  0.6815
  965TIP3    H224311   0.999   5.662  11.830 -0.9972  0.5175 -0.0508
  966TIP3   OH224312   4.956   0.309  11.333 -0.0426  0.5737  0.4100
  966TIP3    H124313   5.025   0.255  11.295 -1.1251 -0.3679 -0.2521
  966TIP3    H224314   4.903   0.248  11.385 -0.7905  1.1508  0.3400
  967TIP3   OH224315   1.849   3.692   4.741  0.3504  0.0655  0.5457
  967TIP3    H124316   1.841   3.613   4.688  0.9617  0.4866 -0.2013
  967TIP3    H224317   1.939   3.691   4.773  0.4695  0.6233  0.2482
  968TIP3   OH224318   5.558   3.272   5.324  0.0661  0.4111 -0.3012
  968TIP3    H124319   5.602   3.203   5.373 -2.0001 -2.3114 -2.0106
  968TIP3    H224320   5.629   3.323   5.285  1.7468 -2.2694 -0.9801
  969TIP3   OH224321   2.774   2.823  15.489 -0.1413 -0.5638  0.5868
  969TIP3    H124322   2.688   2.838  15.450 -0.0038  2.3403  1.2251
  969TIP3    H224323   2.813   2.910  15.496  2.3739 -1.6754  1.4582
  970TIP3   OH224324   1.155   4.356  15.435  0.2651 -0.1100 -0.0050
  970TIP3    H124325   1.143   4.262  15.419 -0.1991 -0.1060  0.2911
  970TIP3    H224326   1.245   4.364  15.466 -0.5822 -0.8739  2.9104
  971TIP3   OH224327   3.141   1.633  16.620 -0.3636 -0.3155  0.5894
  971TIP3    H124328   3.144   1.538  16.609  1.0364 -0.3829  1.4101
  971TIP3    H224329   3.134   1.646  16.714  1.8072  0.3830  0.7141
  972TIP3   OH224330   0.661   2.171   3.959  0.3726  0.4117 -0.6934
  972TIP3    H124331   0.715   2.187   4.036 -0.1245  0.9145 -0.4349
  972TIP3    H224332   0.723   2.148   3.890  1.0759  2.3280 -0.7745
  973TIP3   OH224333   2.110   3.498  13.356 -0.1551  0.4006  0.6802
  973TIP3    H124334   2.073   3.585  13.371  1.3011  1.2468 -0.3872
  973TIP3    H224335   2.180   3.490  13.421  1.1503  0.9625 -0.6017
  974TIP3   OH224336   6.650   3.495  14.137  0.3175  0.5600  0.1667
  974TIP3    H124337   6.658   3.581  14.096  1.6790 -0.1315 -1.1018
  974TIP3    H224338   6.666   3.433  14.067 -2.4096 -0.8452  0.6225
  975TIP3   OH224339   0.313   5.118   2.154 -0.4669 -0.2318 -0.4116
  975TIP3    H124340   0.399   5.074   2.151  0.2185  1.0684 -0.6915
  975TIP3    H224341   0.317   5.170   2.234 -0.9128  0.0006 -0.5422
  976TIP3   OH224342   1.072   5.757  15.428  0.3125  0.4771  0.1752
  976TIP3    H124343   1.160   5.719  15.425  0.3331  0.5591 -0.5793
  976TIP3    H224344   1.015   5.684  15.447  0.4337  0.2008 -0.4896
  977TIP3   OH224345   2.015   4.097   3.179 -0.3881  0.3103 -0.9466
  977TIP3    H124346   1.993   4.116   3.088  0.1746  0.4712 -1.0542
  977TIP3    H224347   1.936   4.118   3.228  0.6047  4.5424 -0.8403
  978TIP3   OH224348   5.584   5.352   0.960 -0.3389 -0.2922 -0.3346
  978TIP3    H124349   5.591   5.345   0.865 -2.0134 -1.6718 -0.4008
  978TIP3    H224350   5.674   5.370   0.989  0.2112  0.0783 -2.1555
  979TIP3   OH224351   3.395   6.398   2.825 -0.5443  0.3866 -0.5201
  979TIP3    H124352   3.319   6.350   2.793 -0.4946  0.5204 -0.8351
  979TIP3    H224353   3.403   6.370   2.917 -1.2764  0.7560 -0.3377
  980TIP3   OH224354   2.678   6.759  12.735  0.8068  0.2736 -0.0407
  980TIP3    H124355   2.653   6.774  12.644  0.3542 -1.3846 -0.2337
  980TIP3    H224356   2.748   6.694  12.730  0.4050 -0.2473  0.7917
  981TIP3   OH224357   2.605   2.423  14.996  0.1976  0.1532  0.2275
  981TIP3    H124358   2.577   2.487  14.931 -1.8685 -0.4486  0.4654
  981TIP3    H224359   2.619   2.343  14.946  0.8235  0.2621  0.2201
  982TIP3   OH224360   1.914   3.331  13.840 -0.2501  0.0810 -0.6043
  982TIP3    H124361   1.870   3.384  13.906 -1.2366 -0.9502 -0.4105
  982TIP3    H224362   1.964   3.267  13.891  0.0597  0.1242 -0.8501
  983TIP3   OH224363   5.560   2.328  15.641 -0.0630  0.0308  0.0219
  983TIP3    H124364   5.487   2.388  15.656 -0.6611 -0.7091  0.1186
  983TIP3    H224365   5.622   2.379  15.589 -0.1329  1.0356  0.8963
  984TIP3   OH224366   5.119   4.739   4.026  0.0167  0.4548  0.3592
  984TIP3    H124367   5.111   4.832   4.044  0.4122  0.3695  0.9956
  984TIP3    H224368   5.123   4.733   3.931  0.1445  1.0991  0.3224
  985TIP3   OH224369   3.477   5.724   0.530  0.1492  0.7368  0.1071
  985TIP3    H124370   3.422   5.707   0.453 -0.9062  0.5528  0.8673
  985TIP3    H224371   3.531   5.645   0.538 -1.0860 -0.0955  0.6295
  986TIP3   OH224372   3.924   3.638  12.055  0.6966  0.3811 -0.1281
  986TIP3    H124373   3.946   3.668  12.143 -1.2790  0.9180  0.2189
  986TIP3    H224374   3.854   3.574  12.067 -0.4018  1.2925 -1.3475
  987TIP3   OH224375   1.598   5.918   4.117 -0.5904 -0.1901 -0.0247
  987TIP3    H124376   1.559   5.885   4.198 -0.2253 -1.3055 -0.2826
  987TIP3    H224377   1.590   5.845   4.055  0.6203  0.0579 -0.5056
  988TIP3   OH224378   6.106   3.473  13.174 -0.0747  0.1533  0.1282
  988TIP3    H124379   6.103   3.456  13.080  0.0456 -2.3442  0.5107
  988TIP3    H224380   6.191   3.514  13.189  1.8116 -3.2228 -0.4131
  989TIP3   OH224381   3.119   3.003   5.503  0.8082  0.0050  0.1597
  989TIP3    H124382   3.161   2.982   5.587 -0.1617 -0.8602  0.4506
  989TIP3    H224383   3.053   2.935   5.491  0.5380  0.4451 -1.0388
  990TIP3   OH224384   0.491   2.051   2.922  0.1993  0.4991  0.1607
  990TIP3    H124385   0.521   2.037   2.832 -0.1709 -0.3298  0.1602
  990TIP3    H224386   0.546   1.992   2.974 -0.2047  0.3066  0.3684
  991TIP3   OH224387   4.873   2.451  11.686  0.0272  0.3778 -0.0971
  991TIP3    H124388   4.794   2.418  11.730  0.0162  0.6408  0.0823
  991TIP3    H224389   4.840   2.502  11.612  0.0420  0.0843 -0.3082
  992TIP3   OH224390   5.269   3.378   3.166  0.0791 -0.4353 -0.1986
  992TIP3    H124391   5.304   3.442   3.228  1.0829  0.0305 -1.2111
  992TIP3    H224392   5.202   3.426   3.117  0.1585 -0.4309 -0.3045
  993TIP3   OH224393   0.373   5.145  14.880 -0.0998 -0.2967 -0.1858
  993TIP3    H124394   0.297   5.154  14.937 -0.0264 -2.4528  0.3343
  993TIP3    H224395   0.433   5.214  14.908 -1.3474  0.6600  0.1993
  994TIP3   OH224396   2.851   6.300   3.053 -0.7194  0.1335  0.1608
  994TIP3    H124397   2.756   6.306   3.060 -0.7651 -0.5818  0.3189
  994TIP3    H224398   2.874   6.222   3.105 -0.1045  0.0142 -0.2723
  995TIP3   OH224399   4.728   1.825   5.364  0.2007 -0.0200 -0.4977
  995TIP3    H124400   4.721   1.899   5.425  1.5571 -0.9107  0.8272
  995TIP3    H224401   4.647   1.776   5.377  1.1031 -1.0509  1.8584
  996TIP3   OH224402   1.565   1.860   0.497  0.0872  0.2310  0.5850
  996TIP3    H124403   1.623   1.918   0.447  0.0643  0.3654  0.7124
  996TIP3    H224404   1.558   1.902   0.583 -2.4674  1.7514 -0.2651
  997TIP3   OH224405   4.510   5.460   5.646 -0.4596  0.1017  0.6392
  997TIP3    H124406   4.449   5.497   5.710 -0.2163  2.6353 -0.4537
  997TIP3    H224407   4.576   5.415   5.698 -1.2165  0.5645  2.0554
  998TIP3   OH224408   1.808   3.054  12.774 -0.4350 -0.3699  0.3402
  998TIP3    H124409   1.873   2.985  12.758  0.3791  0.6982 -1.3150
  998TIP3    H224410   1.820   3.115  12.700 -0.0560  2.3306  2.4737
  999TIP3   OH224411   0.351   1.897   3.188 -0.3139 -0.4786 -0.0273
  999TIP3    H124412   0.441   1.883   3.156 -1.1021 -0.4037 -2.4409
  999TIP3    H224413   0.300   1.827   3.147 -1.4576 -0.2171  0.9077
 1000TIP3   OH224414   1.506   4.222  16.163 -0.2323 -0.7086 -0.0905
 1000TIP3    H124415   1.436   4.195  16.104 -0.9947 -0.7420  0.8189
 1000TIP3    H224416   1.462   4.252  16.242  0.7308  0.3561  0.0786
 1001TIP3   OH224417   5.668   0.732   3.114  1.1588  0.3412 -0.4099
 1001TIP3    H124418   5.751   0.761   3.151  1.2030 -0.3891  0.0774
 1001TIP3    H224419   5.688   0.713   3.022  1.4879  0.3579 -0.3422
 1002TIP3   OH224420   1.370   1.218  16.446  0.1513 -0.4233 -0.0431
 1002TIP3    H124421   1.303   1.246  16.383  0.5355 -0.8220 -0.6462
 1002TIP3    H224422   1.418   1.148  16.400  0.4487 -0.7103  0.6927
 1003TIP3   OH224423   1.616   2.303   3.920 -0.0230  0.0555  0.0405
 1003TIP3    H124424   1.687   2.264   3.971  0.6218  1.4170  0.2397
 1003TIP3    H224425   1.624   2.397   3.937 -2.9799  0.1538  1.5186
 1004TIP3   OH224426   6.261   4.092   5.456  0.1300 -0.0186  0.2308
 1004TIP3    H124427   6.344   4.088   5.503  0.7369 -1.0169 -0.8547
 1004TIP3    H224428   6.200   4.041   5.509  1.0157 -1.8463 -0.3801
 1005TIP3   OH224429   4.894   0.887   1.211  0.5730 -0.7722  0.1340
 1005TIP3    H124430   4.803   0.914   1.207  0.0322 -2.3572  1.0475
 1005TIP3    H224431   4.934   0.923   1.131 -0.5523  0.8995  0.2912
 1006TIP3   OH224432   0.076   0.178  15.712 -1.2023 -0.1091 -0.0467
 1006TIP3    H124433   0.142   0.114  15.684 -1.3966 -0.2612 -0.1566
 1006TIP3    H224434   0.029   0.201  15.632  0.6101  2.2247 -0.5626
 1007TIP3   OH224435   3.515   0.128  12.983 -0.1542  0.1772  0.1885
 1007TIP3    H124436   3.610   0.137  12.980  0.0791 -1.6541  0.7969
 1007TIP3    H224437   3.490   0.165  13.068 -0.0815  1.2524 -0.2472
 1008TIP3   OH224438   5.083   3.068  16.944 -0.2975  0.7291  0.2609
 1008TIP3    H124439   5.105   2.990  16.892  0.3102  2.6113 -2.5227
 1008TIP3    H224440   5.151   3.072  17.011 -1.2934 -1.9837  1.6026
 1009TIP3   OH224441   4.637   4.023   4.560  0.2155 -0.1098 -0.5130
 1009TIP3    H124442   4.625   4.003   4.467 -0.0334  0.1196 -0.5341
 1009TIP3    H224443   4.729   4.006   4.577  0.5728  1.0931 -1.1241
 1010TIP3   OH224444   6.476   1.654   5.868 -0.1032  0.5685 -0.0369
 1010TIP3    H124445   6.430   1.618   5.792  1.8050  0.7633 -1.3709
 1010TIP3    H224446   6.413   1.713   5.909 -1.3629  0.0669 -1.1662
 1011TIP3   OH224447   0.831   2.753   3.956  0.0879 -0.1594 -0.4628
 1011TIP3    H124448   0.742   2.734   3.927  0.5836 -2.9593 -0.3908
 1011TIP3    H224449   0.832   2.731   4.049 -0.3003  4.5329  0.9438
 1012TIP3   OH224450   3.240   0.996  16.825  0.1334  0.5974  0.1654
 1012TIP3    H124451   3.160   1.045  16.844 -1.5547 -1.3334 -1.4976
 1012TIP3    H224452   3.216   0.905  16.838  1.4847 -0.1658 -2.1451
 1013TIP3   OH224453   3.946   0.484   0.051  0.2551  0.3388  0.1235
 1013TIP3    H124454   3.868   0.513   0.097  0.6412  1.6641 -0.0267
 1013TIP3    H224455   3.995   0.432   0.115 -0.0931  0.6418  0.6275
 1014TIP3   OH224456   0.715   6.757   1.369  0.3185  0.3739 -0.3468
 1014TIP3    H124457   0.741   6.687   1.309  0.5732  0.4605 -0.3368
 1014TIP3    H224458   0.782   6.757   1.436  0.0179  0.2583 -0.0425
 1015TIP3   OH224459   1.272   0.712   1.690 -0.4278  0.2354  0.4798
 1015TIP3    H124460   1.253   0.719   1.596 -1.9994  1.0987  0.8229
 1015TIP3    H224461   1.310   0.796   1.714  1.5874 -0.5850  0.3197
 1016TIP3   OH224462   1.427   0.361   5.745  0.7610 -0.0370 -0.2411
 1016TIP3    H124463   1.443   0.304   5.669  1.6573 -0.1856  0.0422
 1016TIP3    H224464   1.355   0.319   5.791 -1.7180  1.5241 -2.4447
 1017TIP3   OH224465   1.742   1.380  10.920 -0.0417  0.0979 -0.1249
 1017TIP3    H124466   1.666   1.401  10.974  0.2225 -2.8505  1.6030
 1017TIP3    H224467   1.802   1.454  10.934 -1.3445  1.0105  0.8877
 1018TIP3   OH224468   5.326   5.045  13.218  0.2790  0.4833  0.4183
 1018TIP3    H124469   5.360   5.043  13.307 -2.8402 -1.1360  1.7546
 1018TIP3    H224470   5.303   4.953  13.199  0.5357  0.8323 -1.9395
 1019TIP3   OH224471   3.737   0.492   0.240 -0.3424 -0.1187  0.7452
 1019TIP3    H124472   3.774   0.408   0.270  5.1966  2.0127  1.0484
 1019TIP3    H224473   3.701   0.531   0.318 -1.1825 -1.3733  1.0142
 1020TIP3   OH224474   5.162   4.782  12.525  0.1522 -0.1717 -0.5218
 1020TIP3    H124475   5.142   4.688  12.529 -1.1228  0.0133 -1.8475
 1020TIP3    H224476   5.099   4.822  12.585  0.4695 -0.1237 -0.2176
 1021TIP3   OH224477   1.150   5.142  13.401  0.5480 -0.2533 -0.0614
 1021TIP3    H124478   1.229   5.129  13.349  2.0026 -2.1251  2.4145
 1021TIP3    H224479   1.094   5.068  13.378  1.4305 -1.3997  1.3654
 1022TIP3   OH224480   1.019   4.515  16.827  0.5012  0.3049  0.1242
 1022TIP3    H124481   1.089   4.563  16.871  0.8651 -0.4420  0.3905
 1022TIP3    H224482   1.021   4.547  16.737 -0.3202  1.9334  0.6435
 1023TIP3   OH224483   0.458   3.935   6.245  0.4991 -0.0124  0.0290
 1023TIP3    H124484   0.437   3.843   6.260  1.1461 -0.4964 -1.7550
 1023TIP3    H224485   0.503   3.963   6.325  0.4135 -1.2694  0.5382
 1024TIP3   OH224486   4.326   5.330  13.838  0.0960 -0.4034  0.0910
 1024TIP3    H124487   4.327   5.281  13.756 -0.4588 -1.9327  0.9597
 1024TIP3    H224488   4.270   5.279  13.897 -0.7328  1.4237  0.9785
 1025TIP3   OH224489   4.531   4.701   4.496 -0.1913 -0.2345  0.1898
 1025TIP3    H124490   4.591   4.633   4.527 -0.6779 -1.0500 -0.5940
 1025TIP3    H224491   4.530   4.690   4.401 -2.7752 -1.3193  0.2574
 1026TIP3   OH224492   5.182   0.900  12.690  0.1402 -0.0425 -0.2840
 1026TIP3    H124493   5.241   0.972  12.712 -1.0073  0.4714  1.3453
 1026TIP3    H224494   5.238   0.833  12.651  1.6930  0.6432  0.7101
 1027TIP3   OH224495   0.424   5.065   0.848 -0.4240  0.2475 -0.5049
 1027TIP3    H124496   0.448   5.090   0.938  0.3202  0.6285 -0.7994
 1027TIP3    H224497   0.337   5.025   0.857  0.4197 -1.4712  0.6524
 1028TIP3   OH224498   4.385   6.122   5.910 -0.2529 -0.6055  0.1726
 1028TIP3    H124499   4.368   6.130   5.816  2.1029  2.0215 -0.1421
 1028TIP3    H224500   4.453   6.055   5.917 -0.8728 -1.2643  0.1396
 1029TIP3   OH224501   2.738   4.182   6.296  0.5548 -0.1225 -0.5284
 1029TIP3    H124502   2.810   4.221   6.346 -0.7848  1.1736  0.4788
 1029TIP3    H224503   2.691   4.257   6.260  0.1423 -0.9765 -1.8172
 1030TIP3   OH224504   0.165   2.176   1.397  0.2984 -0.1585  0.1178
 1030TIP3    H124505   0.109   2.231   1.452  0.5102 -1.8222  2.1110
 1030TIP3    H224506   0.254   2.201   1.421  0.4200 -2.0218  1.8762
 1031TIP3   OH224507   0.302   0.020   3.629 -0.5481 -0.2719 -0.4346
 1031TIP3    H124508   0.239   0.035   3.558  0.7864 -0.4984 -1.7275
 1031TIP3    H224509   0.348  -0.060   3.603  0.5048  0.0765  0.2802
 1032TIP3   OH224510   3.604   4.120   0.162  0.1198 -0.2493 -0.0536
 1032TIP3    H124511   3.557   4.041   0.187 -0.7196  0.2392 -0.0624
 1032TIP3    H224512   3.697   4.095   0.167 -0.1359 -1.4429 -0.7657
 1033TIP3   OH224513   0.573   0.646  16.980 -0.6595  0.3839 -0.1537
 1033TIP3    H124514   0.575   0.686  17.066  1.2192  1.7008 -0.7552
 1033TIP3    H224515   0.588   0.553  16.996 -3.0486  0.1269  1.0910
 1034TIP3   OH224516   5.870   4.662   5.662 -0.6736  0.3712 -0.1696
 1034TIP3    H124517   5.909   4.716   5.593  0.0988  1.9044  1.3883
 1034TIP3    H224518   5.872   4.718   5.740  0.2154 -1.9207  1.5658
 1035TIP3   OH224519   6.596   2.127   5.512  0.6392  0.7283 -0.4628
 1035TIP3    H124520   6.540   2.085   5.577  0.9561  0.2693 -0.4877
 1035TIP3    H224521   6.613   2.214   5.549  0.0851  0.7995 -0.3580
 1036TIP3   OH224522   3.308   0.628  17.155 -0.6888 -0.6506  0.1219
 1036TIP3    H124523   3.338   0.687  17.086 -1.3167  0.6643  0.9306
 1036TIP3    H224524   3.380   0.625  17.218 -0.5912 -0.8916  0.0008
 1037TIP3   OH224525   6.510   0.806   6.268 -0.3577  0.4696  0.7089
 1037TIP3    H124526   6.540   0.880   6.216 -0.5349  0.5072  0.6585
 1037TIP3    H224527   6.565   0.733   6.241  0.4398  0.7908  1.4190
 1038TIP3   OH224528   1.682   2.364  12.420 -0.1750  0.8313  0.2020
 1038TIP3    H124529   1.600   2.403  12.449 -0.6255  0.4675 -0.5688
 1038TIP3    H224530   1.690   2.390  12.328  0.3847  0.5523  0.1685
 1039TIP3   OH224531   3.564   5.560  17.190 -0.2030 -0.2559 -0.1744
 1039TIP3    H124532   3.570   5.608  17.272  0.6899  0.5419 -0.6893
 1039TIP3    H224533   3.639   5.500  17.192  0.0272  0.0160 -0.5557
 1040TIP3   OH224534   1.392   2.166   5.611  0.1144 -0.0066 -0.1444
 1040TIP3    H124535   1.412   2.259   5.621 -0.2708 -0.0976  2.1489
 1040TIP3    H224536   1.340   2.160   5.531 -0.5857  1.8777  0.1322
 1041TIP3   OH224537   2.644   1.501  17.287 -0.3045  0.0305  0.1534
 1041TIP3    H124538   2.681   1.589  17.289 -2.1852  0.8724  0.0819
 1041TIP3    H224539   2.651   1.470  17.377  0.9283 -0.0194  0.0560
 1042TIP3   OH224540   1.283   4.319  11.393  0.4925 -0.5880 -0.4516
 1042TIP3    H124541   1.255   4.388  11.332 -0.0539  1.4039  1.8961
 1042TIP3    H224542   1.361   4.283  11.352  0.0598  0.5036 -2.4216
 1043TIP3   OH224543   4.044   4.563  15.318 -0.4320 -0.2236  0.0830
 1043TIP3    H124544   4.078   4.480  15.350 -2.5418 -1.0686  0.2678
 1043TIP3    H224545   4.053   4.623  15.391 -1.7952 -1.1658  1.0794
 1044TIP3   OH224546   3.731   3.211   4.804 -0.4056 -0.1303  0.7427
 1044TIP3    H124547   3.810   3.252   4.768 -0.5814 -0.7923 -0.4440
 1044TIP3    H224548   3.764   3.135   4.853 -0.2455  0.1593  1.0913
 1045TIP3   OH224549   6.475   1.398   2.966  0.0419 -0.6054  0.0733
 1045TIP3    H124550   6.498   1.306   2.977  1.8673 -0.1597  0.3089
 1045TIP3    H224551   6.535   1.445   3.025 -0.3884  0.7820 -0.5474
 1046TIP3   OH224552   6.583   4.175   3.135 -0.2866 -0.3375 -0.3626
 1046TIP3    H124553   6.635   4.103   3.171  1.3624  1.5671  1.3568
 1046TIP3    H224554   6.512   4.187   3.197 -1.9224 -1.8490 -1.8362
 1047TIP3   OH224555   6.160   0.479  11.848  0.1773 -0.7092 -0.0213
 1047TIP3    H124556   6.230   0.521  11.798 -0.2764  0.9369  0.6663
 1047TIP3    H224557   6.206   0.425  11.912  0.7732 -1.4073 -0.9963
 1048TIP3   OH224558   1.132   0.986   2.269  0.8005 -0.7516  0.2798
 1048TIP3    H124559   1.039   1.005   2.266  0.5858 -1.8531 -0.8573
 1048TIP3    H224560   1.164   1.030   2.348 -0.5602  0.1190  0.3599
 1049TIP3   OH224561   1.325   4.631  16.037 -0.3064  0.3478 -0.4865
 1049TIP3    H124562   1.262   4.701  16.052 -1.2023 -0.4456 -0.4588
 1049TIP3    H224563   1.298   4.561  16.096  0.7647  0.0839 -0.2866
 1050TIP3   OH224564   1.741   5.552  15.691 -0.3176 -0.4936  0.1211
 1050TIP3    H124565   1.825   5.599  15.695  1.5668 -3.0234 -4.0567
 1050TIP3    H224566   1.755   5.474  15.745 -0.0233 -0.8453 -0.4610
 1051TIP3   OH224567   6.551   1.009   6.527 -0.1368 -0.1769 -0.2013
 1051TIP3    H124568   6.605   1.084   6.553 -0.1161 -0.3135  0.1511
 1051TIP3    H224569   6.565   1.002   6.432 -0.1736  0.2935 -0.2459
 1052TIP3   OH224570   5.549   0.153  16.777 -0.5438  0.4316 -0.5222
 1052TIP3    H124571   5.541   0.123  16.868  0.9108 -0.6639 -0.7345
 1052TIP3    H224572   5.505   0.086  16.726  1.5537 -0.7534 -0.8800
 1053TIP3   OH224573   2.467   0.978   2.655 -0.2547  0.2205  0.5098
 1053TIP3    H124574   2.409   1.054   2.643  1.1035  1.1393 -0.4807
 1053TIP3    H224575   2.477   0.941   2.568  1.2366  0.5372  0.5230
 1054TIP3   OH224576   2.975   5.140   5.962 -0.9335  0.3879  0.1166
 1054TIP3    H124577   2.901   5.134   5.903 -2.4415  0.8763  1.8731
 1054TIP3    H224578   3.030   5.209   5.925 -2.1798  1.1526 -0.3776
 1055TIP3   OH224579   0.682   0.479   0.905 -0.0429  0.3860  0.0156
 1055TIP3    H124580   0.728   0.436   0.833 -0.8460 -1.2820  0.4450
 1055TIP3    H224581   0.712   0.433   0.984 -0.2219  1.2507  0.5994
 1056TIP3   OH224582   5.307   2.349  16.563  0.0305 -0.2050  0.3237
 1056TIP3    H124583   5.290   2.303  16.480 -0.9415 -0.4804  0.6557
 1056TIP3    H224584   5.390   2.313  16.594  0.2364 -0.3422 -0.3598
 1057TIP3   OH224585   1.408   2.036  13.007 -0.9271  0.6915  0.2655
 1057TIP3    H124586   1.352   2.082  12.945  1.0061  0.4596 -1.7971
 1057TIP3    H224587   1.447   2.105  13.061 -0.9354  1.1212 -0.2731
 1058TIP3   OH224588   6.684   0.540   2.068  0.2042  0.0101  0.4676
 1058TIP3    H124589   6.742   0.608   2.102 -0.4972  0.3006  1.1250
 1058TIP3    H224590   6.737   0.460   2.070  0.9282  0.4617 -0.0012
 1059TIP3   OH224591   5.610   4.863   2.523  0.0874  0.0574 -0.5622
 1059TIP3    H124592   5.692   4.893   2.561 -0.4575 -0.1287  0.8356
 1059TIP3    H224593   5.569   4.943   2.490 -0.2256  0.5300  0.8925
 1060TIP3   OH224594   2.758   2.730   4.170  0.6654  0.4404 -0.0105
 1060TIP3    H124595   2.774   2.817   4.206  0.1603  0.6289 -0.2205
 1060TIP3    H224596   2.672   2.706   4.204  1.9484 -1.1831  2.3263
 1061TIP3   OH224597   3.267   3.423   2.751  0.1285 -0.3220  0.8680
 1061TIP3    H124598   3.293   3.430   2.843 -1.2744  0.1673  1.2530
 1061TIP3    H224599   3.310   3.497   2.708 -1.8047  1.4484  1.7991
 1062TIP3   OH224600   4.500   3.863  13.118  0.4260  0.0199  0.7115
 1062TIP3    H124601   4.552   3.930  13.161  0.1851 -1.1537  3.0338
 1062TIP3    H224602   4.425   3.849  13.177 -1.1674 -0.1522 -1.2309
 1063TIP3   OH224603   5.993   4.817   2.930  0.2786 -0.2234  0.6563
 1063TIP3    H124604   5.949   4.733   2.944 -1.4525  0.5585  0.2110
 1063TIP3    H224605   5.942   4.880   2.981  1.3379  0.6108  0.7140
 1064TIP3   OH224606   5.267   4.308   5.156 -0.1127 -0.0472  0.0498
 1064TIP3    H124607   5.278   4.339   5.246 -1.2897  0.4286  0.0492
 1064TIP3    H224608   5.326   4.233   5.149  1.6992  1.2946  0.4942
 1065TIP3   OH224609   4.698   6.741  14.691  0.9462 -0.6335  0.2399
 1065TIP3    H124610   4.662   6.786  14.767 -0.8894 -0.0668 -0.8768
 1065TIP3    H224611   4.652   6.657  14.689  0.1750 -0.2202 -0.7737
 1066TIP3   OH224612   3.331   4.993   2.472 -0.3221  0.0269  0.1742
 1066TIP3    H124613   3.321   5.087   2.483 -3.0539  0.2643 -2.8584
 1066TIP3    H224614   3.401   4.984   2.406 -2.0745  0.2280 -1.8182
 1067TIP3   OH224615   1.285   0.949  12.955 -0.2384 -0.0419  0.1570
 1067TIP3    H124616   1.219   0.945  12.885 -1.2193 -0.6823  1.0814
 1067TIP3    H224617   1.273   1.035  12.994 -0.2592 -0.0065  0.0731
 1068TIP3   OH224618   6.598   6.624  11.954  0.4123  0.1344 -0.1620
 1068TIP3    H124619   6.608   6.545  12.007  1.4375 -0.2618 -0.8999
 1068TIP3    H224620   6.678   6.673  11.970  0.0289  0.7565 -0.1464
 1069TIP3   OH224621   0.249   3.457  13.245 -1.0152  0.0927 -0.2480
 1069TIP3    H124622   0.249   3.551  13.265 -0.2889 -0.4081  2.7206
 1069TIP3    H224623   0.164   3.440  13.205 -1.2051  1.9923 -0.7139
 1070TIP3   OH224624   5.368   2.417  14.638 -0.8008  0.4919  0.4787
 1070TIP3    H124625   5.346   2.386  14.550 -1.1623 -1.7650  1.2976
 1070TIP3    H224626   5.423   2.495  14.623  1.4084 -1.3345 -1.8380
 1071TIP3   OH224627   0.551   5.504   5.738  0.3029  0.1824 -0.2488
 1071TIP3    H124628   0.605   5.465   5.806  0.6764  3.2727  1.3775
 1071TIP3    H224629   0.580   5.595   5.733 -2.4822  1.1071 -1.6666
 1072TIP3   OH224630   3.976   0.303  13.603 -0.2899  0.6983 -0.3643
 1072TIP3    H124631   3.942   0.279  13.517  1.0268  0.6927 -0.9068
 1072TIP3    H224632   3.981   0.399  13.601  0.2766  0.6687 -0.5155
 1073TIP3   OH224633   5.326   5.338  12.866 -0.0678 -0.1774 -0.7072
 1073TIP3    H124634   5.355   5.429  12.877  0.6790 -0.6097  1.2371
 1073TIP3    H224635   5.231   5.344  12.855 -0.1641  0.7886  0.4550
 1074TIP3   OH224636   0.532   1.892   4.207 -0.1699  0.9278 -0.1952
 1074TIP3    H124637   0.614   1.880   4.159  0.4612  0.1212  1.0152
 1074TIP3    H224638   0.467   1.910   4.140  1.1254  2.3559 -1.1370
 1075TIP3   OH224639   1.908   3.437   4.225  0.3656  0.4100 -0.8234
 1075TIP3    H124640   1.812   3.442   4.223  0.3075 -0.6316 -1.4482
 1075TIP3    H224641   1.936   3.522   4.259 -0.7880  0.6316 -0.3759
 1076TIP3   OH224642   0.485   4.740   4.798  0.1297  0.2046  0.2302
 1076TIP3    H124643   0.571   4.775   4.774  0.1558  0.5405  0.7940
 1076TIP3    H224644   0.423   4.794   4.749  0.2297  0.0349 -0.0896
 1077TIP3   OH224645   2.073   3.905   3.012 -0.0013 -0.1944 -0.0314
 1077TIP3    H124646   2.168   3.889   3.008  0.1195  0.4390  0.1168
 1077TIP3    H224647   2.062   3.963   3.087 -0.5704 -0.6489  0.2456
 1078TIP3   OH224648   6.486   1.727  16.373 -0.1559  0.1403  0.4122
 1078TIP3    H124649   6.541   1.666  16.325  0.1360  0.1511  0.7232
 1078TIP3    H224650   6.396   1.700  16.354 -0.0300 -1.1746  1.5242
 1079TIP3   OH224651   6.601   5.215   2.305  0.0923  0.1447  0.0550
 1079TIP3    H124652   6.538   5.237   2.373  1.2656  1.1648  0.8618
 1079TIP3    H224653   6.650   5.141   2.341 -0.6063 -0.6332 -0.5607
 1080TIP3   OH224654   0.242   0.380  15.149 -0.2188 -0.0027 -0.4268
 1080TIP3    H124655   0.296   0.322  15.096 -1.8799 -0.9605 -1.1382
 1080TIP3    H224656   0.256   0.467  15.112  0.9426 -0.1973 -0.4754
 1081TIP3   OH224657   4.213   2.285  13.539  0.9177 -0.2054 -0.2869
 1081TIP3    H124658   4.231   2.223  13.610 -1.1767 -0.6984 -0.1068
 1081TIP3    H224659   4.174   2.231  13.470  1.1913  0.5715 -1.0653
 1082TIP3   OH224660   5.311   0.943   4.796  1.1241 -0.1988  0.0460
 1082TIP3    H124661   5.299   1.019   4.853 -1.1641 -0.3142 -0.1965
 1082TIP3    H224662   5.376   0.972   4.732  0.9570  1.2432  0.4820
 1083TIP3   OH224663   4.200   0.257  16.855  0.8099  0.6066  0.6879
 1083TIP3    H124664   4.206   0.344  16.815  2.8991  0.5154  0.6969
 1083TIP3    H224665   4.231   0.197  16.788 -1.8773 -0.3470  0.2082
 1084TIP3   OH224666   0.973   3.990   1.230 -0.7476 -0.4427 -0.4454
 1084TIP3    H124667   0.976   4.086   1.232 -1.3224 -0.3782 -1.6330
 1084TIP3    H224668   1.055   3.963   1.270 -1.4557  0.4885  1.8274
 1085TIP3   OH224669   3.891   5.644   3.449 -0.3074 -0.4105  0.3117
 1085TIP3    H124670   3.985   5.663   3.446 -0.2507 -0.7630 -0.5196
 1085TIP3    H224671   3.865   5.640   3.357 -1.1484 -0.2627  0.5411
 1086TIP3   OH224672   1.946   0.858   4.750 -0.0379  0.0448 -0.2173
 1086TIP3    H124673   1.970   0.771   4.718 -0.1988 -1.0045  2.2562
 1086TIP3    H224674   1.852   0.851   4.768 -0.1114  0.8326 -0.2901
 1087TIP3   OH224675   3.845   1.968   0.186  0.6287  0.1463 -0.1772
 1087TIP3    H124676   3.753   1.975   0.209  0.6803 -1.8668  0.9072
 1087TIP3    H224677   3.847   1.913   0.107  0.9149 -0.2887  0.1264
 1088TIP3   OH224678   6.471   5.163   5.454  0.3334  0.0544 -0.3213
 1088TIP3    H124679   6.535   5.215   5.503 -0.1013  0.8870 -0.6052
 1088TIP3    H224680   6.485   5.073   5.483  0.8930  0.3712  0.4227
 1089TIP3   OH224681   2.966   4.150   2.526 -0.0095  0.4163  0.0269
 1089TIP3    H124682   2.883   4.120   2.565  0.5627 -0.4752  0.5858
 1089TIP3    H224683   3.017   4.071   2.514  1.3625  1.0941  1.1092
 1090TIP3   OH224684   1.816   2.887  14.775  0.0951 -0.3009  1.1399
 1090TIP3    H124685   1.898   2.930  14.798  0.0945 -0.5343  1.6012
 1090TIP3    H224686   1.806   2.818  14.841 -1.8046  1.4176  2.8006
 1091TIP3   OH224687   1.403   1.230  16.098  0.0087  0.3047  0.3544
 1091TIP3    H124688   1.457   1.166  16.051  0.7635  1.8393 -0.9779
 1091TIP3    H224689   1.318   1.187  16.107  0.8499 -1.3968  0.7165
 1092TIP3   OH224690   3.494   2.043   0.697  0.1953  0.3452 -0.1955
 1092TIP3    H124691   3.427   1.988   0.656  0.1719 -0.8292  1.3279
 1092TIP3    H224692   3.541   2.083   0.623 -2.4429  1.5974 -1.3275
 1093TIP3   OH224693   0.348   3.647  13.909  0.3047  0.6596  0.3811
 1093TIP3    H124694   0.425   3.609  13.867  0.9307  1.5864  0.6571
 1093TIP3    H224695   0.356   3.624  14.001 -0.4153 -0.2994  0.2247
 1094TIP3   OH224696   0.730   0.355  15.692  0.0479 -0.4845 -0.0149
 1094TIP3    H124697   0.715   0.264  15.665  0.1504 -0.8206  0.9946
 1094TIP3    H224698   0.667   0.369  15.763 -0.8098  0.6461 -0.9760
 1095TIP3   OH224699   5.538   3.301   3.808 -0.5588 -0.0479 -0.2045
 1095TIP3    H124700   5.527   3.250   3.888 -0.3388 -0.3762 -0.3823
 1095TIP3    H224701   5.504   3.388   3.830  0.5929  0.2084  0.6077
 1096TIP3   OH224702   6.222   5.319  15.175  0.5441 -0.1326 -0.2461
 1096TIP3    H124703   6.196   5.227  15.177  0.3647 -0.0783  0.4214
 1096TIP3    H224704   6.156   5.364  15.229 -1.5693  1.0071 -3.4985
 1097TIP3   OH224705   1.337   0.734  16.399 -0.5754  0.2094 -0.4996
 1097TIP3    H124706   1.385   0.816  16.385 -1.3829  0.5166 -1.5629
 1097TIP3    H224707   1.248   0.762  16.418 -0.2611 -0.3357  2.1395
 1098TIP3   OH224708   5.024   4.073  14.215  0.0165  0.1200 -0.3809
 1098TIP3    H124709   5.027   3.992  14.267  2.3632 -0.1173 -0.7825
 1098TIP3    H224710   4.977   4.048  14.135  0.0598 -0.6519 -0.1795
 1099TIP3   OH224711   5.765   1.478   2.496  0.3846  0.3923  0.1119
 1099TIP3    H124712   5.851   1.480   2.453 -0.4856 -0.1951 -1.7514
 1099TIP3    H224713   5.723   1.399   2.461 -0.5399  0.0947  1.7842
 1100TIP3   OH224714   3.343   2.177   3.546 -0.1996 -0.1420  0.3959
 1100TIP3    H124715   3.248   2.181   3.537 -0.1305  0.2256 -0.2240
 1100TIP3    H224716   3.357   2.160   3.639 -0.8643 -0.0527  0.5206
 1101TIP3   OH224717   4.514   5.806  16.886  0.2485 -0.3526 -0.2543
 1101TIP3    H124718   4.591   5.792  16.832 -0.8345 -1.6334 -1.5629
 1101TIP3    H224719   4.440   5.798  16.825 -1.0149 -1.6295  1.3433
 1102TIP3   OH224720   0.888   3.181  12.164  0.4075  0.4714 -0.5967
 1102TIP3    H124721   0.931   3.223  12.090  1.0862  0.0716 -0.4354
 1102TIP3    H224722   0.875   3.252  12.227  0.8502  0.5988 -0.6428
 1103TIP3   OH224723   4.859   6.115   6.352  0.1241  0.6619 -0.7119
 1103TIP3    H124724   4.954   6.124   6.366 -0.2574  3.3622  0.7783
 1103TIP3    H224725   4.821   6.190   6.397 -2.6442  0.6585 -2.8249
 1104TIP3   OH224726   4.366   1.501   5.136 -0.0424 -0.4139  0.3834
 1104TIP3    H124727   4.289   1.556   5.151  0.5100  0.9248 -1.3487
 1104TIP3    H224728   4.353   1.465   5.048 -0.0860 -2.6370  1.2313
 1105TIP3   OH224729   2.245   0.942   3.266  0.0019 -0.5646  0.4663
 1105TIP3    H124730   2.259   0.859   3.312  1.4540  0.1372  1.3417
 1105TIP3    H224731   2.236   0.917   3.174 -1.9864 -1.9054  0.9579
 1106TIP3   OH224732   5.728   1.340  14.390 -0.1993  0.2606 -0.2931
 1106TIP3    H124733   5.695   1.425  14.419 -1.9464 -0.2711 -0.5772
 1106TIP3    H224734   5.774   1.359  14.309 -0.4242  0.9702 -0.2618
 1107TIP3   OH224735   5.219   3.093   4.653  0.0505  0.5624  0.1937
 1107TIP3    H124736   5.293   3.141   4.690 -0.2078  0.4308  0.9054
 1107TIP3    H224737   5.143   3.147   4.676 -0.1711  0.1713  0.3709
 1108TIP3   OH224738   0.667   6.707  11.820  0.6528 -0.1979 -0.0266
 1108TIP3    H124739   0.624   6.770  11.762 -1.6688 -1.3055  0.3676
 1108TIP3    H224740   0.595   6.653  11.854  2.2552 -1.3542  1.7161
 1109TIP3   OH224741   6.730   3.738  12.768  0.2293 -0.2392 -0.6809
 1109TIP3    H124742   6.653   3.793  12.751  0.7034  1.2703  1.5598
 1109TIP3    H224743   6.697   3.665  12.820  0.5029  1.8159  2.7256
 1110TIP3   OH224744   5.939   3.309  13.384 -0.2635  0.2198 -0.0658
 1110TIP3    H124745   5.954   3.216  13.365  0.1840  0.5599 -1.4546
 1110TIP3    H224746   5.977   3.356  13.310 -3.7086  1.3640 -1.3540
 1111TIP3   OH224747   4.993   1.677   4.593  0.3774  0.1103  0.0276
 1111TIP3    H124748   4.998   1.763   4.551 -0.6955 -0.4322 -1.2827
 1111TIP3    H224749   5.081   1.663   4.628  0.5798  1.7145  0.2480
 1112TIP3   OH224750   5.654   2.230   0.957 -0.3390  0.5322  0.2212
 1112TIP3    H124751   5.661   2.177   1.036  1.0516  1.1488  0.5441
 1112TIP3    H224752   5.586   2.187   0.904  0.1026 -1.0153  0.8688
 1113TIP3   OH224753   4.167   2.351  10.501 -0.4426 -0.0323 -0.3433
 1113TIP3    H124754   4.126   2.430  10.535  2.1093  0.5389  1.6631
 1113TIP3    H224755   4.259   2.374  10.489  0.7231 -3.0327  1.7175
 1114TIP3   OH224756   1.232   5.853   5.551  0.5716  0.2273  0.0015
 1114TIP3    H124757   1.138   5.859   5.564  0.5965 -0.4666  0.5420
 1114TIP3    H224758   1.244   5.858   5.456 -0.1086 -0.8314 -0.1538
 1115TIP3   OH224759   1.448   4.256   3.750 -0.0910 -0.2181 -0.3195
 1115TIP3    H124760   1.426   4.163   3.743  2.7450 -0.9551 -0.7442
 1115TIP3    H224761   1.475   4.267   3.841 -0.7160  0.2883 -0.1879
 1116TIP3   OH224762   1.502   6.340  15.968  0.5516 -0.2940 -0.1514
 1116TIP3    H124763   1.519   6.261  16.019 -2.1754 -1.0932 -0.3384
 1116TIP3    H224764   1.487   6.309  15.879 -3.7345 -0.1759  0.3070
 1117TIP3   OH224765   6.500   6.684  14.397 -0.3942  0.5351 -0.4380
 1117TIP3    H124766   6.572   6.660  14.339  0.1980 -1.9957  1.2251
 1117TIP3    H224767   6.470   6.769  14.363  1.5821  0.3964 -2.8064
 1118TIP3   OH224768   5.523   5.543   1.393  0.1769  0.2308 -0.2969
 1118TIP3    H124769   5.433   5.573   1.407 -0.4354 -1.2849 -0.8138
 1118TIP3    H224770   5.519   5.492   1.312  1.4747  0.0061 -0.2364
 1119TIP3   OH224771   0.620   1.568  14.552  0.3463  0.3398  0.2649
 1119TIP3    H124772   0.681   1.502  14.520  1.9761  1.5197  0.7860
 1119TIP3    H224773   0.534   1.535  14.529  1.2234 -0.8825 -1.4644
 1120TIP3   OH224774   5.063   4.499   0.251  0.6573 -0.1740 -0.2064
 1120TIP3    H124775   5.114   4.564   0.299 -0.2760 -0.3767  1.1297
 1120TIP3    H224776   5.066   4.420   0.306  0.7240 -0.8779 -1.1835
 1121TIP3   OH224777   3.456   3.015  14.580  0.1202 -0.0364  0.1870
 1121TIP3    H124778   3.399   3.050  14.511 -2.3497 -2.6392  0.6908
 1121TIP3    H224779   3.508   2.948  14.535  0.7798  0.3889  0.2984
 1122TIP3   OH224780   1.744   1.320  15.272  0.1415 -0.1253 -0.3768
 1122TIP3    H124781   1.793   1.238  15.279  0.2939  0.0324  0.5153
 1122TIP3    H224782   1.686   1.320  15.349 -0.7609  0.0176 -1.0421
 1123TIP3   OH224783   5.353   1.628   5.197  0.0673  0.0441 -0.0824
 1123TIP3    H124784   5.275   1.684   5.197  0.3297  0.4132 -0.4451
 1123TIP3    H224785   5.391   1.641   5.284  0.8482  1.4565 -0.6094
 1124TIP3   OH224786   2.355   4.641   0.210 -0.3986  0.3937 -0.3579
 1124TIP3    H124787   2.313   4.598   0.285 -0.4256  0.3225 -0.4141
 1124TIP3    H224788   2.355   4.575   0.141  0.7517  0.0268 -0.0319
 1125TIP3   OH224789   0.015   2.302  15.898  0.1525  0.6473  0.2596
 1125TIP3    H124790  -0.021   2.229  15.948 -0.0491  1.0293  0.6740
 1125TIP3    H224791   0.099   2.321  15.939  1.7782 -1.4333 -1.8072
 1126TIP3   OH224792   6.608   3.492  12.846 -0.3860 -0.0588  0.2088
 1126TIP3    H124793   6.545   3.458  12.909 -0.2519  0.8071  0.8241
 1126TIP3    H224794   6.613   3.424  12.778 -1.3775 -0.4925  0.5513
 1127TIP3   OH224795   0.623   4.030   6.448  0.0007  0.0340  0.5166
 1127TIP3    H124796   0.698   4.085   6.471  1.0833 -1.6103  1.1382
 1127TIP3    H224797   0.632   3.954   6.505 -0.5605 -1.5036 -1.3596
 1128TIP3   OH224798   5.790   2.137   0.674 -0.4515 -0.1335  0.6414
 1128TIP3    H124799   5.849   2.062   0.683 -0.4236  0.0535  2.4744
 1128TIP3    H224800   5.801   2.186   0.756 -2.5936  0.3071  0.7327
 1129TIP3   OH224801   3.464   2.859   0.562 -0.5827  0.1894 -0.2932
 1129TIP3    H124802   3.460   2.771   0.525 -2.1176  0.1700 -0.1692
 1129TIP3    H224803   3.557   2.882   0.560 -0.2692 -1.0365 -1.2345
 1130TIP3   OH224804   5.491   2.429  14.015  0.1546 -0.2288  0.0355
 1130TIP3    H124805   5.538   2.420  14.098  1.3291  0.6531 -0.4893
 1130TIP3    H224806   5.450   2.515  14.020 -0.0277 -0.3035 -0.1644
 1131TIP3   OH224807   3.689   2.954   3.159 -0.1773 -0.6594  0.2744
 1131TIP3    H124808   3.776   2.972   3.123  0.8281 -2.0214  1.8660
 1131TIP3    H224809   3.631   2.959   3.083  1.4705 -1.0301 -1.0988
 1132TIP3   OH224810   2.748   4.669  16.689 -0.1926 -0.6309 -0.6352
 1132TIP3    H124811   2.750   4.675  16.785  2.0853  0.5640 -0.6692
 1132TIP3    H224812   2.752   4.575  16.671 -2.0594 -0.9634  0.3786
 1133TIP3   OH224813   5.509   6.423   2.233 -0.4337 -0.0996 -0.0483
 1133TIP3    H124814   5.443   6.410   2.165 -0.8301  0.6192  0.1976
 1133TIP3    H224815   5.577   6.359   2.212 -0.3687  0.3632 -1.3453
 1134TIP3   OH224816   4.053   4.694   1.817 -0.3566  0.1580  0.1450
 1134TIP3    H124817   4.039   4.609   1.859  3.3887 -3.3263 -4.4868
 1134TIP3    H224818   3.999   4.691   1.738 -0.3008  2.2495 -0.0323
 1135TIP3   OH224819   6.657   0.686   1.197  0.3830  0.3666 -0.4228
 1135TIP3    H124820   6.608   0.742   1.257  0.9225  0.1682  0.2154
 1135TIP3    H224821   6.595   0.664   1.128  0.0833  1.5219 -0.5329
 1136TIP3   OH224822   0.349   3.762   2.669  0.5229 -0.5001 -0.1694
 1136TIP3    H124823   0.409   3.716   2.728  0.5905 -0.0063  0.1530
 1136TIP3    H224824   0.318   3.694   2.609  1.0148 -0.8613 -0.0229
 1137TIP3   OH224825   6.087   5.220  11.585 -0.6817 -0.3127 -0.4540
 1137TIP3    H124826   5.998   5.240  11.613 -1.1273 -2.1575 -0.3904
 1137TIP3    H224827   6.121   5.161  11.653  0.3482 -0.1734 -0.8196
 1138TIP3   OH224828   3.297   5.874   4.094 -0.3869 -0.4284 -0.6529
 1138TIP3    H124829   3.321   5.953   4.045 -1.5405 -0.2793 -1.0013
 1138TIP3    H224830   3.326   5.892   4.183  2.4216 -1.0014 -1.3502
 1139TIP3   OH224831   2.438   4.597  15.823 -0.1121  0.3209  0.3750
 1139TIP3    H124832   2.499   4.611  15.895  0.1991  0.0961  0.1534
 1139TIP3    H224833   2.353   4.586  15.866  0.2315 -0.8759  0.7804
 1140TIP3   OH224834   0.976   6.095   3.463 -0.0123 -0.0645  0.4286
 1140TIP3    H124835   1.037   6.025   3.439  0.2755  0.1461  0.5460
 1140TIP3    H224836   0.913   6.098   3.391  0.6692  0.3653 -0.1538
 1141TIP3   OH224837   4.662   0.895  11.999  0.1039  0.0770  1.0943
 1141TIP3    H124838   4.703   0.948  11.931 -2.2202  0.3172 -0.2469
 1141TIP3    H224839   4.660   0.806  11.961 -0.4667  0.0509  1.1730
 1142TIP3   OH224840   6.209   1.617  14.805  0.1681 -0.4599  0.8012
 1142TIP3    H124841   6.299   1.641  14.826  0.4097 -1.2499  0.6954
 1142TIP3    H224842   6.216   1.562  14.727 -0.5817  1.0881 -0.4018
 1143TIP3   OH224843   1.027   1.549   0.634  0.7044 -0.2857  0.1618
 1143TIP3    H124844   0.937   1.516   0.630  1.4380 -2.2000 -2.0982
 1143TIP3    H224845   1.051   1.541   0.727 -1.8014  1.5071  1.0880
 1144TIP3   OH224846   0.190   1.014   3.369  0.6481 -0.0868  0.3342
 1144TIP3    H124847   0.143   1.006   3.452  0.5043 -1.2109  0.1589
 1144TIP3    H224848   0.130   1.062   3.312  0.3678 -0.1153  0.6011
 1145TIP3   OH224849   5.667   0.534  13.146 -0.4110  0.5396  1.1314
 1145TIP3    H124850   5.613   0.482  13.206  0.1228  0.6345  1.7003
 1145TIP3    H224851   5.698   0.607  13.199  1.4136 -0.2434  1.2016
 1146TIP3   OH224852   2.978   2.561   2.509  0.2173  0.1231  0.5425
 1146TIP3    H124853   2.889   2.535   2.486  0.2716  1.2505 -1.1380
 1146TIP3    H224854   2.968   2.622   2.582 -0.4432  0.6254  0.0387
 1147TIP3   OH224855   4.497   3.761  16.999 -0.1390  0.4121  0.3507
 1147TIP3    H124856   4.492   3.852  17.028  1.0525  0.6033 -0.0091
 1147TIP3    H224857   4.587   3.751  16.967 -0.3797 -0.7796  0.0228
 1148TIP3   OH224858   1.085   2.995  12.475  0.3447 -0.6371  0.4234
 1148TIP3    H124859   1.135   2.977  12.395  0.0460  0.6630 -0.0792
 1148TIP3    H224860   1.041   2.912  12.495  1.8731 -1.5301  0.3111
 1149TIP3   OH224861   2.995   0.793  11.732 -0.8521  0.7283 -0.2748
 1149TIP3    H124862   2.996   0.790  11.636  1.2939 -0.1800 -0.2872
 1149TIP3    H224863   3.069   0.738  11.758 -2.3308 -0.3758  1.9651
 1150TIP3   OH224864   4.341   2.979   4.503  0.3092  0.2300  0.6214
 1150TIP3    H124865   4.301   3.064   4.486 -0.5817 -0.4057 -0.6924
 1150TIP3    H224866   4.304   2.951   4.586 -0.1073  0.7181  0.6045
 1151TIP3   OH224867   1.475   5.651  12.678 -0.4924  0.1252  0.6865
 1151TIP3    H124868   1.569   5.637  12.682 -0.4579  0.4453  1.1222
 1151TIP3    H224869   1.462   5.708  12.602 -0.6159 -2.0169 -0.9914
 1152TIP3   OH224870   3.810   4.407  16.187  0.0178  0.1636  0.6016
 1152TIP3    H124871   3.904   4.427  16.192  0.5021 -1.8682  0.3286
 1152TIP3    H224872   3.795   4.389  16.094 -0.5278 -0.0719  0.7369
 1153TIP3   OH224873   4.191   1.610  15.516 -0.2296 -0.6626 -0.5035
 1153TIP3    H124874   4.231   1.697  15.516 -0.4544 -0.4705  2.5955
 1153TIP3    H224875   4.264   1.549  15.518 -0.0788 -0.4759 -0.3397
 1154TIP3   OH224876   4.237   0.133  13.077 -0.4280  0.5264 -0.4970
 1154TIP3    H124877   4.258   0.208  13.022  0.0981 -0.0187 -1.0656
 1154TIP3    H224878   4.179   0.080  13.023 -0.0351  0.0621 -0.4719
 1155TIP3   OH224879   4.777   1.350  13.351 -0.4013  0.6395 -0.3057
 1155TIP3    H124880   4.857   1.374  13.304 -0.1855 -2.1498 -1.5364
 1155TIP3    H224881   4.806   1.297  13.425 -1.0830 -0.8887 -1.0882
 1156TIP3   OH224882   5.377   6.322   1.713 -0.8163 -0.4705 -0.0328
 1156TIP3    H124883   5.438   6.253   1.687 -2.4413 -1.4897 -1.2565
 1156TIP3    H224884   5.346   6.359   1.630 -1.1413  0.6968  0.5898
 1157TIP3   OH224885   3.348   2.980   5.322 -0.0297 -0.0934 -0.3121
 1157TIP3    H124886   3.423   2.944   5.370  0.4368 -0.6907 -1.4329
 1157TIP3    H224887   3.274   2.970   5.382  1.0294  1.9946  1.4619
 1158TIP3   OH224888   5.009   1.073  14.391  0.6756  0.5121 -0.1189
 1158TIP3    H124889   4.998   1.107  14.302  1.0005  1.2486  0.1207
 1158TIP3    H224890   4.930   1.021  14.406  0.3979  0.7636 -0.6648
 1159TIP3   OH224891   4.079   0.312  12.652  0.0459  0.5939 -0.2354
 1159TIP3    H124892   4.166   0.310  12.690  0.3613  0.7744 -0.9289
 1159TIP3    H224893   4.093   0.293  12.559 -0.5039  1.8905 -0.6093
 1160TIP3   OH224894   1.308   0.095  10.698  0.7699 -0.7588 -0.0358
 1160TIP3    H124895   1.385   0.096  10.641 -0.0437 -1.0171 -1.1776
 1160TIP3    H224896   1.297   0.186  10.725  0.7627 -0.4992 -0.8751
 1161TIP3   OH224897   5.972   1.812   0.323  0.1111 -0.0609 -0.3081
 1161TIP3    H124898   6.028   1.787   0.397 -0.7684  2.1570  1.2344
 1161TIP3    H224899   6.023   1.876   0.275 -0.3449  0.5419 -0.0031
 1162TIP3   OH224900   4.415   6.397  14.499 -0.2224 -0.4198  0.1176
 1162TIP3    H124901   4.331   6.355  14.515 -1.1560  0.8989 -1.1182
 1162TIP3    H224902   4.427   6.455  14.574 -0.5050 -0.4534  0.1905
 1163TIP3   OH224903   5.384   1.465   3.404 -0.4592 -0.0662 -0.1808
 1163TIP3    H124904   5.429   1.533   3.354 -0.3824 -1.5588 -2.2910
 1163TIP3    H224905   5.453   1.425   3.457  0.1046 -0.3479 -1.0978
 1164TIP3   OH224906   0.971   2.089   4.936 -0.0500 -0.0790  0.0310
 1164TIP3    H124907   0.876   2.091   4.947 -0.1043  0.0908 -0.4529
 1164TIP3    H224908   0.986   2.121   4.847  0.2985 -2.5418 -0.8522
 1165TIP3   OH224909   3.492   5.779   5.021 -0.7103 -0.0182 -0.5474
 1165TIP3    H124910   3.429   5.833   5.069 -1.0214  0.1174 -1.0976
 1165TIP3    H224911   3.570   5.780   5.076  0.0920  2.8639 -1.5697
 1166TIP3   OH224912   2.529   1.699  10.815 -0.4501 -0.6970  0.2753
 1166TIP3    H124913   2.550   1.792  10.820 -0.4787 -0.7139  0.7540
 1166TIP3    H224914   2.567   1.670  10.732 -0.1719 -0.3299  0.2743
 1167TIP3   OH224915   2.615   4.809  12.793 -0.4054  0.0798  0.1723
 1167TIP3    H124916   2.582   4.865  12.723  0.6720  0.4308 -0.0774
 1167TIP3    H224917   2.704   4.840  12.808 -0.0301 -1.1078  0.5198
 1168TIP3   OH224918   2.848   3.316  15.497  0.1175  0.0506  0.3718
 1168TIP3    H124919   2.777   3.377  15.476 -0.6423 -1.4457 -1.7982
 1168TIP3    H224920   2.810   3.256  15.561 -0.0465  0.2285  0.4423
 1169TIP3   OH224921   1.109   1.318  13.920  0.4707 -0.9904 -0.4682
 1169TIP3    H124922   1.074   1.401  13.889  1.8768 -0.5305 -0.9169
 1169TIP3    H224923   1.046   1.287  13.986  0.5209  1.0155  0.5883
 1170TIP3   OH224924   6.225   1.342  15.116 -0.3313  0.6239 -0.2197
 1170TIP3    H124925   6.301   1.367  15.064 -0.1544  1.0669  0.2395
 1170TIP3    H224926   6.261   1.288  15.187 -0.6313 -0.4191 -0.8307
 1171TIP3   OH224927   3.792   3.023   5.520  0.2072  0.4899 -0.3157
 1171TIP3    H124928   3.858   3.088   5.542 -0.8151  0.8670  1.9550
 1171TIP3    H224929   3.842   2.948   5.486  1.8510  0.6466  1.5983
 1172TIP3   OH224930   2.180   5.441   0.117 -0.1581 -0.4304  0.5481
 1172TIP3    H124931   2.147   5.361   0.076 -0.9596 -0.5601  1.4197
 1172TIP3    H224932   2.104   5.481   0.157  0.5197 -0.0726  1.5140
 1173TIP3   OH224933   0.433   4.618  12.537 -0.0605  0.0020  0.7296
 1173TIP3    H124934   0.389   4.666  12.468  0.6628  0.5809  0.6629
 1173TIP3    H224935   0.412   4.665  12.617  0.6643  0.4493  0.6618
 1174TIP3   OH224936   0.966   6.105  13.463  0.1715 -0.3038  0.1798
 1174TIP3    H124937   1.054   6.072  13.478  1.0729  0.6306 -2.4186
 1174TIP3    H224938   0.974   6.200  13.472  0.0738  0.0219 -2.2644
 1175TIP3   OH224939   5.113   3.932   4.275 -0.1147  0.5741  0.0265
 1175TIP3    H124940   5.092   3.904   4.186 -0.4964 -0.1602  0.3383
 1175TIP3    H224941   5.030   3.926   4.322  0.2737  0.0324  0.6632
 1176TIP3   OH224942   3.947   1.727  15.487 -0.2342  0.3499  0.3503
 1176TIP3    H124943   4.036   1.701  15.512 -0.4073 -2.1843 -1.2471
 1176TIP3    H224944   3.897   1.717  15.568  0.6408  0.2256  0.9018
 1177TIP3   OH224945   2.793   0.895   3.048  0.2833  0.1608 -0.2509
 1177TIP3    H124946   2.782   0.916   2.955  1.3601 -0.6683 -0.5901
 1177TIP3    H224947   2.875   0.937   3.073 -0.0983  0.5482  0.3962
 1178TIP3   OH224948   1.625   1.013   5.684  0.2931  0.0060 -0.2980
 1178TIP3    H124949   1.556   1.008   5.618 -1.4627 -0.9646  1.5011
 1178TIP3    H224950   1.665   0.926   5.685 -0.1299 -0.1825  0.3655
 1179TIP3   OH224951   6.699   4.054   3.615 -0.3991  0.2842 -0.3991
 1179TIP3    H124952   6.743   4.073   3.532 -0.1616 -0.2396 -0.3919
 1179TIP3    H224953   6.674   3.962   3.609  1.0760 -0.2261  0.7699
 1180TIP3   OH224954   3.994   2.928   1.399  0.0779 -0.2176 -0.0000
 1180TIP3    H124955   3.954   2.915   1.313 -2.6152 -0.9872  1.2367
 1180TIP3    H224956   3.935   2.988   1.444 -0.6530 -2.5666  2.4663
 1181TIP3   OH224957   5.197   3.747   5.056  0.2008 -0.0771  0.0916
 1181TIP3    H124958   5.248   3.667   5.068  2.3744  0.4405 -3.7744
 1181TIP3    H224959   5.162   3.739   4.967 -0.8164  2.5837  0.1788
 1182TIP3   OH224960   1.220   3.155  17.216  0.4958  0.3150  0.2386
 1182TIP3    H124961   1.301   3.205  17.214  1.3526 -1.0193 -0.1878
 1182TIP3    H224962   1.247   3.069  17.250 -0.5366 -0.4639 -0.8348
 1183TIP3   OH224963   1.026   1.457   5.856  0.1610 -0.2140  0.2869
 1183TIP3    H124964   1.041   1.363   5.840 -1.2740 -0.5365  0.6469
 1183TIP3    H224965   1.046   1.468   5.949 -1.0211 -0.4979  0.5987
 1184TIP3   OH224966   0.453   1.410   6.152  0.2201 -0.7146 -0.4463
 1184TIP3    H124967   0.390   1.422   6.082  0.0623 -0.1264 -0.2076
 1184TIP3    H224968   0.453   1.315   6.168 -1.9988 -0.5808  0.8107
 1185TIP3   OH224969   3.440   0.895  16.348  0.2460  0.4591  0.0528
 1185TIP3    H124970   3.488   0.931  16.422  0.9972  1.2748 -0.8003
 1185TIP3    H224971   3.376   0.836  16.387  1.7547 -0.4559  1.2443
 1186TIP3   OH224972   0.860   6.538   4.348 -0.3241 -0.3477 -0.2058
 1186TIP3    H124973   0.811   6.500   4.274  1.8861 -2.5574 -0.6816
 1186TIP3    H224974   0.797   6.540   4.420 -1.1947 -3.0340 -0.7842
 1187TIP3   OH224975   5.334   1.156   4.943  0.0600  0.1837  0.6214
 1187TIP3    H124976   5.407   1.211   4.914  0.2164  0.5895  1.7239
 1187TIP3    H224977   5.336   1.162   5.038 -0.3179 -1.2355  0.7485
 1188TIP3   OH224978   1.945   0.880   0.773 -0.0336 -0.0167  0.0409
 1188TIP3    H124979   1.965   0.908   0.684 -1.1625  1.0515  0.0843
 1188TIP3    H224980   1.907   0.958   0.814 -1.6455 -1.1154  0.7426
 1189TIP3   OH224981   5.493   1.682  11.098 -0.4937 -0.1641  0.3572
 1189TIP3    H124982   5.457   1.715  11.015  0.5422 -0.8609 -0.3953
 1189TIP3    H224983   5.439   1.605  11.118 -0.3296 -0.3857 -0.0298
 1190TIP3   OH224984   2.916   6.621   4.276  0.1065 -0.5935 -0.1713
 1190TIP3    H124985   2.871   6.672   4.208  0.1531  0.3644  0.5017
 1190TIP3    H224986   2.995   6.672   4.295 -0.0856 -0.6622  0.8479
 1191TIP3   OH224987   3.570   1.578  12.126  0.0504 -0.2169  0.4748
 1191TIP3    H124988   3.558   1.531  12.044  0.5820  0.1566  0.1809
 1191TIP3    H224989   3.506   1.539  12.186 -0.4751 -0.3558 -0.1716
 1192TIP3   OH224990   0.187   4.429  15.783 -0.2370 -0.3084 -0.1007
 1192TIP3    H124991   0.209   4.497  15.720  0.8002 -0.1138  0.4564
 1192TIP3    H224992   0.178   4.475  15.866  2.8999 -1.0965  0.7928
 1193TIP3   OH224993   3.713   2.280  10.578 -0.3703 -0.1657  0.2735
 1193TIP3    H124994   3.790   2.245  10.533 -0.6532 -0.7743  0.2609
 1193TIP3    H224995   3.647   2.212  10.569 -0.4104 -0.3388  1.6771
 1194TIP3   OH224996   1.175   3.989   1.853 -0.6484 -0.0221  0.3755
 1194TIP3    H124997   1.269   3.981   1.838 -0.6414  0.5790  0.0342
 1194TIP3    H224998   1.162   3.956   1.942 -0.2705 -1.0520  0.0642
 1195TIP3   OH224999   4.220   6.737  12.110 -0.2930 -0.0824 -0.3825
 1195TIP3    H125000   4.284   6.709  12.045 -0.4844 -0.2642 -0.4947
 1195TIP3    H225001   4.233   6.831  12.117 -0.6428  0.0327 -1.0972
 1196TIP3   OH225002   5.434   0.806  11.080  0.7779 -0.2634 -0.7623
 1196TIP3    H125003   5.418   0.745  11.152  1.0416  0.1505 -0.3487
 1196TIP3    H225004   5.394   0.763  11.004 -0.4154 -0.2392 -0.1799
 1197TIP3   OH225005   5.614   5.882  13.339 -0.1470  0.2519  0.7208
 1197TIP3    H125006   5.705   5.900  13.361  0.2172 -0.7107  0.0768
 1197TIP3    H225007   5.579   5.838  13.417  0.5633 -1.3290  0.1782
 1198TIP3   OH225008   1.939   1.438  16.498  0.0319 -0.3998  0.4863
 1198TIP3    H125009   1.982   1.384  16.432 -1.0185 -0.3769 -0.2223
 1198TIP3    H225010   1.955   1.528  16.470 -1.0065 -0.3978 -0.1365
 1199TIP3   OH225011   4.206   5.309   3.417  0.4921 -0.0632  0.2665
 1199TIP3    H125012   4.279   5.367   3.437  0.2461 -0.0570  1.1713
 1199TIP3    H225013   4.240   5.250   3.350  1.1260  0.3387  0.2242
 1200TIP3   OH225014   6.311   1.635  15.236 -0.3591  0.3476  0.4768
 1200TIP3    H125015   6.368   1.575  15.189 -2.6261 -1.2075 -0.4340
 1200TIP3    H225016   6.261   1.580  15.297  1.1754  2.0513  3.5433
 1201TIP3   OH225017   4.701   3.019  12.397 -0.9755 -0.2321  0.0666
 1201TIP3    H125018   4.743   3.061  12.472 -0.5099 -0.6616  0.0449
 1201TIP3    H225019   4.759   3.037  12.324 -0.7542 -0.9430  0.0637
 1202TIP3   OH225020   3.962   0.956   2.870  0.7319 -0.1371  0.3879
 1202TIP3    H125021   3.991   0.875   2.828 -0.1403 -0.5822  0.6176
 1202TIP3    H225022   3.977   1.024   2.804  1.0432 -0.5533  0.0234
 1203TIP3   OH225023   2.233   4.645  15.981  0.1301 -0.1278  0.3442
 1203TIP3    H125024   2.189   4.723  15.947 -0.0310  0.5996  2.1122
 1203TIP3    H225025   2.206   4.640  16.073  1.0397 -1.6224  0.5640
 1204TIP3   OH225026   4.283   0.775  13.022 -0.4256 -0.2233 -0.1605
 1204TIP3    H125027   4.316   0.694  13.062 -1.8344 -0.6654  0.1662
 1204TIP3    H225028   4.274   0.753  12.929  0.3109 -0.0448 -0.2847
 1205TIP3   OH225029   1.533   5.716   6.036 -0.2239 -0.1799  0.1650
 1205TIP3    H125030   1.476   5.682   5.967  0.7888 -2.1938  0.2633
 1205TIP3    H225031   1.481   5.710   6.116  0.3460 -2.9285  0.4218
 1206TIP3   OH225032   2.747   4.739   1.389 -0.2785 -0.7994  0.5600
 1206TIP3    H125033   2.655   4.716   1.399 -0.0842 -0.5839  3.6589
 1206TIP3    H225034   2.749   4.835   1.394  0.1079 -0.7742  0.0946
 1207TIP3   OH225035   1.442   3.414   2.652 -0.1485  0.4105 -0.1161
 1207TIP3    H125036   1.350   3.392   2.661 -0.1408  0.4880  0.1535
 1207TIP3    H225037   1.455   3.427   2.558  0.2454 -2.5952 -0.6011
 1208TIP3   OH225038   6.616   4.710   6.603  0.4238  0.3254  0.1364
 1208TIP3    H125039   6.559   4.767   6.654  0.6089 -0.1137  0.8545
 1208TIP3    H225040   6.703   4.750   6.610  0.6351 -0.2543  0.9932
 1209TIP3   OH225041   5.041   1.402  11.625 -0.3077 -0.4662 -0.1424
 1209TIP3    H125042   5.058   1.479  11.679  2.2913 -0.9471 -0.1364
 1209TIP3    H225043   4.962   1.363  11.663 -0.5697  1.1294  1.0574
 1210TIP3   OH225044   6.406   3.411  15.137 -0.2543  0.1440  0.6790
 1210TIP3    H125045   6.494   3.403  15.102 -0.6626  1.3583 -0.7428
 1210TIP3    H225046   6.410   3.486  15.197 -1.2491  3.6857 -3.1600
 1211TIP3   OH225047   1.039   5.428  15.734 -0.0332  0.7208  0.0976
 1211TIP3    H125048   1.096   5.394  15.666 -0.9441 -0.2586 -0.1976
 1211TIP3    H225049   1.064   5.520  15.742  0.9481  0.5338 -0.6579
 1212TIP3   OH225050   2.281   6.221  13.378  0.2218 -0.2016  0.6312
 1212TIP3    H125051   2.227   6.155  13.334  0.3619 -1.5511  2.3665
 1212TIP3    H225052   2.371   6.199  13.355  0.2395 -0.2736  0.7704
 1213TIP3   OH225053   3.181   5.032  16.370 -0.2246  0.3165 -0.3394
 1213TIP3    H125054   3.196   5.067  16.458 -0.8951  1.1058 -0.5303
 1213TIP3    H225055   3.247   5.075  16.315 -0.2027  0.2920 -0.3315
 1214TIP3   OH225056   1.407   4.902  12.462  0.1040 -0.5581 -0.3639
 1214TIP3    H125057   1.383   4.928  12.373 -0.0600 -2.3400 -0.8799
 1214TIP3    H225058   1.465   4.972  12.492  0.0031  0.1870 -1.7840
 1215TIP3   OH225059   1.085   3.030  16.056 -0.4057 -0.1773  0.0972
 1215TIP3    H125060   1.033   3.107  16.081  0.3279  0.1519  0.6633
 1215TIP3    H225061   1.175   3.057  16.070 -0.0452 -0.6136 -1.2145
 1216TIP3   OH225062   0.894   5.139   4.366  0.1887  0.4712  0.6545
 1216TIP3    H125063   0.886   5.085   4.445 -0.5401 -0.3198  0.0557
 1216TIP3    H225064   0.988   5.143   4.350  0.3124  0.1801  1.2560
 1217TIP3   OH225065   3.067   1.269  15.632 -0.0307  0.7535 -0.1104
 1217TIP3    H125066   3.099   1.303  15.715  1.0467 -2.7073  1.0645
 1217TIP3    H225067   3.145   1.259  15.578 -0.2569 -0.0832 -0.2998
 1218TIP3   OH225068   0.286   1.458   2.611 -0.0662  0.3409 -0.4108
 1218TIP3    H125069   0.381   1.466   2.623  0.4546 -0.4361 -3.3492
 1218TIP3    H225070   0.262   1.537   2.563 -0.5561 -0.3340 -1.2984
 1219TIP3   OH225071   5.161   1.067  14.801 -0.5764  0.0036  0.3952
 1219TIP3    H125072   5.116   1.136  14.851  1.1407  0.9199  0.7412
 1219TIP3    H225073   5.224   1.114  14.747  0.0705 -1.2526  0.0312
 1220TIP3   OH225074   0.297   0.958  16.138 -0.9406  0.0176 -0.3038
 1220TIP3    H125075   0.359   0.886  16.147 -0.1548  0.3684 -2.4769
 1220TIP3    H225076   0.293   0.997  16.225 -1.0372 -2.3330  0.8140
 1221TIP3   OH225077   3.814   5.752  12.418 -0.1362  0.0352 -0.2761
 1221TIP3    H125078   3.763   5.806  12.359 -1.2081 -1.3464 -0.6756
 1221TIP3    H225079   3.786   5.778  12.506  1.1158  1.7583 -0.3465
 1222TIP3   OH225080   1.622   3.552  11.715  0.3410 -0.3662 -0.4735
 1222TIP3    H125081   1.689   3.620  11.725 -0.1661  0.5375 -2.7114
 1222TIP3    H225082   1.559   3.589  11.653 -1.5028 -1.7539  0.4667
 1223TIP3   OH225083   1.744   4.778  15.783 -0.0652  0.1588  0.1988
 1223TIP3    H125084   1.780   4.853  15.735  1.2621 -0.9904 -0.6968
 1223TIP3    H225085   1.788   4.702  15.744  0.2563 -0.9312  2.5064
 1224TIP3   OH225086   3.753   6.639   4.293  0.8289  0.2118  0.3620
 1224TIP3    H125087   3.696   6.680   4.228 -0.3346  0.7861  1.6998
 1224TIP3    H225088   3.801   6.712   4.333 -0.4093  0.1910  1.9562
 1225TIP3   OH225089   1.022   4.035  12.092  0.1131 -0.1826  0.2518
 1225TIP3    H125090   1.084   4.105  12.111  0.8287 -1.3183  2.5326
 1225TIP3    H225091   1.057   3.993  12.013  0.8913  0.6496  0.1374
 1226TIP3   OH225092   1.560   6.330   4.675  0.7089  0.8392  0.6242
 1226TIP3    H125093   1.619   6.404   4.688 -1.6188  2.4231  3.6454
 1226TIP3    H225094   1.477   6.370   4.649  0.1109 -0.9892 -0.4373
 1227TIP3   OH225095   4.336   4.385   5.710  0.2295 -0.1152 -0.5557
 1227TIP3    H125096   4.282   4.420   5.640 -0.0141  1.8000  0.5137
 1227TIP3    H225097   4.273   4.359   5.778  0.3548 -3.2354 -1.4677
 1228TIP3   OH225098   6.444   5.465  14.122 -0.5013 -0.4467  0.0157
 1228TIP3    H125099   6.377   5.418  14.172 -0.2846 -2.0492 -1.1234
 1228TIP3    H225100   6.394   5.525  14.066 -0.9110 -0.7986  0.0024
 1229TIP3   OH225101   3.639   0.821  12.599 -0.6955 -0.0822  0.0479
 1229TIP3    H125102   3.643   0.916  12.589 -0.0017 -0.1879 -0.8495
 1229TIP3    H225103   3.545   0.801  12.601 -0.9187  0.8688  3.3035
 1230TIP3   OH225104   1.814   5.485   6.033 -0.0481  0.0761 -0.4041
 1230TIP3    H125105   1.730   5.440   6.040  0.6068 -0.8756  2.4845
 1230TIP3    H225106   1.874   5.418   6.000  0.6217 -0.8893  2.5457
 1231TIP3   OH225107   2.350   2.788  17.239  0.0654 -0.0193 -0.3092
 1231TIP3    H125108   2.281   2.798  17.173 -0.4319 -0.5107  0.1246
 1231TIP3    H225109   2.319   2.717  17.295  0.8526 -0.1353 -0.0097
 1232TIP3   OH225110   6.189   6.007  12.861 -0.2535  0.2112 -0.4315
 1232TIP3    H125111   6.190   6.092  12.816 -0.7727  0.2487 -0.3799
 1232TIP3    H225112   6.110   6.010  12.915  0.2145  0.0533  0.2733
 1233TIP3   OH225113   5.045   1.316   0.618 -0.3031  0.2058  0.2785
 1233TIP3    H125114   5.025   1.334   0.710  1.9193 -1.9274  1.3044
 1233TIP3    H225115   4.964   1.335   0.572 -1.6921  0.8058  2.7522
 1234TIP3   OH225116   4.967   2.802   0.594 -0.6130 -1.0895 -0.3969
 1234TIP3    H125117   4.903   2.761   0.535 -0.5922 -0.2999 -0.9830
 1234TIP3    H225118   5.036   2.833   0.535 -0.7261 -0.0335  0.0084
 1235TIP3   OH225119   3.248   1.677   0.725  0.0966 -0.1522 -0.0528
 1235TIP3    H125120   3.259   1.704   0.634  2.6184 -2.3111 -0.4983
 1235TIP3    H225121   3.319   1.616   0.741 -0.8408 -0.5996  3.1192
 1236TIP3   OH225122   0.825   1.774   2.840  0.2672  0.2184 -0.0983
 1236TIP3    H125123   0.884   1.718   2.890  1.0462 -0.0610 -1.2842
 1236TIP3    H225124   0.821   1.856   2.890  0.2989 -0.3700  0.8769
 1237TIP3   OH225125   3.346   1.179  12.820  0.2525  0.3948  0.3927
 1237TIP3    H125126   3.379   1.104  12.869 -0.5373  0.1543  0.5705
 1237TIP3    H225127   3.253   1.162  12.810  0.4412  0.2864 -1.4695
 1238TIP3   OH225128   5.510   1.216  16.173 -0.2112 -0.3274  0.1588
 1238TIP3    H125129   5.430   1.235  16.221 -0.4556  1.8444 -0.9984
 1238TIP3    H225130   5.482   1.201  16.083  0.5253 -1.4627  0.0903
 1239TIP3   OH225131   5.753   0.356  16.744 -0.0073  0.0559 -0.1992
 1239TIP3    H125132   5.715   0.268  16.749  2.1466 -0.9001  0.4642
 1239TIP3    H225133   5.833   0.345  16.692 -0.1653  1.8200 -0.8876
 1240TIP3   OH225134   2.170   3.957   0.511 -0.2686  0.2376 -0.1042
 1240TIP3    H125135   2.116   3.881   0.530 -0.8861  0.5324 -0.6264
 1240TIP3    H225136   2.258   3.934   0.542 -0.4035 -0.7671 -0.4509
 1241TIP3   OH225137   0.688   1.420   6.327  0.1051  0.2786  0.1652
 1241TIP3    H125138   0.777   1.400   6.297  0.2251  0.3848  0.4433
 1241TIP3    H225139   0.631   1.393   6.255  0.3557  0.1014  0.0342
 1242TIP3   OH225140   3.914   4.989   5.847 -0.4033 -0.1276 -0.4058
 1242TIP3    H125141   3.868   4.993   5.764 -0.2497  0.9457 -0.4510
 1242TIP3    H225142   3.845   4.991   5.913 -0.9671 -5.5562 -0.3584
 1243TIP3   OH225143   0.543   1.850   1.832  0.1798  0.1637  0.6563
 1243TIP3    H125144   0.485   1.876   1.761 -0.3332  0.5702  1.2169
 1243TIP3    H225145   0.629   1.883   1.805  0.5725 -1.9830 -1.0359
 1244TIP3   OH225146   1.950   0.144  10.437  0.2366 -0.2962  0.2046
 1244TIP3    H125147   1.867   0.162  10.392  1.2867 -0.6886 -1.9990
 1244TIP3    H225148   1.927   0.078  10.503 -1.2473 -0.1806 -0.1486
 1245TIP3   OH225149   3.612   2.456   2.503 -0.0490 -0.1528  0.0960
 1245TIP3    H125150   3.594   2.544   2.471  1.6703  0.0948 -0.2858
 1245TIP3    H225151   3.537   2.404   2.474 -0.8442  1.0706 -0.1011
 1246TIP3   OH225152   1.538   6.197  14.566 -0.2737  0.0416 -0.6199
 1246TIP3    H125153   1.597   6.209  14.491  0.4953  1.4972  0.1795
 1246TIP3    H225154   1.512   6.286  14.590 -1.5978 -0.4892  0.0157
 1247TIP3   OH225155   1.274   3.698   4.732  0.1396  0.1729 -0.4600
 1247TIP3    H125156   1.333   3.623   4.727  0.1678  0.1443  0.2263
 1247TIP3    H225157   1.331   3.774   4.719  0.1200  0.0900 -1.0910
 1248TIP3   OH225158   2.342   6.242   2.625  0.2623 -0.1909 -0.1913
 1248TIP3    H125159   2.302   6.182   2.562 -1.6291  0.1640  0.6145
 1248TIP3    H225160   2.409   6.188   2.668  1.2472 -0.5760 -2.0974
 1249TIP3   OH225161   3.515   2.607   0.506  0.0081 -0.0372  0.2749
 1249TIP3    H125162   3.605   2.587   0.480 -0.0200 -0.6248  0.6210
 1249TIP3    H225163   3.461   2.570   0.436  0.0909  2.2279 -1.1032
 1250TIP3   OH225164   1.998   3.852  15.254  0.0157  0.3074 -0.2623
 1250TIP3    H125165   2.054   3.803  15.314 -0.8786 -2.3372 -1.4446
 1250TIP3    H225166   1.929   3.790  15.230 -0.5179  1.7695 -2.8144
 1251TIP3   OH225167   2.474   6.658   3.089  0.1651  0.0128 -0.2733
 1251TIP3    H125168   2.560   6.656   3.130  0.0847 -1.1293 -0.1362
 1251TIP3    H225169   2.420   6.712   3.147  0.8503  0.9971 -0.5212
 1252TIP3   OH225170   0.012   1.057   0.363  0.4099  0.3966 -0.0960
 1252TIP3    H125171  -0.012   1.046   0.455 -1.3176  1.0704 -0.4147
 1252TIP3    H225172   0.101   1.022   0.356  0.3752 -0.1356  1.7105
 1253TIP3   OH225173   2.011   2.890   3.413 -0.3952  0.7911  0.2088
 1253TIP3    H125174   2.034   2.869   3.322 -0.3314  0.3035  0.3316
 1253TIP3    H225175   2.077   2.954   3.440  0.8962 -0.6324  0.5738
 1254TIP3   OH225176   6.090   3.668   2.711  0.2852 -0.6278  0.1395
 1254TIP3    H125177   6.038   3.617   2.648  2.4379 -1.9139 -0.7130
 1254TIP3    H225178   6.077   3.759   2.684 -1.5836 -0.8613  0.0661
 1255TIP3   OH225179   4.883   1.059   4.232 -0.4230  0.7249 -0.0699
 1255TIP3    H125180   4.882   0.964   4.218 -0.8764  0.6161  0.6743
 1255TIP3    H225181   4.975   1.083   4.226 -0.1233  0.0030  1.2638
 1256TIP3   OH225182   1.649   5.240   4.900  0.1390 -0.0444  0.0847
 1256TIP3    H125183   1.575   5.300   4.891 -0.0834 -0.1663  0.9744
 1256TIP3    H225184   1.641   5.205   4.989  0.4317 -1.1649 -0.3072
 1257TIP3   OH225185   2.068   3.511  16.447  0.0191  0.2876  0.3023
 1257TIP3    H125186   2.045   3.500  16.355 -0.8947 -0.0027  0.5587
 1257TIP3    H225187   2.160   3.539  16.446 -0.2794  1.2848 -0.7387
 1258TIP3   OH225188   4.363   1.773  12.207 -0.6318 -0.2309  0.1497
 1258TIP3    H125189   4.403   1.741  12.126  0.5234  0.1119  0.5712
 1258TIP3    H225190   4.269   1.758  12.195 -0.3365 -1.5971 -0.6290
 1259TIP3   OH225191   0.636   0.936   6.032 -0.7044 -0.1825 -0.1556
 1259TIP3    H125192   0.707   0.998   6.015 -1.9732  0.9234 -1.9098
 1259TIP3    H225193   0.676   0.865   6.082  1.0837  1.4890  0.9191
 1260TIP3   OH225194   0.565   1.559   0.615 -0.1532 -0.3610  0.3115
 1260TIP3    H125195   0.507   1.633   0.633 -1.1713 -1.5595  2.3385
 1260TIP3    H225196   0.506   1.491   0.581  0.2634 -1.1853  1.2177
 1261TIP3   OH225197   4.516   1.710  14.531  0.4299 -0.2127  0.1533
 1261TIP3    H125198   4.456   1.635  14.534 -0.2172  0.3148  2.1399
 1261TIP3    H225199   4.602   1.671  14.549  0.4826 -0.7737 -1.2178
 1262TIP3   OH225200   0.950   2.736  16.315  0.3279  0.3827 -0.2263
 1262TIP3    H125201   0.968   2.777  16.399 -1.7805  0.5977  0.1789
 1262TIP3    H225202   0.868   2.776  16.286  0.4781 -0.4253 -1.9066
 1263TIP3   OH225203   4.149   1.396   1.866 -0.1264  0.0184 -0.0085
 1263TIP3    H125204   4.076   1.456   1.852 -0.2990 -0.6753 -2.6815
 1263TIP3    H225205   4.108   1.312   1.886  0.0594  0.2490  1.4372
 1264TIP3   OH225206   1.683   5.809  14.713  0.4378 -0.0321  0.1654
 1264TIP3    H125207   1.734   5.782  14.790  0.0235 -2.6287 -0.3754
 1264TIP3    H225208   1.642   5.728  14.682 -0.4388  1.1791 -2.0421
 1265TIP3   OH225209   3.755   3.167   3.568  0.8546  0.3485  0.0976
 1265TIP3    H125210   3.830   3.123   3.527  0.7838  1.1230 -0.9100
 1265TIP3    H225211   3.700   3.194   3.495  0.1877  0.8487  0.7648
 1266TIP3   OH225212   5.621   4.908   5.442  0.0406  0.3225 -0.1264
 1266TIP3    H125213   5.590   4.989   5.401 -0.4498 -0.0273 -0.4553
 1266TIP3    H225214   5.565   4.896   5.518 -1.3639 -0.8588 -1.2946
 1267TIP3   OH225215   5.037   3.896  11.529  0.1756  0.4760  0.1875
 1267TIP3    H125216   5.031   3.893  11.624  0.1324 -0.6141  0.1693
 1267TIP3    H225217   4.959   3.943  11.501  1.2348  2.7236  0.7606
 1268TIP3   OH225218   2.558   3.590  14.124  0.3860  0.2112  0.1803
 1268TIP3    H125219   2.600   3.505  14.111 -0.4454 -0.4278  1.5062
 1268TIP3    H225220   2.465   3.571  14.127  0.0168  1.4917 -1.6872
 1269TIP3   OH225221   0.216   0.824   4.100  0.5969 -0.0226  0.1507
 1269TIP3    H125222   0.161   0.749   4.124  0.5075  0.4735  1.6016
 1269TIP3    H225223   0.181   0.854   4.016 -0.1576 -0.8561  0.1534
 1270TIP3   OH225224   6.204   3.526  11.095 -0.1955 -0.9552 -0.0991
 1270TIP3    H125225   6.144   3.452  11.107  0.2451 -1.2238  0.4766
 1270TIP3    H225226   6.171   3.594  11.153 -0.9240 -0.4893 -1.0365
 1271TIP3   OH225227   4.261   5.967  13.515 -0.5097 -0.1530 -0.5326
 1271TIP3    H125228   4.256   6.048  13.465 -1.8284 -0.4015 -0.8497
 1271TIP3    H225229   4.210   5.984  13.594 -0.0696 -0.4048 -0.1841
 1272TIP3   OH225230   0.662   2.783  11.227  1.0355  0.2378  0.3306
 1272TIP3    H125231   0.606   2.724  11.177 -0.5372 -0.8734  3.1318
 1272TIP3    H225232   0.655   2.867  11.183 -1.3073 -0.3505 -0.5659
 1273TIP3   OH225233   1.791   6.389  13.951 -0.1661  0.3328 -0.2441
 1273TIP3    H125234   1.879   6.425  13.951 -1.0720  2.9422 -2.4126
 1273TIP3    H225235   1.737   6.457  13.991 -1.3799 -0.6138 -0.2070
 1274TIP3   OH225236   3.199   4.945   6.552 -0.0033  0.0652  0.0160
 1274TIP3    H125237   3.127   4.885   6.574  0.4279 -0.6831 -0.5678
 1274TIP3    H225238   3.157   5.029   6.538 -1.0479 -0.7770 -2.2767
 1275TIP3   OH225239   0.602   0.258   5.365  0.1724 -0.2711 -0.1013
 1275TIP3    H125240   0.651   0.182   5.397 -1.2402 -0.9592  0.5100
 1275TIP3    H225241   0.511   0.238   5.387 -0.4884  0.6338 -1.8753
 1276TIP3   OH225242   0.544   3.138  16.667  0.0336  0.3402  0.0218
 1276TIP3    H125243   0.562   3.049  16.697  1.0892  0.9871  1.4109
 1276TIP3    H225244   0.482   3.173  16.731 -0.1590  0.7060 -0.3570
 1277TIP3   OH225245   4.097   3.014  14.336 -0.7999 -0.0790 -0.8237
 1277TIP3    H125246   4.179   3.031  14.289 -1.0707  0.4180 -1.1412
 1277TIP3    H225247   4.051   3.099  14.334 -0.2831  0.2922  1.4417
 1278TIP3   OH225248   3.306   2.709  13.445 -0.2281  0.0409 -0.4293
 1278TIP3    H125249   3.380   2.648  13.450 -0.4733 -0.2516 -0.2710
 1278TIP3    H225250   3.345   2.796  13.451 -0.0894 -0.1264  2.5344
 1279TIP3   OH225251   6.250   6.138   2.034 -0.2972 -0.2899  0.2220
 1279TIP3    H125252   6.203   6.073   2.085 -1.5821  0.0706 -0.4506
 1279TIP3    H225253   6.321   6.167   2.091  0.3487 -2.3115  0.5074
 1280TIP3   OH225254   2.087   2.765   5.734  0.1645 -0.8572  0.2557
 1280TIP3    H125255   2.048   2.842   5.694 -0.1945 -1.0065  0.3206
 1280TIP3    H225256   2.024   2.695   5.720  0.3317 -1.0618  0.5051
 1281TIP3   OH225257   1.412   1.664  10.952  0.7369 -0.4916 -0.4974
 1281TIP3    H125258   1.447   1.752  10.961  1.5701 -1.0329  2.5525
 1281TIP3    H225259   1.323   1.670  10.986  1.4711 -1.1494  1.6970
 1282TIP3   OH225260   4.013   1.411  15.349 -0.2926  0.2128  0.0460
 1282TIP3    H125261   4.071   1.486  15.364 -0.3466 -0.2144  2.9329
 1282TIP3    H225262   3.949   1.442  15.286  0.2336  2.3040  0.4757
 1283TIP3   OH225263   6.356   3.799   1.967 -0.0184  0.0165 -0.1765
 1283TIP3    H125264   6.390   3.822   1.881  0.0278 -0.3455 -0.2593
 1283TIP3    H225265   6.392   3.865   2.027  1.9907 -1.1323 -0.0254
 1284TIP3   OH225266   2.569   6.311   1.067  0.4147 -0.0969 -0.0414
 1284TIP3    H125267   2.613   6.395   1.055  0.8279 -0.3344 -0.1773
 1284TIP3    H225268   2.620   6.267   1.135  0.2658 -0.2867 -0.0519
 1285TIP3   OH225269   5.989   2.475  14.541 -0.3845  0.1281 -0.0576
 1285TIP3    H125270   6.060   2.451  14.600  0.7443  2.0533 -0.5610
 1285TIP3    H225271   5.920   2.411  14.560  1.0568 -1.1533  1.1850
 1286TIP3   OH225272   0.957   6.274   4.523  0.7825 -0.4344 -0.6134
 1286TIP3    H125273   1.006   6.269   4.442 -0.4556 -1.8466 -1.3275
 1286TIP3    H225274   1.024   6.281   4.591  1.8358  0.9737 -1.7239
 1287TIP3   OH225275   4.582   4.685  15.420 -0.0962 -0.1078 -0.1079
 1287TIP3    H125276   4.518   4.751  15.446  1.6952  1.8088 -0.3232
 1287TIP3    H225277   4.667   4.721  15.446  1.0946 -1.6493 -1.5883
 1288TIP3   OH225278   3.698   6.182  15.829 -0.3741 -0.2192 -0.8883
 1288TIP3    H125279   3.759   6.185  15.902 -3.6910 -1.0388  2.1676
 1288TIP3    H225280   3.702   6.091  15.798 -0.6997 -0.4993 -0.1089
 1289TIP3   OH225281   3.949   5.111  16.196 -0.1961  0.5980  0.3685
 1289TIP3    H125282   4.022   5.147  16.246 -0.1979  1.9242 -0.5432
 1289TIP3    H225283   3.874   5.121  16.255  0.2114 -0.1095  1.0303
 1290TIP3   OH225284   5.113   0.075   4.089  0.2299  0.4009 -0.0813
 1290TIP3    H125285   5.143   0.147   4.144 -0.6998 -0.5735  1.7819
 1290TIP3    H225286   5.048   0.115   4.031  0.8847  1.3495 -0.1953
 1291TIP3   OH225287   2.025   5.003  17.014 -0.3776  0.4423  0.0641
 1291TIP3    H125288   2.102   5.040  16.970 -1.2602  1.2480 -0.8609
 1291TIP3    H225289   1.980   5.079  17.052 -0.2029 -0.1288  1.4678
 1292TIP3   OH225290   0.187   0.964  13.625  0.5454 -0.4414  0.3600
 1292TIP3    H125291   0.172   0.975  13.719 -0.3451 -1.7311  0.3862
 1292TIP3    H225292   0.184   1.053  13.590  1.6376  0.1378  1.6415
 1293TIP3   OH225293   6.707   1.196   2.843  0.4393 -0.4386 -0.0616
 1293TIP3    H125294   6.776   1.253   2.877 -0.5287  0.4931  0.4231
 1293TIP3    H225295   6.685   1.139   2.916 -0.5586  0.5174  0.4246
 1294TIP3   OH225296   0.358   2.563  15.239 -0.3136  0.4620 -0.2246
 1294TIP3    H125297   0.419   2.578  15.310  2.3512 -0.1169 -2.2262
 1294TIP3    H225298   0.341   2.468  15.240 -2.7503  0.8306  1.4144
 1295TIP3   OH225299   4.543   5.509  13.498 -0.4599 -0.1991 -0.3271
 1295TIP3    H125300   4.601   5.549  13.563  1.4169  0.8731 -2.5368
 1295TIP3    H225301   4.469   5.569  13.491 -1.5481 -1.1478  1.8930
 1296TIP3   OH225302   0.178   1.330   2.867 -0.9973  0.2680 -0.0283
 1296TIP3    H125303   0.194   1.377   2.949 -2.7642  0.4599  0.2658
 1296TIP3    H225304   0.229   1.378   2.801 -0.0398  0.4807  0.8526
 1297TIP3   OH225305   3.701   5.760   4.551 -0.4599  0.3352  0.3468
 1297TIP3    H125306   3.747   5.841   4.572  1.4657 -0.9284  1.4156
 1297TIP3    H225307   3.640   5.747   4.623 -0.6800  0.7617  0.2387
 1298TIP3   OH225308   3.841   4.299  15.040 -0.5235 -0.0656  0.3793
 1298TIP3    H125309   3.790   4.238  14.986  0.8430  0.1326 -1.2164
 1298TIP3    H225310   3.886   4.243  15.104  0.1101 -0.6745 -0.5730
 1299TIP3   OH225311   0.566   0.459   5.177 -0.0743 -0.0770  1.0235
 1299TIP3    H125312   0.566   0.394   5.247  1.0286 -0.6015  0.5601
 1299TIP3    H225313   0.511   0.419   5.109  1.2708 -0.9318  0.4036
 1300TIP3   OH225314   2.339   2.969  13.613  0.0616 -0.1561 -0.5060
 1300TIP3    H125315   2.275   2.987  13.545  0.3564 -0.4949 -0.8765
 1300TIP3    H225316   2.321   3.035  13.681 -1.7427 -1.2332  0.1422
 1301TIP3   OH225317   4.498   4.624  16.541  0.4038 -0.4869  0.9325
 1301TIP3    H125318   4.418   4.573  16.528  1.4378 -2.5664  2.1313
 1301TIP3    H225319   4.549   4.609  16.462 -0.1911  0.5175  0.3399
 1302TIP3   OH225320   2.915   2.209   5.816 -0.7492  0.1128  0.0195
 1302TIP3    H125321   2.874   2.270   5.878 -0.6522 -0.9115  1.1300
 1302TIP3    H225322   2.846   2.189   5.753 -0.9962  0.8266  0.0528
 1303TIP3   OH225323   1.735   1.604  16.599  0.3969 -0.4253  0.0643
 1303TIP3    H125324   1.799   1.549  16.554  0.2266  0.5801 -1.4883
 1303TIP3    H225325   1.653   1.554  16.593  0.4189 -0.3974 -0.6031
 1304TIP3   OH225326   4.140   4.088  13.925 -0.1242  0.6669 -0.1464
 1304TIP3    H125327   4.181   4.154  13.981 -1.9398  0.9933  0.8860
 1304TIP3    H225328   4.110   4.137  13.848  1.8006  0.3311 -1.1749
 1305TIP3   OH225329   3.622   1.862  11.065 -0.5307 -0.2869  0.6519
 1305TIP3    H125330   3.665   1.801  11.005 -1.6677 -1.6735  1.1601
 1305TIP3    H225331   3.621   1.946  11.019 -0.4775 -1.0813 -0.8473
 1306TIP3   OH225332   2.882   0.098   0.164 -0.5707 -0.2825 -0.3214
 1306TIP3    H125333   2.859   0.006   0.182 -2.4736  0.1310 -0.4354
 1306TIP3    H225334   2.860   0.110   0.072 -2.3569  0.8059  0.1952
 1307TIP3   OH225335   6.093   6.085   0.588  0.2700 -0.0414  0.0083
 1307TIP3    H125336   6.134   6.010   0.630  1.2748  0.2818 -0.3755
 1307TIP3    H225337   6.062   6.140   0.661  1.0261 -0.0144  0.3108
 1308TIP3   OH225338   6.432   6.497  16.687  0.0978  0.0042  0.0106
 1308TIP3    H125339   6.436   6.493  16.782 -0.2985  1.9767  0.1460
 1308TIP3    H225340   6.341   6.476  16.666 -0.5438  2.2025  0.3107
 1309TIP3   OH225341   0.005   0.631   4.148  0.2905 -0.2313  0.3856
 1309TIP3    H125342   0.030   0.544   4.119 -0.4153 -0.2996 -0.0216
 1309TIP3    H225343  -0.065   0.658   4.089  0.1329  0.3958  0.8397
 1310TIP3   OH225344   4.431   4.019  13.404  0.5043 -0.3318 -0.0714
 1310TIP3    H125345   4.466   3.938  13.441 -0.1114 -1.5527 -1.9861
 1310TIP3    H225346   4.500   4.050  13.345 -0.3681 -1.1216 -1.5777
 1311TIP3   OH225347   1.956   1.555   5.727  0.5349  0.0703  0.5517
 1311TIP3    H125348   1.863   1.539   5.744  0.2806 -0.8460 -1.4829
 1311TIP3    H225349   1.971   1.643   5.762 -1.4700  0.8330 -0.3410
 1312TIP3   OH225350   4.504   3.412   4.570  0.1191  0.4088 -0.3554
 1312TIP3    H125351   4.511   3.501   4.604 -0.9749  0.3513  0.0459
 1312TIP3    H225352   4.587   3.370   4.596 -0.9659  0.0902  3.1102
 1313TIP3   OH225353   5.321   5.554   6.491  0.0413  0.2590  0.3090
 1313TIP3    H125354   5.259   5.490   6.525 -0.3281  0.0437 -0.7551
 1313TIP3    H225355   5.322   5.623   6.558 -0.4424 -0.2856  0.8986
 1314TIP3   OH225356   6.544   3.258   0.198 -0.7573  0.2961  0.0355
 1314TIP3    H125357   6.550   3.163   0.191 -0.9050  0.2486  0.5575
 1314TIP3    H225358   6.455   3.274   0.228 -0.4122  0.5475  0.9350
 1315TIP3   OH225359   3.885   4.386  12.383  0.5484 -0.1404 -0.1718
 1315TIP3    H125360   3.859   4.375  12.475  0.4834  1.0203 -0.0383
 1315TIP3    H225361   3.971   4.345  12.377  0.3092 -0.7297  0.2607
 1316TIP3   OH225362   2.098   6.117  15.842 -0.4610  1.0824  0.0168
 1316TIP3    H125363   2.034   6.141  15.775 -2.1354  0.8198  1.4455
 1316TIP3    H225364   2.158   6.191  15.846  0.9081  0.3015 -3.1025
 1317TIP3   OH225365   1.317   4.124  11.855 -0.0731  0.2067 -0.5115
 1317TIP3    H125366   1.265   4.177  11.795 -0.7511  1.2995  0.9795
 1317TIP3    H225367   1.373   4.187  11.902 -0.5117 -0.4139  0.9199
 1318TIP3   OH225368   1.422   3.843  11.882 -0.1810 -0.9362  0.2908
 1318TIP3    H125369   1.399   3.854  11.790 -1.7405 -1.2538  0.6102
 1318TIP3    H225370   1.406   3.929  11.922 -1.4137 -1.2872  0.6119
 1319TIP3   OH225371   4.331   0.815  14.397  0.8375  0.1139 -0.0843
 1319TIP3    H125372   4.380   0.894  14.421 -1.5811  1.1179  2.0875
 1319TIP3    H225373   4.254   0.848  14.351  1.0498 -1.2153 -1.4390
 1320TIP3   OH225374   1.950   1.531   6.117 -0.6694  0.2751  0.1076
 1320TIP3    H125375   1.993   1.516   6.201 -0.9889 -0.9107  0.0798
 1320TIP3    H225376   1.877   1.590   6.137 -0.0641  0.9113  0.4525
 1321TIP3   OH225377   5.365   3.585   3.339 -0.2190  0.0026 -0.0752
 1321TIP3    H125378   5.427   3.563   3.408 -0.8646  0.4247  0.6462
 1321TIP3    H225379   5.310   3.653   3.376 -0.5837  0.2276 -1.0045
 1322TIP3   OH225380   5.006   1.263   5.485 -0.4801  0.7774 -0.6873
 1322TIP3    H125381   5.005   1.192   5.421 -0.4840  0.7043 -0.6071
 1322TIP3    H225382   5.096   1.264   5.518 -0.8074 -0.0788  0.2883
 1323TIP3   OH225383   4.552   2.130  12.966 -0.1002 -0.5291  0.5467
 1323TIP3    H125384   4.603   2.211  12.971 -2.4728  1.1324 -0.3262
 1323TIP3    H225385   4.524   2.114  13.056  1.1465 -0.9539  0.8821
 1324TIP3   OH225386   0.994   4.981  11.104 -0.4999 -0.2844  0.4670
 1324TIP3    H125387   0.933   4.984  11.031 -1.2818  1.2733  1.1496
 1324TIP3    H225388   1.073   5.024  11.072 -0.3291 -0.8376  0.1198
 1325TIP3   OH225389   4.475   1.721   1.598  0.5255  0.2713  0.2375
 1325TIP3    H125390   4.443   1.672   1.522  1.1171  0.8039 -0.3809
 1325TIP3    H225391   4.432   1.681   1.673 -0.2193 -0.1512 -0.3974
 1326TIP3   OH225392   2.653   3.846  12.136 -0.1892  1.0562 -0.0513
 1326TIP3    H125393   2.577   3.863  12.080 -0.2370 -0.0095 -0.3446
 1326TIP3    H225394   2.654   3.750  12.145  1.4582  1.0052 -0.5240
 1327TIP3   OH225395   0.056   1.201  15.778 -0.7397  0.4726  0.0181
 1327TIP3    H125396  -0.035   1.186  15.806 -0.7780  0.8212  0.0792
 1327TIP3    H225397   0.105   1.128  15.817 -1.1093 -0.1316 -0.6208
 1328TIP3   OH225398   3.900   4.387   4.405  0.0944  0.0161 -0.4661
 1328TIP3    H125399   3.828   4.358   4.349  0.3972  0.6110 -1.1898
 1328TIP3    H225400   3.940   4.459   4.356  0.6183  0.2851  0.3429
 1329TIP3   OH225401   4.741   0.089   4.160  0.3925 -0.0115 -0.3502
 1329TIP3    H125402   4.778   0.133   4.237  1.0313 -0.1509 -0.5736
 1329TIP3    H225403   4.647   0.090   4.175  0.5153 -0.1351  0.4927
 1330TIP3   OH225404   1.533   6.173  12.532 -0.0523 -0.1747  0.1754
 1330TIP3    H125405   1.578   6.125  12.601  0.6934 -0.0051 -0.1871
 1330TIP3    H225406   1.594   6.241  12.505 -1.5466  1.8505  1.5535
 1331TIP3   OH225407   1.827   2.915  15.204 -0.7598 -0.1147 -0.0131
 1331TIP3    H125408   1.902   2.897  15.147  0.2084  1.2902  0.7516
 1331TIP3    H225409   1.761   2.951  15.146 -0.7978 -1.2245 -0.6770
 1332TIP3   OH225410   1.495   3.685   0.480 -0.6977 -0.1266  0.2073
 1332TIP3    H125411   1.544   3.609   0.449  0.4280 -0.8927  3.4948
 1332TIP3    H225412   1.404   3.654   0.484 -0.8880 -0.0092 -2.0343
 1333TIP3   OH225413   4.981   1.512  13.653 -0.0910 -0.0570 -0.6261
 1333TIP3    H125414   4.927   1.438  13.680 -0.6138  0.6877  0.4489
 1333TIP3    H225415   4.929   1.556  13.585 -0.9899  0.7865  0.5635
 1334TIP3   OH225416   3.348   1.880   2.144  0.8222  0.3531 -0.1713
 1334TIP3    H125417   3.408   1.942   2.102 -0.0444  0.9891 -0.4927
 1334TIP3    H225418   3.336   1.915   2.232 -0.5756  1.3317 -0.7091
 1335TIP3   OH225419   4.832   1.942   3.695 -0.4509  0.0703 -0.4820
 1335TIP3    H125420   4.861   1.855   3.721  0.9220  0.5044 -0.4547
 1335TIP3    H225421   4.910   1.982   3.655 -1.0636  1.2540 -0.5331
 1336TIP3   OH225422   1.106   0.613  15.759 -0.2832  0.1975 -0.3370
 1336TIP3    H125423   1.061   0.648  15.836 -0.5700  0.8504 -0.8008
 1336TIP3    H225424   1.086   0.674  15.689  1.3746  0.5490 -0.5398
 1337TIP3   OH225425   4.363   5.124   5.500  0.7052 -0.0983  0.0198
 1337TIP3    H125426   4.456   5.125   5.525  1.3174 -1.6016 -1.8419
 1337TIP3    H225427   4.343   5.031   5.490 -1.2757  0.1684  1.1616
 1338TIP3   OH225428   2.168   1.922   1.858 -0.1020 -0.3951 -0.5896
 1338TIP3    H125429   2.234   1.912   1.927  0.2314 -2.3334 -1.1240
 1338TIP3    H225430   2.149   2.016   1.856  1.8715  0.0708  0.2927
 1339TIP3   OH225431   0.161   6.368   1.795 -0.0363  0.5139  0.2990
 1339TIP3    H125432   0.220   6.365   1.870 -1.0980  2.6391  1.3310
 1339TIP3    H225433   0.204   6.426   1.732  0.6230 -0.8714 -0.5737
 1340TIP3   OH225434   1.358   5.612  13.473  0.6079  0.1012  0.1518
 1340TIP3    H125435   1.299   5.608  13.397  0.1620  2.7923  0.2414
 1340TIP3    H225436   1.387   5.522  13.486 -3.2060 -1.3523 -0.1370
 1341TIP3   OH225437   4.430   3.080   4.117 -0.4918 -0.4157 -0.1136
 1341TIP3    H125438   4.470   3.162   4.144 -1.6305  0.3365 -0.6320
 1341TIP3    H225439   4.337   3.089   4.140 -1.0505 -0.6748 -2.0323
 1342TIP3   OH225440   2.807   0.274  14.244 -0.6043 -0.6531 -0.3305
 1342TIP3    H125441   2.756   0.240  14.317  0.5484 -4.0522 -0.9505
 1342TIP3    H225442   2.744   0.287  14.174 -1.1091 -1.5275 -0.0529
 1343TIP3   OH225443   4.030   2.715   0.519  0.1944 -0.3246 -0.4346
 1343TIP3    H125444   4.037   2.673   0.604  1.0074  1.4239  0.4279
 1343TIP3    H225445   4.112   2.694   0.475  0.6503  0.3803  0.0416
 1344TIP3   OH225446   1.605   1.412  14.769  0.1418  0.1089 -0.1334
 1344TIP3    H125447   1.547   1.384  14.839 -1.6376  0.9490 -1.1983
 1344TIP3    H225448   1.642   1.331  14.735 -2.7312 -0.8385 -1.3310
 1345TIP3   OH225449   6.756   3.306  11.259 -0.0403  0.2132  0.2896
 1345TIP3    H125450   6.814   3.332  11.331  0.9715  1.2541 -0.8449
 1345TIP3    H225451   6.752   3.384  11.203 -3.2405  0.4792  0.7296
 1346TIP3   OH225452   1.207   4.846  16.379 -0.0592 -0.3460  0.5450
 1346TIP3    H125453   1.278   4.795  16.416  1.3578  1.2416  0.1385
 1346TIP3    H225454   1.171   4.894  16.454  0.9387  0.7063  0.3727
 1347TIP3   OH225455   3.141   4.141   3.288  0.5999  0.5520 -0.0976
 1347TIP3    H125456   3.186   4.197   3.224 -0.9121  0.7045 -1.0800
 1347TIP3    H225457   3.052   4.175   3.291  0.0899 -0.7832  0.5470
 1348TIP3   OH225458   6.766   5.535   4.627  0.6162  0.1983 -0.0521
 1348TIP3    H125459   6.745   5.461   4.684  0.3119 -0.5119 -1.0675
 1348TIP3    H225460   6.723   5.515   4.544 -0.7555  2.2470  0.0987
 1349TIP3   OH225461   5.453   4.499  11.930 -0.1186 -0.5433 -0.0223
 1349TIP3    H125462   5.505   4.578  11.921 -0.3528 -0.3408  0.3912
 1349TIP3    H225463   5.362   4.529  11.929 -0.2185 -0.8387 -0.1890
 1350TIP3   OH225464   6.181   2.067   1.084  0.3518 -0.2971 -0.1506
 1350TIP3    H125465   6.173   2.004   1.156 -0.3239  1.4059  1.3419
 1350TIP3    H225466   6.099   2.057   1.035 -0.0103 -0.2178  0.4225
 1351TIP3   OH225467   0.510   5.157  13.571 -0.1118 -0.1008  0.4652
 1351TIP3    H125468   0.508   5.253  13.569  1.1310 -0.0203  1.7280
 1351TIP3    H225469   0.424   5.131  13.538 -0.5491  1.4485  0.2949
 1352TIP3   OH225470   2.255   5.089  16.897  0.1123  0.0592  0.1287
 1352TIP3    H125471   2.223   5.159  16.841 -0.9112  0.5915  1.3333
 1352TIP3    H225472   2.337   5.061  16.856 -0.1336  1.0495 -1.0944
 1353TIP3   OH225473   3.062   5.262  15.535  0.2328  0.7184 -0.5244
 1353TIP3    H125474   3.008   5.327  15.578 -1.5041 -0.3122 -1.0492
 1353TIP3    H225475   3.146   5.306  15.519 -0.3578  2.2760  0.5350
 1354TIP3   OH225476   4.361   2.957  10.860 -0.0004  0.0163  0.2067
 1354TIP3    H125477   4.340   2.867  10.837 -0.7260  0.0003  0.8875
 1354TIP3    H225478   4.403   2.950  10.946  0.3884  0.2882  0.0438
 1355TIP3   OH225479   6.457   1.298   4.423  0.0485  0.1775 -0.6989
 1355TIP3    H125480   6.507   1.366   4.377  0.4359  0.7445  0.5028
 1355TIP3    H225481   6.373   1.295   4.378  0.8163 -0.1343 -2.1784
 1356TIP3   OH225482   3.312   5.649   0.316 -0.2258 -0.2892  0.3645
 1356TIP3    H125483   3.275   5.585   0.377 -1.2773 -0.5472 -0.5077
 1356TIP3    H225484   3.241   5.667   0.254  0.3764  0.9813  0.0086
 1357TIP3   OH225485   6.324   1.584   1.420  0.0842 -0.0382 -0.4278
 1357TIP3    H125486   6.360   1.528   1.352 -0.3284 -0.2035 -0.5134
 1357TIP3    H225487   6.365   1.554   1.501 -0.6467 -0.9199 -0.3739
 1358TIP3   OH225488   5.372   5.278   4.713 -0.1590  0.5598 -0.1313
 1358TIP3    H125489   5.295   5.295   4.768  0.8700  1.5837  1.0439
 1358TIP3    H225490   5.443   5.264   4.775  0.6227 -0.4333 -1.2012
 1359TIP3   OH225491   5.008   3.454  14.927 -0.4588  0.4956  0.4349
 1359TIP3    H125492   4.925   3.407  14.920  0.5858 -1.3586 -0.1409
 1359TIP3    H225493   5.020   3.495  14.842 -1.9085  2.8618  1.2856
 1360TIP3   OH225494   1.444   2.546   0.691  0.0487  0.3251 -0.0549
 1360TIP3    H125495   1.524   2.514   0.648  0.3364  0.3233  0.4801
 1360TIP3    H225496   1.417   2.474   0.748  0.4025  0.8263  0.7563
 1361TIP3   OH225497   1.928   0.586  16.965  0.2677 -0.3449 -0.2567
 1361TIP3    H125498   1.974   0.659  17.006  0.5210  0.2452 -1.5187
 1361TIP3    H225499   1.998   0.535  16.924  0.1656 -1.7252  1.2195
 1362TIP3   OH225500   1.624   5.528  13.996  0.2576 -0.0251 -0.2450
 1362TIP3    H125501   1.693   5.505  13.934  0.4464  2.6867 -1.2061
 1362TIP3    H225502   1.642   5.475  14.073  2.0188 -1.0936 -1.3198
 1363TIP3   OH225503   2.936   2.297   2.767 -0.4744  0.3546 -0.4942
 1363TIP3    H125504   2.945   2.387   2.798  0.7232 -0.2556  1.0554
 1363TIP3    H225505   3.026   2.265   2.761 -0.9144 -0.9215 -0.4622
 1364TIP3   OH225506   6.313   4.067  15.626  0.2037  0.0739  0.3374
 1364TIP3    H125507   6.220   4.088  15.632 -1.2571 -4.2587 -2.5172
 1364TIP3    H225508   6.352   4.141  15.581 -3.1925 -0.2325 -3.7159
 1365TIP3   OH225509   2.799   3.583   5.786  0.6793  0.0781 -0.9235
 1365TIP3    H125510   2.837   3.542   5.709  1.4558 -1.5669  0.2835
 1365TIP3    H225511   2.787   3.511   5.849  0.7477  1.4684  0.7612
 1366TIP3   OH225512   5.427   2.684   5.449 -0.5525 -0.1761 -0.1236
 1366TIP3    H125513   5.442   2.625   5.523 -0.6967  0.7488  0.6657
 1366TIP3    H225514   5.350   2.734   5.474 -1.1139 -0.4423 -1.2977
 1367TIP3   OH225515   1.312   0.175  11.287  0.4921 -0.0428  0.2593
 1367TIP3    H125516   1.287   0.173  11.195  0.0518 -0.5255  0.3840
 1367TIP3    H225517   1.383   0.239  11.291  0.7679 -0.2939 -0.4739
 1368TIP3   OH225518   1.278   2.092   1.287 -0.3938  0.1628  0.0842
 1368TIP3    H125519   1.207   2.112   1.227  0.3249  0.6012 -0.6336
 1368TIP3    H225520   1.353   2.074   1.231 -0.1445 -1.1515  0.8141
 1369TIP3   OH225521   4.560   5.713   4.344 -0.0298 -0.4264  0.8971
 1369TIP3    H125522   4.577   5.794   4.391  0.1369 -0.3445  0.6949
 1369TIP3    H225523   4.524   5.654   4.410 -1.3460  0.2075  0.7813
 1370TIP3   OH225524   1.062   2.898  15.300  0.1351  0.3122 -0.1340
 1370TIP3    H125525   1.024   2.986  15.298 -0.2020  0.1825 -2.6082
 1370TIP3    H225526   0.997   2.845  15.347 -1.4999  0.6846 -1.8235
 1371TIP3   OH225527   3.362   3.508   4.027 -0.3864 -0.3253 -0.4834
 1371TIP3    H125528   3.409   3.464   3.956 -1.9522 -2.0001 -0.5812
 1371TIP3    H225529   3.286   3.547   3.985 -0.3823  0.2224  0.0105
 1372TIP3   OH225530   0.137   4.168  15.562  0.7204  0.0964  0.3690
 1372TIP3    H125531   0.187   4.243  15.530  0.1627  0.8254  1.1578
 1372TIP3    H225532   0.046   4.195  15.556  0.2862 -1.5908 -1.9985
 1373TIP3   OH225533   5.826   0.580  13.555  0.1327 -0.3188 -0.5323
 1373TIP3    H125534   5.749   0.624  13.519 -0.5657 -1.5319 -0.5841
 1373TIP3    H225535   5.816   0.588  13.650 -0.3328 -0.9114 -0.5269
 1374TIP3   OH225536   1.134   0.031   5.651 -0.0879 -0.7636 -0.2656
 1374TIP3    H125537   1.184  -0.046   5.626 -1.6153 -1.3083 -1.9177
 1374TIP3    H225538   1.046  -0.003   5.671  0.2256  0.0592  3.1220
 1375TIP3   OH225539   4.335   6.674   6.604  0.1306 -0.1866  0.9411
 1375TIP3    H125540   4.299   6.749   6.557  1.2678 -0.6166 -0.7144
 1375TIP3    H225541   4.262   6.641   6.657 -1.4785 -0.1162 -1.0950
 1376TIP3   OH225542   3.135   2.315   4.153  0.0237  0.0092  0.0802
 1376TIP3    H125543   3.094   2.233   4.126  1.7009 -0.9982  0.4146
 1376TIP3    H225544   3.221   2.315   4.110 -0.1762  1.9122 -0.4268
 1377TIP3   OH225545   6.751   2.950  12.159  0.0886  0.0059  0.6803
 1377TIP3    H125546   6.791   3.015  12.218  0.3542 -0.7829  1.3906
 1377TIP3    H225547   6.825   2.912  12.112 -0.0513  0.1194  0.3691
 1378TIP3   OH225548   4.104   4.870  15.797 -0.5186  0.4920  0.6232
 1378TIP3    H125549   4.055   4.802  15.844  1.7615 -1.7995 -0.0574
 1378TIP3    H225550   4.191   4.868  15.837 -0.5113  3.5656  0.9946
 1379TIP3   OH225551   2.548   3.778   5.422 -0.7999  0.2671 -0.1587
 1379TIP3    H125552   2.608   3.785   5.347 -1.6657  2.1248 -0.7364
 1379TIP3    H225553   2.544   3.684   5.440 -2.0164 -0.5249 -3.6668
 1380TIP3   OH225554   5.605   0.892   6.216  0.4113  0.0739  0.1951
 1380TIP3    H125555   5.615   0.974   6.167 -0.7995 -0.7060 -1.4454
 1380TIP3    H225556   5.520   0.900   6.259  0.3686 -0.2536  0.1720
 1381TIP3   OH225557   3.074   6.385   1.985 -0.5593 -0.6628  0.0080
 1381TIP3    H125558   3.096   6.296   2.013  2.4700  0.5115  1.7983
 1381TIP3    H225559   3.038   6.427   2.063 -0.0505  0.2422 -0.2286
 1382TIP3   OH225560   2.293   3.336   1.355  1.1222 -0.1891 -0.8320
 1382TIP3    H125561   2.278   3.346   1.449  1.0794 -0.1912 -0.8382
 1382TIP3    H225562   2.263   3.247   1.336 -1.2686  0.6393 -1.2904
 1383TIP3   OH225563   4.741   3.441   2.747 -0.4194  0.0726 -0.3802
 1383TIP3    H125564   4.768   3.530   2.722  0.0553  0.1554  0.3710
 1383TIP3    H225565   4.657   3.428   2.704 -0.0940  0.5656 -1.1945
 1384TIP3   OH225566   6.423   0.462  15.230  0.8281  0.2642  0.3364
 1384TIP3    H125567   6.501   0.490  15.182  1.8786 -1.2252  1.1102
 1384TIP3    H225568   6.457   0.410  15.303 -0.7479  1.7212  2.2311
 1385TIP3   OH225569   3.023   5.492  14.207 -0.2214  0.8690  0.5034
 1385TIP3    H125570   3.019   5.417  14.267 -0.8913  1.1342  0.8049
 1385TIP3    H225571   3.042   5.567  14.265 -0.7501  1.1075  0.3733
 1386TIP3   OH225572   4.906   4.825  13.321  0.0688  0.0313  0.1131
 1386TIP3    H125573   4.886   4.791  13.234  2.3033 -0.6599 -0.1920
 1386TIP3    H225574   4.918   4.919  13.308  0.3863 -0.0678 -0.3540
 1387TIP3   OH225575   3.587   1.840  16.272  0.4615 -0.1400 -0.2339
 1387TIP3    H125576   3.538   1.817  16.350 -0.7757 -1.5914 -1.3676
 1387TIP3    H225577   3.530   1.899  16.223  0.7820 -0.0495 -0.5082
 1388TIP3   OH225578   5.357   6.705  11.359 -1.1003 -0.5726 -0.0839
 1388TIP3    H125579   5.431   6.699  11.299  0.3234  1.3556  1.3723
 1388TIP3    H225580   5.281   6.713  11.302  0.3065  2.5128 -1.7337
 1389TIP3   OH225581   4.327   3.159  14.734  0.6038 -0.2095  0.5272
 1389TIP3    H125582   4.292   3.118  14.655 -0.2374  0.8467  0.3261
 1389TIP3    H225583   4.390   3.224  14.701 -2.1243  2.6212  0.4105
 1390TIP3   OH225584   3.431   1.600  13.294  0.0723  0.3390  0.8901
 1390TIP3    H125585   3.406   1.520  13.342  0.1087  0.4054  1.0205
 1390TIP3    H225586   3.524   1.612  13.314  0.8016 -1.0858 -1.2812
 1391TIP3   OH225587   3.785   2.455  16.610  0.0075  0.3226  0.6451
 1391TIP3    H125588   3.784   2.520  16.540  2.1144 -0.7929 -0.5310
 1391TIP3    H225589   3.719   2.390  16.583  0.7214 -0.0412 -0.2852
 1392TIP3   OH225590   3.955   6.599  11.110 -0.0413 -0.4333  0.6741
 1392TIP3    H125591   3.916   6.512  11.101  2.7209 -1.7579  0.3860
 1392TIP3    H225592   4.002   6.597  11.193 -1.1591  1.3893  1.4293
 1393TIP3   OH225593   2.479   0.286  13.354  0.1961  0.1749 -0.6325
 1393TIP3    H125594   2.410   0.247  13.407 -1.5883  1.8578 -1.5883
 1393TIP3    H225595   2.466   0.250  13.266  0.0861  1.0008 -0.9676
 1394TIP3   OH225596   5.142   3.020   6.262  0.1154  0.4582 -0.0897
 1394TIP3    H125597   5.104   3.055   6.342  2.1450  0.1810  1.0608
 1394TIP3    H225598   5.174   3.097   6.215 -0.9392  0.6060 -0.6096
 1395TIP3   OH225599   5.838   2.063  16.377  0.2278  0.3835 -0.1923
 1395TIP3    H125600   5.780   1.986  16.379  0.0057  0.5596  0.3874
 1395TIP3    H225601   5.871   2.066  16.288  1.3430 -1.2077  0.1212
 1396TIP3   OH225602   0.010   1.514  11.499  0.3087 -0.1411  0.5424
 1396TIP3    H125603  -0.086   1.511  11.489  0.2937 -0.8770  0.8371
 1396TIP3    H225604   0.028   1.605  11.521 -0.4174 -0.1505  1.2578
 1397TIP3   OH225605   1.784   3.407  14.577  0.3155  0.1196 -0.7889
 1397TIP3    H125606   1.771   3.501  14.561  0.2445  0.2968  0.2342
 1397TIP3    H225607   1.702   3.378  14.617  0.9399 -0.0034  0.4563
 1398TIP3   OH225608   4.500   0.030  13.933 -0.0881  0.6661 -0.4200
 1398TIP3    H125609   4.454   0.063  14.010  0.1843 -0.3926  0.2163
 1398TIP3    H225610   4.509   0.106  13.876 -0.6946  1.3675  0.3956
 1399TIP3   OH225611   6.722   5.899  13.079  0.0453  0.3938  0.3091
 1399TIP3    H125612   6.779   5.933  13.149  0.3083  0.7986 -0.0967
 1399TIP3    H225613   6.774   5.829  13.039 -0.5340 -0.5889  1.2091
 1400TIP3   OH225614   0.629   1.696   4.594  0.4286 -0.0796  0.2734
 1400TIP3    H125615   0.659   1.786   4.611 -1.6486  0.6203  0.5687
 1400TIP3    H225616   0.708   1.643   4.597  1.5329  1.5432  1.5271
 1401TIP3   OH225617   5.860   1.397   3.058 -0.1053 -0.4960  0.2303
 1401TIP3    H125618   5.947   1.424   3.029  0.2430 -1.1471  0.6494
 1401TIP3    H225619   5.805   1.408   2.981 -0.2700  2.5270  0.6473
 1402TIP3   OH225620   6.010   4.134   0.938 -0.1891 -0.2332  0.4883
 1402TIP3    H125621   6.087   4.086   0.906 -0.8168 -0.0911 -1.3158
 1402TIP3    H225622   5.935   4.080   0.911 -0.8604  1.2344 -0.6957
 1403TIP3   OH225623   1.949   0.756  10.787 -0.0259  0.3559  0.2022
 1403TIP3    H125624   1.856   0.748  10.808  0.1761  1.3220  1.6509
 1403TIP3    H225625   1.993   0.732  10.869  0.9654  0.7942 -0.1956
 1404TIP3   OH225626   0.596   5.794  13.492 -0.6486 -0.1538  0.3523
 1404TIP3    H125627   0.579   5.873  13.439  0.1546  0.9361  1.6468
 1404TIP3    H225628   0.644   5.736  13.433 -0.3474  0.7611 -0.3381
 1405TIP3   OH225629   4.839   6.187   2.826 -0.3553  0.3584 -0.7441
 1405TIP3    H125630   4.910   6.132   2.794 -1.0586 -1.4067  0.5397
 1405TIP3    H225631   4.765   6.127   2.837 -1.0108  1.4401  1.2263
 1406TIP3   OH225632   4.042   0.937  12.622  0.0435  0.1928 -0.1055
 1406TIP3    H125633   4.115   0.874  12.619  0.2724  0.3791  1.0441
 1406TIP3    H225634   4.044   0.971  12.711 -2.1279 -0.5783  0.2900
 1407TIP3   OH225635   4.522   4.336   0.532 -0.1695  0.1185 -0.7221
 1407TIP3    H125636   4.527   4.245   0.560 -0.8093  0.4040  0.3812
 1407TIP3    H225637   4.505   4.332   0.438 -0.0498 -0.8893 -0.7047
 1408TIP3   OH225638   3.058   0.398  11.568 -0.2868  0.6150 -0.4842
 1408TIP3    H125639   3.077   0.333  11.500 -1.5705  1.8366 -2.1002
 1408TIP3    H225640   3.079   0.482  11.528  0.2841  1.3091  1.1682
 1409TIP3   OH225641   1.673   2.446   5.371 -0.0204 -0.2689  0.5118
 1409TIP3    H125642   1.706   2.385   5.437  0.8658  0.6762  0.9688
 1409TIP3    H225643   1.692   2.533   5.406  0.7911  0.2686 -1.1255
 1410TIP3   OH225644   0.511   4.376   5.971  0.0163  0.1573 -0.2150
 1410TIP3    H125645   0.447   4.313   6.007  0.2231  0.5764  0.9214
 1410TIP3    H225646   0.520   4.442   6.039  0.2134  1.1419 -1.1805
 1411TIP3   OH225647   5.299   1.232  10.624  0.7142  0.0263 -0.4671
 1411TIP3    H125648   5.249   1.226  10.543 -0.3216 -0.7873  0.2015
 1411TIP3    H225649   5.250   1.295  10.678  1.2629  0.3866 -0.3840
 1412TIP3   OH225650   6.229   5.715   2.327 -0.2243  0.3556 -0.2767
 1412TIP3    H125651   6.229   5.801   2.285 -1.5901  0.5834  0.1223
 1412TIP3    H225652   6.158   5.720   2.392  1.4259 -0.1739  1.6737
 1413TIP3   OH225653   4.491   6.543   1.560 -0.3738 -0.6244  0.1824
 1413TIP3    H125654   4.406   6.559   1.602  0.1179  0.9412  0.6547
 1413TIP3    H225655   4.501   6.448   1.562 -0.6089 -0.7062  3.2533
 1414TIP3   OH225656   5.312   2.204   2.715  0.4151 -0.1691 -0.2909
 1414TIP3    H125657   5.334   2.113   2.737 -0.7903 -0.9508 -2.1215
 1414TIP3    H225658   5.328   2.210   2.621  1.9817  2.0123  0.0360
 1415TIP3   OH225659   6.079   5.309   0.520  0.2121  0.0265  0.4010
 1415TIP3    H125660   6.091   5.403   0.532  1.7840 -0.1021  0.0934
 1415TIP3    H225661   6.065   5.276   0.609 -0.5399  0.5631  0.4915
 1416TIP3   OH225662   2.944   2.185  16.096 -0.1795 -0.0119  0.5896
 1416TIP3    H125663   2.865   2.198  16.150  0.1471  0.6161  0.9363
 1416TIP3    H225664   2.968   2.274  16.068  2.1204  0.2609  2.9753
 1417TIP3   OH225665   1.396   5.472  11.796  0.1821 -0.5673  0.2486
 1417TIP3    H125666   1.340   5.540  11.833 -1.0047 -2.0637  1.3825
 1417TIP3    H225667   1.339   5.424  11.736  0.8994 -0.7696 -0.2903
 1418TIP3   OH225668   0.122   4.050   1.602 -0.7231 -0.4017  0.1259
 1418TIP3    H125669   0.188   4.082   1.541 -0.5858  0.2885  0.6379
 1418TIP3    H225670   0.105   3.960   1.572 -0.7857 -0.0249 -1.0315
 1419TIP3   OH225671   3.819   1.259   3.087  0.1655  0.3426 -0.5140
 1419TIP3    H125672   3.880   1.185   3.093 -0.2559  0.0900  2.8406
 1419TIP3    H225673   3.872   1.331   3.052  2.1599 -0.1653  1.2367
 1420TIP3   OH225674   0.793   2.987  12.717 -0.6571 -0.0109  0.4300
 1420TIP3    H125675   0.763   3.078  12.721 -1.2265 -0.2039  0.8090
 1420TIP3    H225676   0.864   2.983  12.782  0.4712  0.5394 -0.7346
 1421TIP3   OH225677   4.591   2.608   1.882  0.0825  0.5092  0.0128
 1421TIP3    H125678   4.560   2.558   1.807 -1.9520 -0.8634  1.6439
 1421TIP3    H225679   4.532   2.684   1.887 -1.6688 -0.8520  1.7232
 1422TIP3   OH225680   4.423   2.987   0.364  0.1518  0.6997  0.2169
 1422TIP3    H125681   4.389   3.020   0.447 -1.0628 -1.2199  0.5496
 1422TIP3    H225682   4.405   2.893   0.367  2.0048  0.2414 -1.3248
 1423TIP3   OH225683   2.984   5.545  13.350 -0.1616 -0.4828  0.6162
 1423TIP3    H125684   3.016   5.465  13.310 -1.3928 -0.8343  0.2926
 1423TIP3    H225685   2.986   5.527  13.444  2.3310  0.1920  0.7524
 1424TIP3   OH225686   0.807   6.487   4.640  0.1237  0.4206  0.3793
 1424TIP3    H125687   0.863   6.545   4.692  0.9374  0.9811 -1.0709
 1424TIP3    H225688   0.865   6.418   4.610 -0.5779 -0.5025  1.0586
 1425TIP3   OH225689   4.644   6.497  11.812 -0.1910 -0.3427 -0.1151
 1425TIP3    H125690   4.730   6.479  11.850  0.8301 -0.1760 -2.2471
 1425TIP3    H225691   4.610   6.411  11.788  0.6710 -0.2436 -1.8616
 1426TIP3   OH225692   5.134   0.355  16.729 -0.2602  0.3368  0.2457
 1426TIP3    H125693   5.207   0.304  16.763  1.0523  0.2263 -2.4955
 1426TIP3    H225694   5.136   0.437  16.780  0.0327 -0.7291  2.0235
 1427TIP3   OH225695   5.432   1.898   4.589 -0.7317  0.2735  0.6953
 1427TIP3    H125696   5.358   1.909   4.648  0.8222  1.4744  2.5414
 1427TIP3    H225697   5.507   1.928   4.639  0.7509  0.9386 -1.7573
 1428TIP3   OH225698   3.095   6.016  16.322 -0.0782 -1.0514  0.9947
 1428TIP3    H125699   3.132   5.933  16.350  0.7151 -0.2246  2.5621
 1428TIP3    H225700   3.117   6.077  16.393 -1.4284  0.2839  0.3253
 1429TIP3   OH225701   1.674   5.415   6.381 -0.2586  0.4428 -0.3156
 1429TIP3    H125702   1.619   5.486   6.348  0.9470  1.4483 -0.1949
 1429TIP3    H225703   1.717   5.451   6.458 -0.1961 -0.6696  0.1868
 1430TIP3   OH225704   1.649   1.417   5.629  0.2382 -0.0095 -0.1795
 1430TIP3    H125705   1.628   1.363   5.553 -0.9220 -1.0875  0.8459
 1430TIP3    H225706   1.691   1.357   5.690 -1.0095  0.2071  0.9580
 1431TIP3   OH225707   5.126   4.913   1.813 -0.4555  0.3129 -0.3360
 1431TIP3    H125708   5.153   4.835   1.860  0.0907  0.9754  0.4920
 1431TIP3    H225709   5.089   4.881   1.731  0.1637 -0.7775 -0.2033
 1432TIP3   OH225710   6.573   5.396   5.149  0.1760  0.3018 -1.1331
 1432TIP3    H125711   6.578   5.461   5.080  1.9928  1.7744  0.2813
 1432TIP3    H225712   6.662   5.390   5.184  0.2462 -3.3492 -1.4933
 1433TIP3   OH225713   1.990   3.312   6.343  0.4651 -0.0408  0.7742
 1433TIP3    H125714   2.071   3.364   6.338 -0.1505  0.8993  0.4554
 1433TIP3    H225715   1.929   3.357   6.285 -0.2315 -0.8607  0.8650
 1434TIP3   OH225716   0.262   0.709   0.807  0.1493  0.0010 -0.1303
 1434TIP3    H125717   0.171   0.709   0.837 -0.3202 -1.5446 -1.3515
 1434TIP3    H225718   0.304   0.639   0.857  0.9211  1.2404  1.0142
 1435TIP3   OH225719   4.520   3.683  13.458 -1.0692  0.0054  0.3613
 1435TIP3    H125720   4.472   3.636  13.390  1.0256 -2.9059  0.7162
 1435TIP3    H225721   4.484   3.649  13.540  0.0217 -0.5136  0.6353
 1436TIP3   OH225722   4.697   0.451   0.393 -0.1691 -0.3332  0.5590
 1436TIP3    H125723   4.630   0.519   0.384 -0.6734 -0.5899  2.0456
 1436TIP3    H225724   4.728   0.435   0.304  1.7468  3.5655  0.3201
 1437TIP3   OH225725   3.358   4.877   4.472  0.0886  0.6344 -0.0759
 1437TIP3    H125726   3.370   4.784   4.452 -0.1782  0.5339  0.2270
 1437TIP3    H225727   3.313   4.913   4.395  2.8803  1.1842 -1.6101
 1438TIP3   OH225728   1.743   6.066  13.587  0.2478 -0.4590  0.2520
 1438TIP3    H125729   1.808   6.128  13.554  0.2927 -1.2158 -1.2224
 1438TIP3    H225730   1.670   6.120  13.616  0.6388  0.3214 -0.1749
 1439TIP3   OH225731   4.065   3.578  12.839 -0.3648  0.0036  0.3639
 1439TIP3    H125732   4.155   3.606  12.824 -0.2379 -0.7467 -0.3356
 1439TIP3    H225733   4.012   3.640  12.788 -0.0002 -1.8659 -2.5135
 1440TIP3   OH225734   3.768   6.315  15.512 -0.3911  0.2349 -0.6038
 1440TIP3    H125735   3.760   6.349  15.423  0.8192  3.4517  0.3474
 1440TIP3    H225736   3.774   6.394  15.567 -1.1598 -1.5970  2.3602
 1441TIP3   OH225737   6.037   0.098   4.739 -0.6775  0.0115 -0.3288
 1441TIP3    H125738   6.124   0.137   4.735 -0.2083 -0.7748  1.2484
 1441TIP3    H225739   6.020   0.069   4.649 -0.5396  2.6565 -1.2874
 1442TIP3   OH225740   3.101   4.081   1.869 -0.3238 -0.7287  0.3830
 1442TIP3    H125741   3.137   4.142   1.934  0.1869 -0.8312  0.2041
 1442TIP3    H225742   3.044   4.023   1.920 -0.0001 -0.7501  0.7342
 1443TIP3   OH225743   6.606   1.558   5.485  0.0500  0.1765 -0.0108
 1443TIP3    H125744   6.649   1.643   5.476  0.8407 -0.0350  1.4585
 1443TIP3    H225745   6.630   1.511   5.405  1.3961  0.5775  0.1268
 1444TIP3   OH225746   4.232   1.663  11.657  0.4748 -0.4935  0.0405
 1444TIP3    H125747   4.236   1.759  11.659  0.5159 -0.4990  0.2297
 1444TIP3    H225748   4.204   1.642  11.568  0.9697 -0.3219 -0.1577
 1445TIP3   OH225749   0.757   3.831  15.642 -0.7399  0.4903 -0.7018
 1445TIP3    H125750   0.746   3.902  15.705 -0.4364  0.2083 -0.3269
 1445TIP3    H225751   0.849   3.835  15.616 -0.4101 -0.5061  0.2298
 1446TIP3   OH225752   5.276   1.019   3.271 -0.4359  0.0229 -0.4727
 1446TIP3    H125753   5.261   0.935   3.315 -2.2081 -0.4032 -1.7744
 1446TIP3    H225754   5.314   0.995   3.187  1.0174  0.7060 -0.0442
 1447TIP3   OH225755   2.345   5.914   4.728 -0.0136  0.3334  0.0582
 1447TIP3    H125756   2.436   5.944   4.727  0.4685 -0.9117  1.7365
 1447TIP3    H225757   2.336   5.863   4.647  0.7771  0.4683 -0.1318
 1448TIP3   OH225758   4.692   4.646   4.997 -0.5395  0.2095  0.0737
 1448TIP3    H125759   4.644   4.629   5.078 -0.0091 -1.8116  0.0338
 1448TIP3    H225760   4.745   4.567   4.984  0.5367  1.1246 -1.4470
 1449TIP3   OH225761   0.459   6.212  14.024  0.0939 -0.1122  0.4669
 1449TIP3    H125762   0.552   6.209  14.043  0.3129 -1.0472 -0.6344
 1449TIP3    H225763   0.453   6.265  13.943  0.4753 -5.0875 -3.2781
 1450TIP3   OH225764   0.239   5.373  12.356 -0.0887  0.3793 -0.2845
 1450TIP3    H125765   0.189   5.338  12.430  1.3815  0.6776  0.9160
 1450TIP3    H225766   0.227   5.468  12.361  0.8238  0.4859  0.2344
 1451TIP3   OH225767   1.405   4.016  14.562  0.2282  0.2354 -0.1155
 1451TIP3    H125768   1.416   4.108  14.536 -0.4030  0.5302  0.6071
 1451TIP3    H225769   1.315   4.010  14.594  0.0543 -0.8010 -0.7597
 1452TIP3   OH225770   0.781   0.467   3.837  0.4445 -0.2929 -0.2811
 1452TIP3    H125771   0.853   0.526   3.858  0.9091 -0.8955 -0.1489
 1452TIP3    H225772   0.746   0.441   3.922 -0.2609  0.3853 -0.3520
 1453TIP3   OH225773   4.834   1.071  14.185  0.1455  0.2635 -0.3956
 1453TIP3    H125774   4.761   1.023  14.146  0.4938  0.1560 -0.9287
 1453TIP3    H225775   4.854   1.140  14.122  0.4550  0.3436 -0.2139
 1454TIP3   OH225776   3.531   2.637   5.860  0.0877 -0.0755 -0.6817
 1454TIP3    H125777   3.607   2.624   5.915  0.0928  0.5924 -0.5237
 1454TIP3    H225778   3.465   2.578   5.896  0.4657 -0.5130 -0.6997
 1455TIP3   OH225779   5.911   4.536  16.284  0.5448 -0.1212  0.0121
 1455TIP3    H125780   5.880   4.491  16.206  0.4922 -0.7697  0.3966
 1455TIP3    H225781   5.925   4.466  16.348  1.2667  0.3231  0.3534
 1456TIP3   OH225782   2.258   2.094  15.039 -0.1150  0.4555  0.0801
 1456TIP3    H125783   2.309   2.135  15.109  0.9777 -0.1439 -0.3352
 1456TIP3    H225784   2.216   2.167  14.994 -0.6000  0.8672  1.1802
 1457TIP3   OH225785   4.527   0.417  17.223 -0.3944 -0.0612  0.7214
 1457TIP3    H125786   4.445   0.467  17.222 -0.3110  0.0782  0.8157
 1457TIP3    H225787   4.508   0.339  17.172 -0.2203  0.5570 -0.3318
 1458TIP3   OH225788   2.167   3.529   0.856 -0.2062 -0.1249  0.4185
 1458TIP3    H125789   2.081   3.573   0.858 -1.1499 -1.8237 -0.3344
 1458TIP3    H225790   2.157   3.455   0.916  0.9630  0.0360  0.8167
 1459TIP3   OH225791   2.332   6.587   2.860 -0.5982 -0.7972  0.2647
 1459TIP3    H125792   2.289   6.506   2.889 -0.3095 -0.1210  2.8481
 1459TIP3    H225793   2.407   6.596   2.918  0.2653  0.5478 -1.0004
 1460TIP3   OH225794   1.660   5.229   2.844  0.1718 -0.5075  0.1513
 1460TIP3    H125795   1.687   5.306   2.795 -0.9885  0.8023  1.4865
 1460TIP3    H225796   1.608   5.178   2.782  2.0988 -0.9815 -1.1708
 1461TIP3   OH225797   2.201   3.888   5.571 -0.3352 -0.0692  0.0147
 1461TIP3    H125798   2.120   3.938   5.557 -0.3607 -0.2894 -0.6440
 1461TIP3    H225799   2.217   3.896   5.665 -1.2498 -0.2150  0.2006
 1462TIP3   OH225800   3.218   4.765  13.751  0.5108  0.5444 -0.7091
 1462TIP3    H125801   3.148   4.750  13.687 -0.2667  0.5326  0.1212
 1462TIP3    H225802   3.298   4.743  13.705 -0.1812 -1.2903 -1.1282
 1463TIP3   OH225803   1.909   0.315  15.646 -0.1736  0.3182 -1.1644
 1463TIP3    H125804   1.887   0.231  15.686  0.5442  0.4320 -0.4981
 1463TIP3    H225805   1.967   0.293  15.573  0.1317  0.2430 -0.8986
 1464TIP3   OH225806   4.245   4.930  14.631  0.7098  0.5009  0.5001
 1464TIP3    H125807   4.149   4.928  14.637  0.5884  2.2729 -0.1783
 1464TIP3    H225808   4.267   4.857  14.573  0.1749 -2.5415  3.8237
 1465TIP3   OH225809   6.049   4.107  15.728 -0.1348 -0.0065  0.1709
 1465TIP3    H125810   6.052   4.034  15.667  1.2889  0.0624  0.1253
 1465TIP3    H225811   5.974   4.089  15.784  0.1401 -1.4615  0.1053
 1466TIP3   OH225812   4.306   1.576  14.920  0.8289 -0.0650 -0.3231
 1466TIP3    H125813   4.300   1.582  14.825 -0.3865  1.9725 -0.1720
 1466TIP3    H225814   4.224   1.534  14.946  0.3714  0.9639 -0.0812
 1467TIP3   OH225815   4.266   5.392   4.166 -0.7795  0.0604 -0.1560
 1467TIP3    H125816   4.329   5.367   4.234 -0.6342 -0.1658 -0.3719
 1467TIP3    H225817   4.283   5.331   4.094  0.2658  1.3863 -1.0889
 1468TIP3   OH225818   1.655   6.706  12.724 -0.2457  0.2055 -0.0107
 1468TIP3    H125819   1.604   6.656  12.788  0.8392  0.0008  0.7300
 1468TIP3    H225820   1.599   6.780  12.702 -1.9154 -1.3241 -1.1956
 1469TIP3   OH225821   1.713   3.248   2.074 -0.3207  0.6664 -0.3059
 1469TIP3    H125822   1.674   3.240   2.161 -0.9117 -0.4914 -0.6680
 1469TIP3    H225823   1.716   3.159   2.040  1.1409  0.9357 -0.9530
 1470TIP3   OH225824   1.414   3.371  13.666 -0.3367  0.1269  0.0542
 1470TIP3    H125825   1.372   3.301  13.616 -0.3288  0.7947 -0.9143
 1470TIP3    H225826   1.475   3.326  13.724  0.1075 -0.6357 -0.9837
 1471TIP3   OH225827   3.035   1.534  16.867  0.5705 -0.3320 -0.2922
 1471TIP3    H125828   3.053   1.445  16.838  1.4263  0.3158 -1.8625
 1471TIP3    H225829   2.968   1.524  16.934 -0.2068 -2.0640 -1.2574
 1472TIP3   OH225830   6.644   6.248  17.126 -0.3985 -0.3244  0.9450
 1472TIP3    H125831   6.700   6.174  17.149  0.5228  0.4361  1.2173
 1472TIP3    H225832   6.685   6.323  17.169 -0.7606  0.5115 -0.1243
 1473TIP3   OH225833   4.280   1.018  16.177 -0.1574  0.4577  0.5965
 1473TIP3    H125834   4.211   0.959  16.147  1.7237 -1.0221 -1.1310
 1473TIP3    H225835   4.345   0.960  16.217  1.0073  1.5651  0.3603
 1474TIP3   OH225836   4.694   6.244   1.080  0.2629  0.0980 -0.1778
 1474TIP3    H125837   4.654   6.310   1.024  1.8606  0.1646 -1.3021
 1474TIP3    H225838   4.711   6.289   1.163 -2.6436 -0.1535  0.6443
 1475TIP3   OH225839   6.503   3.541   1.807  0.3325 -0.9128  0.2495
 1475TIP3    H125840   6.520   3.453   1.840 -0.4430 -0.5933  1.5680
 1475TIP3    H225841   6.455   3.585   1.877  1.0268  0.6907 -0.2161
 1476TIP3   OH225842   0.946   6.309  15.996 -0.3385  0.2275 -0.2986
 1476TIP3    H125843   0.864   6.268  15.972 -0.4317  1.4463 -2.2412
 1476TIP3    H225844   1.010   6.238  15.995 -1.2686 -0.6614  0.8765
 1477TIP3   OH225845   5.843   5.342   1.068 -0.2472  0.1656 -0.4175
 1477TIP3    H125846   5.860   5.402   1.141 -0.3189 -1.0833  0.6660
 1477TIP3    H225847   5.891   5.262   1.091  1.1143  0.2699 -2.5610
 1478TIP3   OH225848   3.520   0.793  16.750 -0.3735 -0.4638 -0.2744
 1478TIP3    H125849   3.483   0.856  16.812 -0.2651  0.0858 -0.7600
 1478TIP3    H225850   3.503   0.708  16.790  1.5726 -0.0647  1.5564
 1479TIP3   OH225851   4.696   6.619  17.030 -0.0519 -0.2758  0.3494
 1479TIP3    H125852   4.711   6.525  17.038 -0.4933 -0.3737  0.0454
 1479TIP3    H225853   4.622   6.627  16.970 -0.7452  0.2260  1.2459
 1480TIP3   OH225854   2.946   3.675  13.167  0.1310 -1.0167  0.6111
 1480TIP3    H125855   2.899   3.736  13.224 -0.2941 -1.2726  0.5390
 1480TIP3    H225856   2.972   3.604  13.225  2.5781  0.2536  1.1755
 1481TIP3   OH225857   3.286   0.110  11.536 -0.2992  0.3169  0.3658
 1481TIP3    H125858   3.236   0.124  11.455 -0.5008 -1.2892  0.1695
 1481TIP3    H225859   3.376   0.128  11.512 -0.4300  0.3950 -0.0754
 1482TIP3   OH225860   4.192   0.741  10.448 -0.3635  1.1105 -0.3235
 1482TIP3    H125861   4.148   0.821  10.476 -0.9466  0.6003  0.2551
 1482TIP3    H225862   4.285   0.758  10.463 -0.2698  2.4351 -2.1574
 1483TIP3   OH225863   2.172   2.657  12.999  0.3721 -0.0713 -0.0863
 1483TIP3    H125864   2.217   2.712  13.064  1.2505 -0.6786 -0.1694
 1483TIP3    H225865   2.157   2.574  13.044 -0.5843  0.0892 -0.0960
 1484TIP3   OH225866   1.778   0.034   1.394  0.2845  0.0257 -0.0585
 1484TIP3    H125867   1.870   0.009   1.387  0.0088 -1.5376  1.3209
 1484TIP3    H225868   1.741   0.012   1.308  0.9546 -0.3190 -0.2666
 1485TIP3   OH225869   3.725   4.526  13.668  0.0405  0.3830  0.5126
 1485TIP3    H125870   3.781   4.582  13.722  0.2707  1.7277 -1.0471
 1485TIP3    H225871   3.754   4.437  13.689 -0.0933  0.8060  2.7892
 1486TIP3   OH225872   5.378   3.382   5.529  0.0122  0.6009  0.4670
 1486TIP3    H125873   5.420   3.322   5.467  0.3588  0.3788  0.9127
 1486TIP3    H225874   5.440   3.389   5.602 -0.7039  0.2685  1.1332
 1487TIP3   OH225875   3.028   4.683   4.345  0.3019  0.0184 -0.0577
 1487TIP3    H125876   3.000   4.670   4.436 -0.7931 -0.8689 -0.4921
 1487TIP3    H225877   2.987   4.765   4.319  1.2086  0.6476  0.4579
 1488TIP3   OH225878   2.728   1.083   0.463 -0.7488  0.4573 -0.1195
 1488TIP3    H125879   2.752   1.148   0.529 -2.3635 -0.1120  1.1179
 1488TIP3    H225880   2.798   1.019   0.465 -0.0152  1.2472 -0.0799
 1489TIP3   OH225881   0.747   5.873  14.313 -0.4900 -0.2302 -0.1911
 1489TIP3    H125882   0.706   5.886  14.227  0.2736 -1.6402 -0.8046
 1489TIP3    H225883   0.765   5.779  14.317 -0.2195 -0.1345  1.3908
 1490TIP3   OH225884   3.882   1.232   6.595 -0.3851 -0.4566  0.3295
 1490TIP3    H125885   3.975   1.248   6.578 -0.2436 -2.8311 -1.5956
 1490TIP3    H225886   3.881   1.158   6.655 -1.0356 -0.2819  0.5416
 1491TIP3   OH225887   6.664   0.937   3.511  0.2618  0.4115 -0.1006
 1491TIP3    H125888   6.661   1.022   3.554  0.3991  0.8507 -0.9385
 1491TIP3    H225889   6.730   0.888   3.559  0.2304  0.7996  0.3456
 1492TIP3   OH225890   6.452   0.766   3.460  0.3458  0.0960  0.6420
 1492TIP3    H125891   6.388   0.752   3.530 -0.6112  0.0107 -0.2316
 1492TIP3    H225892   6.522   0.818   3.502 -1.0551  1.6031  1.2128
 1493TIP3   OH225893   3.170   3.388  13.448  0.1433 -1.2081  0.3883
 1493TIP3    H125894   3.198   3.447  13.379 -1.4093 -1.9288 -0.9134
 1493TIP3    H225895   3.111   3.441  13.502 -1.8238 -1.6757 -1.1907
 1494TIP3   OH225896   1.389   5.995   3.570 -0.2514 -0.5586  1.1911
 1494TIP3    H125897   1.306   5.960   3.538 -1.3133  0.6871  2.5293
 1494TIP3    H225898   1.374   6.089   3.580  1.9176  0.0395 -0.3420
 1495TIP3   OH225899   1.318   2.901   0.396  0.1978  0.5527  0.2764
 1495TIP3    H125900   1.308   2.806   0.399  1.9991  0.3354  0.3646
 1495TIP3    H225901   1.322   2.928   0.488 -0.0752  0.6986  0.2486
 1496TIP3   OH225902   0.045   4.263   6.255 -1.0097 -0.2594  0.0344
 1496TIP3    H125903  -0.029   4.202   6.247 -0.2533 -1.2028  0.1126
 1496TIP3    H225904   0.118   4.209   6.283  0.1587  0.3529 -1.6702
 1497TIP3   OH225905   6.622   4.918  11.177  0.2535 -0.0999  0.3953
 1497TIP3    H125906   6.711   4.951  11.169  0.1955  0.3711  1.4689
 1497TIP3    H225907   6.575   4.953  11.102  0.7547  0.3961  0.3152
 1498TIP3   OH225908   4.554   0.233   4.808 -0.0209  0.1182  0.1962
 1498TIP3    H125909   4.573   0.176   4.883 -1.2935 -0.1742  0.3196
 1498TIP3    H225910   4.609   0.310   4.822  2.3825 -1.3703 -0.4041
 1499TIP3   OH225911   3.796   0.147  12.988  0.1109 -0.5158  0.4407
 1499TIP3    H125912   3.875   0.093  12.978  0.5767  0.3375 -0.6207
 1499TIP3    H225913   3.828   0.230  13.023 -0.1902  0.1247 -0.7658
 1500TIP3   OH225914   0.931   3.656   0.593 -0.2550 -0.1693 -0.2532
 1500TIP3    H125915   0.862   3.623   0.536 -2.7541  1.3403  1.6639
 1500TIP3    H225916   0.886   3.673   0.676  2.3477  1.3833  0.9463
 1501TIP3   OH225917   1.928   6.687  11.397  0.2751  0.2502  0.1546
 1501TIP3    H125918   2.016   6.726  11.401 -0.1632  1.2196  2.8524
 1501TIP3    H225919   1.880   6.743  11.337  1.1706  0.4153 -0.4368
 1502TIP3   OH225920   2.289   0.213  10.974  0.2491 -0.1986  0.7889
 1502TIP3    H125921   2.222   0.191  10.909  0.9644  0.8734 -0.3462
 1502TIP3    H225922   2.255   0.293  11.016  0.9689  0.5913 -0.0805
 1503TIP3   OH225923   5.074   2.009  12.695  0.1040  0.1906 -0.2590
 1503TIP3    H125924   5.055   2.026  12.603  1.6257 -0.0012 -0.6432
 1503TIP3    H225925   5.004   1.951  12.724 -1.1409  1.3348 -0.9030
 1504TIP3   OH225926   2.561   3.322   1.314 -0.2080  0.1318  0.4082
 1504TIP3    H125927   2.612   3.382   1.369 -0.9524  0.3263  0.9014
 1504TIP3    H225928   2.471   3.331   1.347 -0.4802 -0.5434 -0.1493
 1505TIP3   OH225929   6.240   4.292  10.761  0.0751  0.4512 -0.2487
 1505TIP3    H125930   6.186   4.309  10.684  0.3613  1.0415 -0.3262
 1505TIP3    H225931   6.303   4.364  10.762 -0.6631  1.1180  1.2107
 1506TIP3   OH225932   1.706   6.195  16.792  0.0621  0.4634 -0.0003
 1506TIP3    H125933   1.689   6.280  16.750 -0.0038  0.5965  0.2905
 1506TIP3    H225934   1.630   6.181  16.848 -0.7964 -0.6388 -1.3854
 1507TIP3   OH225935   6.634   4.302  11.435 -0.0682  0.2767 -0.2837
 1507TIP3    H125936   6.563   4.286  11.496  1.1686 -0.9796  0.8989
 1507TIP3    H225937   6.597   4.284  11.349 -0.6535 -2.5199  0.4592
 1508TIP3   OH225938   2.481   4.665   4.589 -0.2418 -0.1775 -0.8426
 1508TIP3    H125939   2.533   4.637   4.664 -0.5812  0.4307 -0.3684
 1508TIP3    H225940   2.537   4.728   4.544 -0.1615 -0.3018 -0.9145
 1509TIP3   OH225941   3.998   3.589  13.773 -0.1250 -0.2954 -0.3045
 1509TIP3    H125942   4.049   3.657  13.729 -1.8339  0.0316 -1.8968
 1509TIP3    H225943   3.974   3.629  13.857  1.4615 -0.1591  0.1358
 1510TIP3   OH225944   2.048   6.015   4.709  0.5681 -0.0672 -0.2761
 1510TIP3    H125945   2.017   6.099   4.742  1.1591  0.6284 -1.4160
 1510TIP3    H225946   2.118   6.038   4.647 -1.0804 -1.1815 -2.7410
 1511TIP3   OH225947   4.219   2.595  15.597 -0.3927 -0.3096 -0.0076
 1511TIP3    H125948   4.171   2.610  15.515 -2.3313  2.5527  1.4636
 1511TIP3    H225949   4.157   2.548  15.653 -0.1609  0.2832  0.7629
 1512TIP3   OH225950   1.726   1.047   2.552  0.1509 -0.3815  0.4565
 1512TIP3    H125951   1.772   0.994   2.617 -1.9161 -0.7784  1.7023
 1512TIP3    H225952   1.694   0.984   2.487  1.8820 -0.0291 -0.7909
 1513TIP3   OH225953   4.292   4.307  14.733 -0.2496 -0.4586 -0.2325
 1513TIP3    H125954   4.274   4.297  14.640  0.1559  0.5127 -0.4379
 1513TIP3    H225955   4.294   4.402  14.746 -0.7955 -0.5880  0.8646
 1514TIP3   OH225956   1.249   4.782  14.388  0.2197  0.2399  0.6292
 1514TIP3    H125957   1.332   4.818  14.358  0.1131 -0.8293 -1.1066
 1514TIP3    H225958   1.269   4.692  14.413 -0.4676 -0.1359 -0.1224
 1515TIP3   OH225959   0.699   3.461  14.035 -0.1744 -0.2066  0.0166
 1515TIP3    H125960   0.744   3.509  13.965 -0.1299 -0.6431 -0.2564
 1515TIP3    H225961   0.748   3.380  14.043  0.3481  0.1932  1.1413
 1516TIP3   OH225962   4.187   2.152   5.893 -0.1065  0.0970 -0.6106
 1516TIP3    H125963   4.110   2.169   5.839 -0.8611 -1.0918  0.0555
 1516TIP3    H225964   4.153   2.111   5.972  1.0088  1.5888  0.6927
 1517TIP3   OH225965   6.495   1.308   4.947 -0.4225 -0.4293 -0.3058
 1517TIP3    H125966   6.588   1.321   4.961  0.5341 -4.6423 -1.3222
 1517TIP3    H225967   6.473   1.367   4.875  1.3850  0.7337  0.0304
 1518TIP3   OH225968   1.209   0.070   3.764  1.2163 -0.0092 -0.1031
 1518TIP3    H125969   1.212   0.119   3.682  2.7880 -0.8021 -0.5566
 1518TIP3    H225970   1.216   0.137   3.832 -0.4284  0.6827 -0.5700
 1519TIP3   OH225971   1.778   1.251   2.339  0.0326 -0.0149 -0.1837
 1519TIP3    H125972   1.833   1.179   2.370 -0.2708 -2.0097 -3.6766
 1519TIP3    H225973   1.690   1.229   2.369 -0.2541 -1.8787 -2.1029
 1520TIP3   OH225974   3.180   5.244  13.428 -0.5646 -0.1128 -0.1895
 1520TIP3    H125975   3.115   5.252  13.358 -0.2787  1.1261 -0.3417
 1520TIP3    H225976   3.131   5.261  13.509 -0.3606  1.3254 -0.3455
 1521TIP3   OH225977   3.985   6.631  16.447 -0.2520 -0.1190 -0.1976
 1521TIP3    H125978   3.922   6.684  16.495 -1.2471  0.6860 -2.2782
 1521TIP3    H225979   3.972   6.542  16.481 -1.0370  0.3657  0.8463
 1522TIP3   OH225980   1.212   4.420   3.103 -0.0993  0.2089 -0.6931
 1522TIP3    H125981   1.217   4.326   3.122  0.9803  0.3850 -0.0188
 1522TIP3    H225982   1.239   4.428   3.012  2.2116  0.0673 -0.0843
 1523TIP3   OH225983   5.559   0.655   1.357 -0.1624 -0.3236  0.5439
 1523TIP3    H125984   5.609   0.658   1.275  0.0860  0.3212  0.7205
 1523TIP3    H225985   5.494   0.724   1.348 -1.5881 -1.6604 -0.0267
 1524TIP3   OH225986   2.874   6.736   0.623  0.0568 -0.0533  0.1398
 1524TIP3    H125987   2.858   6.657   0.674 -1.2497 -0.0630 -0.2498
 1524TIP3    H225988   2.860   6.808   0.684  0.7250 -0.1026  0.3584
 1525TIP3   OH225989   5.825   2.334   0.037  0.0367 -0.5411 -0.1099
 1525TIP3    H125990   5.846   2.359   0.127  0.2344  0.8047 -0.5098
 1525TIP3    H225991   5.736   2.300   0.042 -0.8854  1.7370  0.2604
 1526TIP3   OH225992   0.163   6.308   5.975 -0.1758  0.6795 -0.3200
 1526TIP3    H125993   0.161   6.218   5.942 -1.8276  0.5023  0.1452
 1526TIP3    H225994   0.085   6.349   5.938 -1.4138  0.8496  2.2287
 1527TIP3   OH225995   4.551   6.717  15.364  0.0645  0.3976  0.1184
 1527TIP3    H125996   4.631   6.743  15.319 -1.1573  1.0242 -1.8152
 1527TIP3    H225997   4.551   6.622  15.360  0.4843  0.4106 -0.2713
 1528TIP3   OH225998   5.887   2.793   4.986 -0.2242  0.2855 -0.3831
 1528TIP3    H125999   5.840   2.832   5.061  0.5947  1.4640 -0.4583
 1528TIP3    H226000   5.855   2.841   4.910  0.1870  0.2391 -0.5867
 1529TIP3   OH226001   0.612   4.204   3.050  0.1930  0.8370 -0.2639
 1529TIP3    H126002   0.674   4.179   2.981 -0.4655  0.8014 -0.8531
 1529TIP3    H226003   0.643   4.290   3.080  0.1658  1.1146 -1.0011
 1530TIP3   OH226004   1.672   1.115   1.399 -0.1967 -0.1899 -0.0385
 1530TIP3    H126005   1.659   1.150   1.487  0.5879  0.1860 -0.0600
 1530TIP3    H226006   1.747   1.056   1.407 -1.6982 -2.1823  0.0689
 1531TIP3   OH226007   1.867   1.409   0.123  0.6364 -0.2784 -0.5524
 1531TIP3    H126008   1.890   1.486   0.071  0.0313  0.3110  0.0458
 1531TIP3    H226009   1.931   1.408   0.194 -0.7515  1.0323  0.7809
 1532TIP3   OH226010   4.288   5.072  16.982  0.1609  0.1267 -0.5234
 1532TIP3    H126011   4.264   5.039  17.069  0.2916  1.3532 -0.0013
 1532TIP3    H226012   4.377   5.040  16.968 -0.1515 -0.7482 -0.5613
 1533TIP3   OH226013   4.886   4.930  14.031 -0.2746 -0.2764 -0.5949
 1533TIP3    H126014   4.909   5.021  14.012  0.8818 -0.8477 -2.1731
 1533TIP3    H226015   4.812   4.911  13.973  0.4001 -0.7265 -1.3385
 1534TIP3   OH226016   4.765   4.741  13.724 -0.2174  0.3874 -0.3656
 1534TIP3    H126017   4.731   4.730  13.635 -1.9032 -0.5281  0.3533
 1534TIP3    H226018   4.694   4.784  13.772 -0.6646 -2.0131  1.3004
 1535TIP3   OH226019   4.775   2.798   1.899  0.0135 -0.4548  0.3495
 1535TIP3    H126020   4.707   2.853   1.937 -0.0177  0.3941 -0.8739
 1535TIP3    H226021   4.747   2.709   1.918 -1.6445 -0.1356 -0.4531
 1536TIP3   OH226022   5.788   1.287   4.595 -0.2422  0.4693 -0.6791
 1536TIP3    H126023   5.769   1.333   4.677  0.2279 -1.3151  0.4947
 1536TIP3    H226024   5.704   1.285   4.549 -1.2416 -0.8833  1.0544
 1537TIP3   OH226025   0.950   4.644  16.196  0.4762  0.2383  0.5504
 1537TIP3    H126026   0.911   4.628  16.110  0.5271  1.6303  0.2540
 1537TIP3    H226027   1.011   4.571  16.207  2.0229  1.0967 -1.5465
 1538TIP3   OH226028   3.599   2.224   1.827 -0.1127  0.2367  0.1828
 1538TIP3    H126029   3.591   2.318   1.844 -0.4151  0.0885  0.9221
 1538TIP3    H226030   3.609   2.217   1.732 -0.6588  0.9844  0.0633
 1539TIP3   OH226031   0.847   1.721  14.920 -0.1801 -0.2863  0.3309
 1539TIP3    H126032   0.860   1.816  14.928 -2.8692  0.0881  1.2281
 1539TIP3    H226033   0.929   1.683  14.949  0.5747  1.7555  1.0318
 1540TIP3   OH226034   0.981   1.643   3.048  0.0415  0.3048  0.2368
 1540TIP3    H126035   0.974   1.547   3.048  0.8017  0.2236 -0.8165
 1540TIP3    H226036   1.075   1.659   3.036 -0.1149  1.1848  0.1779
 1541TIP3   OH226037   2.210   1.360   1.150 -0.0499  0.6816 -0.2758
 1541TIP3    H126038   2.168   1.314   1.077 -0.4929  1.7391 -0.7091
 1541TIP3    H226039   2.164   1.329   1.228 -0.2996  0.3496 -0.5522
 1542TIP3   OH226040   1.203   6.316   0.382 -0.3686  0.3732  0.3122
 1542TIP3    H126041   1.253   6.369   0.320 -1.5101  2.0282  0.7358
 1542TIP3    H226042   1.187   6.374   0.456 -0.4110 -1.0577  1.4759
 1543TIP3   OH226043   3.626   6.536  16.585  0.4008 -0.4070  0.4544
 1543TIP3    H126044   3.637   6.466  16.649 -1.6576 -1.3610 -0.1488
 1543TIP3    H226045   3.543   6.517  16.543  0.0329  2.1127 -0.1331
 1544TIP3   OH226046   3.127   1.521   4.529  0.3007  0.7762  0.0968
 1544TIP3    H126047   3.209   1.513   4.481 -0.3533 -3.2193 -0.6798
 1544TIP3    H226048   3.139   1.465   4.606 -1.5975  0.2353  0.0539
 1545TIP3   OH226049   6.704   5.998   0.563 -0.3795  0.2722 -0.3960
 1545TIP3    H126050   6.738   6.084   0.588  0.2659 -0.4368  1.2947
 1545TIP3    H226051   6.717   5.944   0.641 -2.9061 -0.7581 -0.5931
 1546TIP3   OH226052   5.785   6.450  17.024  0.2707  0.0838  0.5240
 1546TIP3    H126053   5.782   6.362  16.987  1.3048 -0.3662  1.4445
 1546TIP3    H226054   5.709   6.494  16.986 -0.1402 -1.1250 -0.1348
 1547TIP3   OH226055   6.644   4.213  15.578  0.1812 -0.3221 -0.4280
 1547TIP3    H126056   6.559   4.246  15.607  0.5749  1.1928 -0.9321
 1547TIP3    H226057   6.625   4.126  15.543 -1.0747 -0.2183 -0.0547
 1548TIP3   OH226058   6.143   6.442  11.788  0.6295  0.7284  0.2475
 1548TIP3    H126059   6.063   6.421  11.836  0.8687 -0.6897  0.0805
 1548TIP3    H226060   6.194   6.361  11.789  1.2502  1.0527 -1.2345
 1549TIP3   OH226061   4.640   1.776  13.866  0.1157 -0.3548  0.0195
 1549TIP3    H126062   4.722   1.795  13.821 -0.9862 -0.4532 -2.1232
 1549TIP3    H226063   4.642   1.681  13.880 -0.2288 -0.5620 -1.2808
 1550TIP3   OH226064   6.154   3.389   3.221 -0.3937  0.5025  0.2322
 1550TIP3    H126065   6.105   3.451   3.168 -0.5674  1.0204  0.9801
 1550TIP3    H226066   6.095   3.369   3.294 -0.4781 -0.8071 -0.1693
 1551TIP3   OH226067   4.900   6.605  15.849 -0.0655  0.4214  0.0218
 1551TIP3    H126068   4.850   6.615  15.930  0.6861 -1.2008  0.7414
 1551TIP3    H226069   4.883   6.515  15.822  1.0751  0.3971 -0.6648
 1552TIP3   OH226070   6.511   6.280   0.721 -0.0452 -0.3547  0.7485
 1552TIP3    H126071   6.604   6.276   0.701 -0.4080 -2.6385 -0.8870
 1552TIP3    H226072   6.474   6.334   0.650 -0.2537 -1.5087 -0.0428
 1553TIP3   OH226073   1.588   2.368  14.635  0.5855  0.9760  0.1635
 1553TIP3    H126074   1.577   2.451  14.589 -1.4780  1.1486  0.8475
 1553TIP3    H226075   1.517   2.313  14.602  0.0385  0.5625  1.9365
 1554TIP3   OH226076   5.206   0.620   6.279  0.1827  1.2092  0.5392
 1554TIP3    H126077   5.188   0.527   6.265 -1.3391  1.5723 -0.1150
 1554TIP3    H226078   5.124   0.656   6.313  1.0125  2.1575  1.6022
 1555TIP3   OH226079   4.817   5.327   1.023 -0.0183  0.4286  0.1562
 1555TIP3    H126080   4.898   5.305   0.977 -0.0548  0.9142 -0.1429
 1555TIP3    H226081   4.766   5.245   1.022 -0.2736  0.5788 -1.2093
 1556TIP3   OH226082   6.085   5.538  11.208 -0.0198  0.4812 -0.2442
 1556TIP3    H126083   6.137   5.559  11.131  0.4401 -1.7537 -0.5999
 1556TIP3    H226084   6.080   5.443  11.208 -0.6982  0.4704  2.0445
 1557TIP3   OH226085   2.720   1.468  16.796  0.0602  0.2776 -0.2792
 1557TIP3    H126086   2.712   1.467  16.701  0.5531 -0.9570 -0.3284
 1557TIP3    H226087   2.657   1.533  16.825 -0.7429  0.0203 -1.4007
 1558TIP3   OH226088   5.624   0.773  13.459  0.1561 -0.5101 -0.2061
 1558TIP3    H126089   5.530   0.791  13.449  0.1016 -0.0854  0.9483
 1558TIP3    H226090   5.666   0.829  13.395 -0.3633 -0.5727 -0.6135
 1559TIP3   OH226091   0.142   2.954   3.094  0.4358  0.0322  0.1067
 1559TIP3    H126092   0.158   2.989   3.181  1.6794  0.1372 -0.1455
 1559TIP3    H226093   0.209   2.887   3.083  0.2091 -0.0672 -0.7238
 1560TIP3   OH226094   2.775   6.210   5.977 -0.5921 -0.0527  0.0956
 1560TIP3    H126095   2.741   6.269   5.909 -1.7039 -0.3448  0.3751
 1560TIP3    H226096   2.711   6.139   5.981  1.3726 -2.0200 -1.1531
 1561TIP3   OH226097   1.439   5.215   0.419  0.3182 -0.4062  0.0037
 1561TIP3    H126098   1.435   5.258   0.333  0.2890 -0.0535  0.1772
 1561TIP3    H226099   1.413   5.125   0.402 -0.4990 -0.1395 -0.2266
 1562TIP3   OH226100   4.644   5.403  11.778  0.2558  0.0194  0.2648
 1562TIP3    H126101   4.568   5.373  11.729  0.1380  0.8462 -0.0877
 1562TIP3    H226102   4.618   5.489  11.811  0.4945 -0.3371  1.4244
 1563TIP3   OH226103   3.757   2.073   4.726 -0.0531  0.2895 -0.3014
 1563TIP3    H126104   3.794   1.987   4.748 -1.1508 -0.3833 -0.9900
 1563TIP3    H226105   3.813   2.135   4.772 -0.9217 -0.9133  2.6239
 1564TIP3   OH226106   3.800   3.631  16.865  0.0405  0.1817  0.1453
 1564TIP3    H126107   3.813   3.538  16.845  1.0229  0.4187 -0.3812
 1564TIP3    H226108   3.819   3.677  16.783  0.8201  0.9278  0.7229
 1565TIP3   OH226109   4.745   5.864  14.656  0.4871  0.0516 -0.6057
 1565TIP3    H126110   4.727   5.950  14.693  0.2605 -0.1853 -0.1641
 1565TIP3    H226111   4.663   5.817  14.663  1.2672 -1.0928  1.5708
 1566TIP3   OH226112   5.507   1.535  12.139 -0.6291 -0.0769 -0.1424
 1566TIP3    H126113   5.569   1.482  12.189  0.6405  0.8056 -0.7226
 1566TIP3    H226114   5.487   1.609  12.198 -0.2271  0.2340 -0.3932
 1567TIP3   OH226115   4.595   3.453   3.350 -0.1535  0.1594  0.0205
 1567TIP3    H126116   4.675   3.429   3.302 -0.6496 -0.0954 -0.7008
 1567TIP3    H226117   4.624   3.464   3.440  1.1004  2.1637 -0.5693
 1568TIP3   OH226118   3.749   2.391   5.728 -0.3195 -0.1481  0.0818
 1568TIP3    H126119   3.751   2.413   5.635  1.2340 -0.2321  0.0631
 1568TIP3    H226120   3.683   2.322   5.735  1.6806 -2.3960 -1.5424
 1569TIP3   OH226121   6.085   2.658  10.945  0.0155 -0.3938 -0.2754
 1569TIP3    H126122   6.041   2.741  10.964 -1.7658 -1.4213  0.3425
 1569TIP3    H226123   6.114   2.627  11.031  0.6914 -0.4113 -0.5066
 1570TIP3   OH226124   2.084   5.078  10.861 -0.2315  0.0168  0.2947
 1570TIP3    H126125   2.151   5.063  10.793  0.3021 -0.6453  0.9463
 1570TIP3    H226126   2.129   5.130  10.928 -0.6427  0.3364  0.3289
 1571TIP3   OH226127   1.653   2.059   5.054 -0.6005  0.0529  0.1202
 1571TIP3    H126128   1.648   2.067   5.150 -1.1616 -0.0298  0.1009
 1571TIP3    H226129   1.680   1.968   5.039 -1.7706 -0.3214  0.1802
 1572TIP3   OH226130   6.278   1.522   1.835 -0.1075  0.3857 -0.1152
 1572TIP3    H126131   6.272   1.549   1.744  0.1651  1.8235  0.2718
 1572TIP3    H226132   6.203   1.465   1.848 -0.6152  0.8241 -1.0253
 1573TIP3   OH226133   4.415   1.316  10.705  0.9189 -0.5686 -0.4269
 1573TIP3    H126134   4.350   1.383  10.683 -0.4431 -1.3056  1.1250
 1573TIP3    H226135   4.499   1.355  10.683  0.1769  1.7223  0.5623
 1574TIP3   OH226136   5.149   3.729  15.420  0.1498 -0.2249 -0.9396
 1574TIP3    H126137   5.114   3.784  15.490  0.0247 -0.2248 -1.0019
 1574TIP3    H226138   5.080   3.666  15.401  0.6390 -0.9910 -0.2422
 1575TIP3   OH226139   5.245   1.974   4.765  0.8803 -0.1702  0.5490
 1575TIP3    H126140   5.171   1.915   4.746  0.7148  0.8174 -2.2648
 1575TIP3    H226141   5.207   2.040   4.823  0.6007 -1.7402  2.2575
 1576TIP3   OH226142   3.673   2.148   0.521  0.5314  0.2140  0.0930
 1576TIP3    H126143   3.760   2.181   0.500  1.8174 -2.0525  1.5023
 1576TIP3    H226144   3.632   2.133   0.436  0.8167  2.8031 -0.6014
 1577TIP3   OH226145   0.057   6.031  15.651 -0.4364  0.6691  0.1466
 1577TIP3    H126146   0.047   5.954  15.595 -1.1287 -0.4762  1.7609
 1577TIP3    H226147   0.143   6.066  15.627  0.3236 -1.1525 -0.0045
 1578TIP3   OH226148   6.353   3.111   1.038 -0.2273  0.7278  0.3614
 1578TIP3    H126149   6.400   3.161   0.970 -0.7129  1.2603  0.4056
 1578TIP3    H226150   6.369   3.020   1.016  0.1000  0.9004 -0.1417
 1579TIP3   OH226151   6.189   1.353   6.561 -0.5541  0.2955  0.3243
 1579TIP3    H126152   6.228   1.421   6.615 -1.3235  1.2865 -0.3355
 1579TIP3    H226153   6.112   1.394   6.522  0.0003 -0.3559 -1.5754
 1580TIP3   OH226154   0.281   5.299   4.557 -0.2868 -0.4820  0.3800
 1580TIP3    H126155   0.369   5.320   4.525 -0.2220 -0.5547  0.5106
 1580TIP3    H226156   0.223   5.348   4.499 -0.1412 -0.0769  0.5754
 1581TIP3   OH226157   0.455   5.617   1.713 -0.3915 -0.2091  0.7341
 1581TIP3    H126158   0.522   5.632   1.780  2.0333 -0.8404 -1.3512
 1581TIP3    H226159   0.409   5.700   1.706  0.4869  0.4112  1.9628
 1582TIP3   OH226160   4.962   0.418  13.870 -0.5832 -0.1196  0.7837
 1582TIP3    H126161   4.868   0.399  13.863 -0.3326 -0.9958 -0.5678
 1582TIP3    H226162   4.972   0.506  13.835 -0.9147  0.0494  1.1025
 1583TIP3   OH226163   1.578   3.463  15.308  0.0806  0.2069 -0.1820
 1583TIP3    H126164   1.524   3.536  15.279 -1.4593 -0.6256  0.5048
 1583TIP3    H226165   1.546   3.442  15.396  1.4874 -0.3532  0.2266
 1584TIP3   OH226166   4.847   6.590  15.510  0.2714 -0.1850 -0.2820
 1584TIP3    H126167   4.915   6.658  15.507  0.3938 -0.2717  0.3523
 1584TIP3    H226168   4.804   6.604  15.595 -0.7067  0.0625 -0.8102
 1585TIP3   OH226169   1.760   4.210  15.404  0.1079  0.4675  0.2008
 1585TIP3    H126170   1.668   4.237  15.398 -0.0025  0.0482 -0.0130
 1585TIP3    H226171   1.756   4.115  15.409  0.5361  0.4496  0.1836
 1586TIP3   OH226172   4.421   2.049  13.198  0.3345  0.0840  0.0974
 1586TIP3    H126173   4.441   2.106  13.272  3.5689  0.4641 -0.9319
 1586TIP3    H226174   4.345   2.090  13.156 -1.6701 -0.1948  3.1344
 1587TIP3   OH226175   0.882   1.831  13.767  0.2342 -0.0640 -0.1805
 1587TIP3    H126176   0.928   1.910  13.737 -0.2565  0.4231  0.3212
 1587TIP3    H226177   0.885   1.837  13.863 -2.8734  1.1957 -0.0766
 1588TIP3   OH226178   0.561   1.787   1.433  0.3429  0.1298  0.2922
 1588TIP3    H126179   0.538   1.781   1.341  1.5985 -0.0814 -0.0298
 1588TIP3    H226180   0.648   1.826   1.433 -0.2225  1.4837  1.4659
 1589TIP3   OH226181   3.461   0.073  13.466 -0.2424 -0.3172  0.3589
 1589TIP3    H126182   3.526   0.142  13.452 -1.5990  0.6644 -1.6151
 1589TIP3    H226183   3.422   0.095  13.551 -0.4938  1.2895 -0.1267
 1590TIP3   OH226184   5.663   2.002   4.271  0.4976  0.1708 -0.4237
 1590TIP3    H126185   5.702   2.033   4.353 -0.2421  0.7977 -0.3062
 1590TIP3    H226186   5.683   2.071   4.208  1.4639 -0.5193 -0.8957
 1591TIP3   OH226187   4.087   3.348  12.536  0.0912 -0.9429  0.1683
 1591TIP3    H126188   4.010   3.292  12.545  0.4340 -1.5487 -0.5467
 1591TIP3    H226189   4.115   3.365  12.626  0.1470 -2.1704  0.4078
 1592TIP3   OH226190   2.232   0.236  11.482 -0.7916 -0.1396 -0.1750
 1592TIP3    H126191   2.325   0.215  11.489 -0.9848 -0.7348  0.8317
 1592TIP3    H226192   2.230   0.329  11.459  0.0616  0.2348  1.1358
 1593TIP3   OH226193   2.967   6.033   5.331  0.3330  0.5808 -0.1682
 1593TIP3    H126194   2.878   6.006   5.354  0.8066  0.7316  2.0623
 1593TIP3    H226195   2.958   6.124   5.301 -0.4815 -0.0362 -1.9174
 1594TIP3   OH226196   6.520   3.294   0.893 -0.0310  0.0297  0.4664
 1594TIP3    H126197   6.530   3.216   0.838  3.4934  0.9009 -0.3645
 1594TIP3    H226198   6.469   3.354   0.839  0.8353 -0.2053 -0.6535
 1595TIP3   OH226199   3.582   5.425  15.294  0.2021  0.1926 -0.0047
 1595TIP3    H126200   3.542   5.352  15.341  0.9125 -0.4935 -0.4474
 1595TIP3    H226201   3.514   5.493  15.293 -0.6648 -0.6616 -0.0665
 1596TIP3   OH226202   0.980   2.638   0.467 -0.5930  0.1680  0.4332
 1596TIP3    H126203   1.040   2.601   0.532  0.1598  0.1027 -0.2861
 1596TIP3    H226204   0.906   2.577   0.466  0.9549 -1.8571 -1.2657
 1597TIP3   OH226205   3.462   3.944   2.342  0.5642 -0.3108  0.0458
 1597TIP3    H126206   3.502   3.985   2.418 -0.1587  1.0450 -0.2851
 1597TIP3    H226207   3.522   3.873   2.319  2.1659  0.9242  0.2608
 1598TIP3   OH226208   6.439   3.882   4.177 -0.5512  0.0888 -0.4002
 1598TIP3    H126209   6.402   3.810   4.126  1.6824  0.2700 -2.4808
 1598TIP3    H226210   6.448   3.847   4.266 -3.1218 -0.7887 -0.4218
 1599TIP3   OH226211   6.166   2.859   4.571 -0.0704  0.0466  0.1478
 1599TIP3    H126212   6.077   2.887   4.591 -0.8930 -1.5221 -1.0147
 1599TIP3    H226213   6.205   2.841   4.656 -1.2658 -0.3058  0.6488
 1600TIP3   OH226214   4.379   3.955  14.932  0.3642  0.2896  0.2594
 1600TIP3    H126215   4.450   3.892  14.947  0.6473 -0.1706 -2.4746
 1600TIP3    H226216   4.306   3.901  14.902 -0.1500  1.0420  0.1384
 1601TIP3   OH226217   0.807   6.255   0.898  0.1097 -0.7275 -0.2155
 1601TIP3    H126218   0.891   6.216   0.922 -0.0149 -0.6754  0.3208
 1601TIP3    H226219   0.741   6.200   0.940 -0.0045  1.2534  2.4319
 1602TIP3   OH226220   5.330   1.665  15.465 -0.2191  0.2369  0.5556
 1602TIP3    H126221   5.414   1.673  15.420  0.3041 -1.5536  1.1018
 1602TIP3    H226222   5.267   1.708  15.408  0.8976  0.6143 -0.4279
 1603TIP3   OH226223   4.016   1.883   5.039 -0.0798 -0.0407 -0.0063
 1603TIP3    H126224   3.962   1.901   4.962  0.1309  1.6075  0.1757
 1603TIP3    H226225   3.954   1.863   5.109 -0.3658  0.0996 -0.2193
 1604TIP3   OH226226   2.133   1.396   2.371  0.6993 -0.1688  0.7882
 1604TIP3    H126227   2.147   1.450   2.293  1.3330  0.6572  1.4535
 1604TIP3    H226228   2.119   1.308   2.336 -0.0216  0.3476 -0.3062
 1605TIP3   OH226229   5.457   6.072  13.264 -0.1267  0.5064 -0.0337
 1605TIP3    H126230   5.510   5.999  13.296  0.0065  0.8613  0.5736
 1605TIP3    H226231   5.513   6.149  13.273 -0.4965  0.7807 -0.0420
 1606TIP3   OH226232   6.606   1.457  12.809  0.8418  0.2154  0.1181
 1606TIP3    H126233   6.691   1.499  12.807  0.8883  0.1494  0.6767
 1606TIP3    H226234   6.624   1.368  12.840  0.5656  0.2204  0.2990
 1607TIP3   OH226235   5.331   4.758   2.057 -0.0084 -0.4861  0.0091
 1607TIP3    H126236   5.380   4.798   1.985  0.6672 -0.9849  0.1842
 1607TIP3    H226237   5.315   4.669   2.028 -1.5641 -0.0999 -0.4013
 1608TIP3   OH226238   2.757   4.446   3.678 -0.8311 -0.6839 -0.1895
 1608TIP3    H126239   2.721   4.516   3.731  0.4491 -0.9970  1.1657
 1608TIP3    H226240   2.735   4.365   3.724  2.2872 -0.8472  1.2787
 1609TIP3   OH226241   3.225   1.960  15.271 -0.3017 -0.2833  0.6986
 1609TIP3    H126242   3.310   1.990  15.241 -0.8562 -0.1959 -0.8595
 1609TIP3    H226243   3.199   2.023  15.338  1.8047 -1.5446  2.8607
 1610TIP3   OH226244   3.366   2.726   1.114 -0.1107 -0.3659  0.0552
 1610TIP3    H126245   3.351   2.809   1.159 -1.4609 -0.5524 -0.0258
 1610TIP3    H226246   3.301   2.724   1.044  1.9733 -0.0718 -1.9966
 1611TIP3   OH226247   0.023   3.154   3.567 -0.8102  0.9426 -0.0119
 1611TIP3    H126248  -0.037   3.170   3.640 -0.3656 -0.3497  0.6578
 1611TIP3    H226249  -0.025   3.096   3.508 -1.0992  1.8377 -0.6859
 1612TIP3   OH226250   4.040   2.543   1.675 -0.0709 -0.3741 -0.2640
 1612TIP3    H126251   4.098   2.469   1.695 -0.5639 -0.1825  2.2273
 1612TIP3    H226252   3.988   2.555   1.755 -0.6636  2.0808 -0.9272
 1613TIP3   OH226253   3.090   2.935  11.223  0.2029 -0.4282  0.2361
 1613TIP3    H126254   3.133   3.006  11.176 -0.9297  1.8686  2.3749
 1613TIP3    H226255   3.000   2.936  11.190  0.1779 -0.8555  0.2892
 1614TIP3   OH226256   3.070   2.300  12.803 -0.3030 -0.6415 -0.1405
 1614TIP3    H126257   3.096   2.339  12.720 -0.3634 -1.1200 -0.3917
 1614TIP3    H226258   3.063   2.373  12.864  0.0202 -0.3210 -0.4866
 1615TIP3   OH226259   1.701   4.242   3.937 -0.3214 -0.2291  0.2233
 1615TIP3    H126260   1.715   4.150   3.959  2.7289 -0.4120 -1.8955
 1615TIP3    H226261   1.630   4.269   3.995  1.6809 -2.6511  4.3285
 1616TIP3   OH226262   5.937   6.090  10.731  0.0275  0.1093 -0.1568
 1616TIP3    H126263   5.916   6.124  10.644  0.1472 -0.6565 -0.4873
 1616TIP3    H226264   5.859   6.040  10.757  0.2466 -0.2058 -0.1028
 1617TIP3   OH226265   1.697   4.695  16.514  0.2572 -0.4546 -0.3944
 1617TIP3    H126266   1.655   4.609  16.513 -0.2362 -0.2700  1.2079
 1617TIP3    H226267   1.787   4.677  16.541  0.9369 -0.7092 -2.6070
 1618TIP3   OH226268   1.265   0.583  13.189 -0.1535 -0.7553  0.5843
 1618TIP3    H126269   1.175   0.561  13.165 -0.3325 -0.5501  1.0468
 1618TIP3    H226270   1.309   0.499  13.195 -0.6413 -0.9542  1.5943
 1619TIP3   OH226271   0.343   5.613   4.480  0.1475  0.0470  0.5299
 1619TIP3    H126272   0.247   5.616   4.482  0.1304 -0.3166  0.3792
 1619TIP3    H226273   0.367   5.665   4.403  0.0362 -0.4791  0.1350
 1620TIP3   OH226274   0.905   4.133  13.285  0.4416  0.4259  0.8886
 1620TIP3    H126275   0.985   4.181  13.309  2.2523 -1.9015 -0.0400
 1620TIP3    H226276   0.921   4.106  13.194 -0.9242 -1.0081  1.0351
 1621TIP3   OH226277   1.031   3.200   6.726 -0.1675 -0.0143 -0.4791
 1621TIP3    H126278   1.061   3.277   6.774 -3.4136  0.1555  1.5767
 1621TIP3    H226279   1.001   3.234   6.642  1.8425  0.3212 -1.1048
 1622TIP3   OH226280   2.898   0.614  15.479  0.4352 -0.1422  0.0260
 1622TIP3    H126281   2.966   0.556  15.514  1.0213  1.1184  1.0772
 1622TIP3    H226282   2.943   0.697  15.464 -1.0970  1.1176  1.9330
 1623TIP3   OH226283   3.159   4.316  16.811  0.4263 -0.0449 -0.6700
 1623TIP3    H126284   3.122   4.277  16.890  0.4126  1.0122 -0.1419
 1623TIP3    H226285   3.083   4.331  16.754  0.3561 -0.1854 -0.6167
 1624TIP3   OH226286   5.304   1.572   5.493 -0.1405  0.5236  0.1128
 1624TIP3    H126287   5.309   1.638   5.562 -0.5185  1.6096 -0.8743
 1624TIP3    H226288   5.245   1.506   5.528  1.0687  0.1415  1.5504
 1625TIP3   OH226289   5.529   5.577   3.220 -0.6228 -0.0182 -0.2199
 1625TIP3    H126290   5.437   5.601   3.208 -0.5684  0.1744 -0.2480
 1625TIP3    H226291   5.533   5.541   3.309 -0.6254  0.4513 -0.0256
 1626TIP3   OH226292   0.782   6.258   1.681  0.3473  0.2033 -0.1662
 1626TIP3    H126293   0.846   6.306   1.734  0.1139  1.3316 -0.8800
 1626TIP3    H226294   0.831   6.184   1.646  0.8401  0.1679  0.5609
 1627TIP3   OH226295   6.294   0.959   0.444 -0.4137 -0.5020 -0.2917
 1627TIP3    H126296   6.372   0.930   0.491 -0.5957 -0.1688  0.2261
 1627TIP3    H226297   6.243   0.879   0.432 -1.2960 -0.3326  1.8496
 1628TIP3   OH226298   1.518   2.946   4.827  0.8649 -0.8099  0.4069
 1628TIP3    H126299   1.494   2.932   4.736  1.5777  1.1995 -0.1536
 1628TIP3    H226300   1.593   3.005   4.823  0.3609  0.0367  2.2996
 1629TIP3   OH226301   3.613   1.529  16.371 -0.1442 -0.3418  0.1458
 1629TIP3    H126302   3.526   1.546  16.333  0.1591 -0.6512 -0.7237
 1629TIP3    H226303   3.608   1.563  16.460 -1.0164  0.0471 -0.0445
 1630TIP3   OH226304   6.751   1.768  12.542 -0.2058  0.2596  0.1316
 1630TIP3    H126305   6.839   1.786  12.576  0.6599  0.4323 -2.0194
 1630TIP3    H226306   6.766   1.717  12.462 -2.1371 -0.7155  0.3279
 1631TIP3   OH226307   1.694   2.192   1.806  0.2823  0.6080  0.3520
 1631TIP3    H126308   1.694   2.116   1.864 -0.6184 -0.1704 -0.6316
 1631TIP3    H226309   1.759   2.172   1.739  0.7510  1.1517  0.6369
 1632TIP3   OH226310   4.970   1.530  14.635  0.2363  0.2425  0.0015
 1632TIP3    H126311   4.962   1.447  14.586  0.9398  1.4648 -2.3249
 1632TIP3    H226312   5.051   1.520  14.685 -0.5877 -1.1109  1.1487
 1633TIP3   OH226313   6.577   2.483   3.939 -0.4854  0.1365  0.0796
 1633TIP3    H126314   6.647   2.534   3.981 -0.0212 -0.7279  0.4003
 1633TIP3    H226315   6.520   2.456   4.012  0.3383 -1.3963  0.2109
 1634TIP3   OH226316   0.099   1.382   4.059  0.3612 -0.5656  0.9104
 1634TIP3    H126317   0.131   1.341   4.140  1.7947 -1.1749  0.0734
 1634TIP3    H226318   0.175   1.431   4.026 -0.1728 -0.4248 -0.1343
 1635TIP3   OH226319   4.383   5.372   2.791  0.0437  0.2308  0.0540
 1635TIP3    H126320   4.458   5.318   2.815 -0.4730 -0.6858 -0.3613
 1635TIP3    H226321   4.415   5.462   2.800  0.5732 -0.0964  1.8725
 1636TIP3   OH226322   1.567   1.585   2.471 -0.5752  0.0165 -0.3246
 1636TIP3    H126323   1.535   1.624   2.389 -3.6070  0.0210  0.7107
 1636TIP3    H226324   1.629   1.649   2.506 -0.1391  0.5626 -2.0226
 1637TIP3   OH226325   2.827   5.415  14.572  0.2548 -0.4127 -0.0771
 1637TIP3    H126326   2.795   5.344  14.517 -0.6264  0.1781 -0.3532
 1637TIP3    H226327   2.790   5.494  14.533 -0.1080  0.0513  1.1618
 1638TIP3   OH226328   1.636   3.913   3.709 -0.6637 -0.4046 -0.4918
 1638TIP3    H126329   1.613   3.933   3.800 -1.6066 -0.3089 -0.7347
 1638TIP3    H226330   1.617   3.819   3.700  0.4648 -0.6679 -0.3049
 1639TIP3   OH226331   1.106   3.120  14.959  0.2467 -0.1616  0.1678
 1639TIP3    H126332   1.073   3.154  14.876 -0.1735 -0.3302  0.2665
 1639TIP3    H226333   1.197   3.149  14.962  0.0568  0.4594 -0.0188
 1640TIP3   OH226334   0.759   4.124   4.423  0.2940 -0.1139  0.2389
 1640TIP3    H126335   0.742   4.142   4.516  0.0630 -1.6994  0.5367
 1640TIP3    H226336   0.849   4.093   4.420  0.0979 -0.6724  0.0275
 1641TIP3   OH226337   2.663   6.576   1.026  0.2561  0.4717 -0.1360
 1641TIP3    H126338   2.615   6.595   1.106 -0.2191  0.7490 -0.4796
 1641TIP3    H226339   2.615   6.622   0.958  0.2924 -0.2663 -0.6760
 1642TIP3   OH226340   0.639   4.483   0.704 -0.1374 -0.4796  0.4440
 1642TIP3    H126341   0.709   4.422   0.729  0.6471 -0.4057 -1.4748
 1642TIP3    H226342   0.562   4.427   0.693 -0.2788 -0.6399  1.9392
 1643TIP3   OH226343   5.714   0.130  14.576 -0.1259 -0.1299  0.4383
 1643TIP3    H126344   5.751   0.145  14.489  1.1380 -1.0790  0.7923
 1643TIP3    H226345   5.666   0.047  14.567  2.1937 -1.6526  1.2467
 1644TIP3   OH226346   4.037   5.070  17.214 -0.0867  0.2998 -0.2688
 1644TIP3    H126347   4.011   5.048  17.124 -1.5256 -2.4171  0.7021
 1644TIP3    H226348   3.978   5.142  17.238 -2.4737 -1.5040 -0.3105
 1645TIP3   OH226349   0.007   2.769  17.135 -0.3275  0.5481 -0.2940
 1645TIP3    H126350   0.043   2.771  17.224 -0.7546 -0.5349 -0.0849
 1645TIP3    H226351  -0.055   2.842  17.133 -0.4400  0.4832  0.3672
 1646TIP3   OH226352   6.265   0.711  16.025 -0.2114  0.5265 -0.5800
 1646TIP3    H126353   6.269   0.727  15.930  1.7394  1.4137 -0.3877
 1646TIP3    H226354   6.182   0.665  16.037  1.0043 -2.8431 -3.2088
 1647TIP3   OH226355   0.803   3.905  11.038  0.2813  0.2458  0.4660
 1647TIP3    H126356   0.843   3.818  11.036  1.4648  0.7365  1.5258
 1647TIP3    H226357   0.807   3.936  10.948  1.9846  0.1180  0.4713
 1648TIP3   OH226358   0.366   1.486   4.307  0.5537  0.8126 -0.3569
 1648TIP3    H126359   0.405   1.573   4.320 -0.7052  1.3954 -0.2934
 1648TIP3    H226360   0.360   1.476   4.212 -1.3183  1.7832 -0.3883
 1649TIP3   OH226361   5.190   4.765   5.172  0.2939  0.6486 -0.1001
 1649TIP3    H126362   5.219   4.855   5.157 -1.2142  1.0417 -0.8792
 1649TIP3    H226363   5.095   4.770   5.168  0.1032 -0.6684  1.8475
 1650TIP3   OH226364   3.249   2.193   1.015  0.1922 -0.9716  0.5174
 1650TIP3    H126365   3.268   2.177   1.107 -0.8932 -1.2978  0.6978
 1650TIP3    H226366   3.157   2.219   1.014  0.6180  0.6258 -0.3034
 1651TIP3   OH226367   1.552   0.722   2.724  0.2800  0.0874  0.2284
 1651TIP3    H126368   1.514   0.645   2.681 -0.4688 -0.1265  1.2402
 1651TIP3    H226369   1.610   0.685   2.791  1.2721  0.4175 -0.4264
 1652TIP3   OH226370   1.340   2.007   2.986  0.4490  0.2696  0.0393
 1652TIP3    H126371   1.362   2.092   3.024  0.6030 -0.3102  1.3016
 1652TIP3    H226372   1.420   1.955   2.994 -0.1592 -0.5665  0.9675
 1653TIP3   OH226373   1.929   0.339   1.161  0.4635 -0.1587  0.2427
 1653TIP3    H126374   1.907   0.408   1.224  0.0346  0.3152 -0.4033
 1653TIP3    H226375   1.978   0.275   1.211 -0.6738 -0.2555  1.2779
 1654TIP3   OH226376   0.687   3.689  14.197  0.1574 -0.1033  0.1116
 1654TIP3    H126377   0.778   3.718  14.190  0.6015 -1.2618  0.7501
 1654TIP3    H226378   0.687   3.601  14.161 -1.4161  1.0264 -2.9790
 1655TIP3   OH226379   0.739   4.198  11.459  0.0246 -0.3608  0.2759
 1655TIP3    H126380   0.678   4.167  11.391  0.0105  0.1303  0.0587
 1655TIP3    H226381   0.802   4.127  11.469  0.1345 -0.3643 -0.3900
 1656TIP3   OH226382   3.245   0.204   0.100 -0.3506  0.2120  0.1571
 1656TIP3    H126383   3.338   0.182   0.109 -0.0762  0.7799 -1.1484
 1656TIP3    H226384   3.232   0.275   0.163  0.7982  2.0363 -1.5450
 1657TIP3   OH226385   3.130   3.414   5.336 -0.0462 -0.4217 -0.1059
 1657TIP3    H126386   3.055   3.355   5.332 -0.1333 -0.3840  0.8022
 1657TIP3    H226387   3.099   3.494   5.292 -1.2202  0.2931  1.8880
 1658TIP3   OH226388   3.022   2.637   4.116 -0.0992 -0.2776 -0.8108
 1658TIP3    H126389   2.979   2.715   4.153  2.3059  0.8903 -0.2558
 1658TIP3    H226390   2.963   2.608   4.046 -1.6730  1.2949 -0.2158
 1659TIP3   OH226391   3.520   1.696  11.446 -0.1135  0.0020 -0.0704
 1659TIP3    H126392   3.556   1.610  11.425  1.2904  0.3124  0.9533
 1659TIP3    H226393   3.426   1.688  11.429  0.1861 -1.3323 -1.2198
 1660TIP3   OH226394   5.754   3.725  15.722 -0.0637 -0.2311 -0.5307
 1660TIP3    H126395   5.675   3.709  15.773  1.5023 -0.5813  1.9648
 1660TIP3    H226396   5.733   3.694  15.634 -1.9218 -2.5166  0.6150
 1661TIP3   OH226397   4.815   6.053   5.126 -0.1283  0.3046 -0.0483
 1661TIP3    H126398   4.845   6.011   5.046 -1.1109  0.9864 -0.8067
 1661TIP3    H226399   4.835   5.990   5.196  0.6525 -0.3404 -0.8287
 1662TIP3   OH226400   3.164   3.707   4.281 -0.0301  0.4677 -0.1394
 1662TIP3    H126401   3.197   3.619   4.299 -1.3229 -0.3339 -1.5004
 1662TIP3    H226402   3.069   3.700   4.288 -0.1817  1.6688 -0.6845
 1663TIP3   OH226403   3.115   5.811   5.752 -0.3574 -0.4681  0.0741
 1663TIP3    H126404   3.030   5.854   5.742  0.1924  0.9101  1.1315
 1663TIP3    H226405   3.094   5.724   5.787 -1.3013 -0.0014  0.6917
 1664TIP3   OH226406   0.028   0.042   4.138  0.6077 -0.2663 -0.4806
 1664TIP3    H126407  -0.019   0.063   4.057 -1.0052 -0.8068  0.2573
 1664TIP3    H226408   0.046   0.127   4.178  0.7482 -0.0242 -1.0536
 1665TIP3   OH226409   6.676   0.659   2.967 -0.0713 -0.3107 -0.0498
 1665TIP3    H126410   6.767   0.637   2.989 -0.1944 -1.8139 -0.9068
 1665TIP3    H226411   6.623   0.605   3.025 -0.3963 -0.8808 -0.8517
 1666TIP3   OH226412   4.029   1.290   0.980  0.3915 -0.8477  0.4900
 1666TIP3    H126413   3.937   1.316   0.988  0.8989  1.3813 -0.2076
 1666TIP3    H226414   4.047   1.241   1.060 -0.8094  0.6477  1.7319
 1667TIP3   OH226415   4.008   4.193   2.576 -0.5077 -0.0120 -0.6235
 1667TIP3    H126416   3.954   4.266   2.548 -1.0175  0.4448  1.3502
 1667TIP3    H226417   4.076   4.233   2.631  0.3411 -0.8315 -1.0549
 1668TIP3   OH226418   0.301   3.951   5.342 -0.3694 -0.0799  0.4709
 1668TIP3    H126419   0.318   3.892   5.415  0.0270 -0.0875  0.3782
 1668TIP3    H226420   0.276   3.893   5.270 -0.8179 -0.0677  0.6145
 1669TIP3   OH226421   4.777   5.117  15.177  0.1887 -0.4793  0.0014
 1669TIP3    H126422   4.781   5.099  15.083 -0.8722 -1.4174  0.1164
 1669TIP3    H226423   4.690   5.089  15.203  1.0085 -1.7357  1.5720
 1670TIP3   OH226424   3.276   2.882   5.061  0.1412 -0.1048  0.2853
 1670TIP3    H126425   3.247   2.939   5.132  1.5479  2.8363 -1.3435
 1670TIP3    H226426   3.225   2.911   4.985  0.7269 -1.1859 -0.5463
 1671TIP3   OH226427   3.422   6.103   3.758  0.4942  0.3022 -0.2295
 1671TIP3    H126428   3.502   6.153   3.740  0.5054  0.2079 -0.4489
 1671TIP3    H226429   3.420   6.037   3.689 -0.4871  1.1613 -1.0564
 1672TIP3   OH226430   6.246   4.685  10.664 -0.2742 -0.1808 -0.2208
 1672TIP3    H126431   6.243   4.772  10.624  0.1136  0.3271  0.8089
 1672TIP3    H226432   6.154   4.659  10.671 -0.5681  1.0840  1.3640
 1673TIP3   OH226433   2.377   6.291   4.625 -0.0409 -0.8100 -0.3396
 1673TIP3    H126434   2.370   6.377   4.583 -0.6401 -0.3439  0.6531
 1673TIP3    H226435   2.311   6.294   4.694 -1.0672 -2.6098 -1.1811
 1674TIP3   OH226436   4.476   6.113  14.729  0.1725 -0.5012  0.6992
 1674TIP3    H126437   4.571   6.120  14.743  0.3203  2.3484 -1.0356
 1674TIP3    H226438   4.467   6.049  14.659  0.9362  0.1342 -0.0018
 1675TIP3   OH226439   4.130   0.385  15.700  0.4711  0.2810  0.2846
 1675TIP3    H126440   4.177   0.315  15.653  0.2665 -0.4268  1.1101
 1675TIP3    H226441   4.047   0.394  15.652  0.4730 -0.0826  0.2084
 1676TIP3   OH226442   5.831   5.043   5.221  0.2193  0.0772  0.5867
 1676TIP3    H126443   5.880   5.029   5.140 -1.4825  0.3138 -0.5157
 1676TIP3    H226444   5.811   5.137   5.220 -1.1744 -0.2063  0.4567
 1677TIP3   OH226445   5.587   2.967  14.336  0.1293  0.5852 -0.3865
 1677TIP3    H126446   5.561   2.959  14.244 -2.5965 -1.2415  0.4107
 1677TIP3    H226447   5.554   3.053  14.362 -2.7038 -0.4158 -0.2494
 1678TIP3   OH226448   2.483   6.594   2.343 -0.0364  0.9188 -0.5270
 1678TIP3    H126449   2.447   6.665   2.290  1.9694  1.1134 -1.6940
 1678TIP3    H226450   2.574   6.585   2.315  0.4968 -0.4371  1.3756
 1679TIP3   OH226451   4.627   1.597  16.378  0.1008 -1.1164  0.0057
 1679TIP3    H126452   4.623   1.693  16.368 -0.2781 -1.1077  0.2219
 1679TIP3    H226453   4.674   1.567  16.300  1.7834 -0.6013  0.7882
 1680TIP3   OH226454   4.571   3.918  12.264 -0.2283  0.4310 -0.4536
 1680TIP3    H126455   4.663   3.942  12.248 -0.1578  1.0077  0.7220
 1680TIP3    H226456   4.573   3.873  12.348 -1.3814  3.0421  1.0701
 1681TIP3   OH226457   4.301   5.691  15.880  0.0716 -0.1073 -0.1706
 1681TIP3    H126458   4.300   5.618  15.817 -0.2972 -0.2272 -0.0290
 1681TIP3    H226459   4.299   5.648  15.966  2.5999 -0.0191 -0.0006
 1682TIP3   OH226460   6.319   3.606   6.742  0.4166  0.3239 -0.0645
 1682TIP3    H126461   6.225   3.624   6.749  0.4659  0.1659  1.5704
 1682TIP3    H226462   6.361   3.689   6.766  0.7076  0.3884 -0.7650
 1683TIP3   OH226463   2.583   5.926  14.582  0.0324 -0.3340  0.5219
 1683TIP3    H126464   2.557   5.864  14.514 -0.6264  1.0899 -0.5635
 1683TIP3    H226465   2.678   5.917  14.588 -0.0979 -1.7931  0.7630
 1684TIP3   OH226466   4.346   3.764  11.040 -0.1618  0.5847 -0.1568
 1684TIP3    H126467   4.330   3.854  11.067 -1.6955  0.1617  0.4862
 1684TIP3    H226468   4.317   3.761  10.949 -2.1402  0.2876  0.4360
 1685TIP3   OH226469   0.045   5.751   5.056 -0.1042  0.6146 -0.1108
 1685TIP3    H126470   0.093   5.707   4.985 -1.8444 -0.4258 -0.6945
 1685TIP3    H226471   0.056   5.844   5.037  0.5187  0.3710 -1.0254
 1686TIP3   OH226472   4.680   5.804  10.478  0.1646 -0.0874 -0.2186
 1686TIP3    H126473   4.764   5.811  10.523 -0.3398 -0.3576  0.7800
 1686TIP3    H226474   4.631   5.881  10.507  0.6721  1.0330 -2.1567
 1687TIP3   OH226475   5.985   0.361  16.601  0.1607 -0.3340 -0.1466
 1687TIP3    H126476   6.000   0.266  16.602 -0.9063 -0.6048 -2.2804
 1687TIP3    H226477   6.072   0.399  16.589  0.6470 -0.9947  1.1123
 1688TIP3   OH226478   1.901   0.936  13.144 -1.0094  0.7379 -0.1668
 1688TIP3    H126479   1.942   0.943  13.058 -0.3041 -0.2405  0.0642
 1688TIP3    H226480   1.875   1.025  13.166  0.3529  1.2860 -0.6590
 1689TIP3   OH226481   1.235   6.461  16.016  0.4415  0.1147 -0.6324
 1689TIP3    H126482   1.325   6.490  16.001  0.3709  1.3876  1.0524
 1689TIP3    H226483   1.243   6.397  16.087  0.0686 -0.2386 -0.9073
 1690TIP3   OH226484   0.092   6.555  13.232 -0.1303 -0.1956 -0.0875
 1690TIP3    H126485   0.162   6.618  13.248 -0.0573 -0.1733 -0.4848
 1690TIP3    H226486   0.135   6.470  13.230 -0.0389 -0.1417 -0.7832
 1691TIP3   OH226487   5.004   5.098  11.484 -0.1384  0.2014  0.0174
 1691TIP3    H126488   4.914   5.069  11.498  0.2056 -1.3613 -0.7641
 1691TIP3    H226489   5.004   5.189  11.512 -1.9271  0.1978  0.1735
 1692TIP3   OH226490   1.124   0.962   1.585 -0.1377  0.8260 -0.3426
 1692TIP3    H126491   1.139   1.054   1.605 -1.4064  1.0214 -0.1669
 1692TIP3    H226492   1.171   0.948   1.503  1.9979  0.9935  0.8069
 1693TIP3   OH226493   1.699   5.391   4.684  0.1569  0.4322  0.4630
 1693TIP3    H126494   1.606   5.404   4.704 -1.3477 -1.6684 -3.8515
 1693TIP3    H226495   1.727   5.322   4.743 -1.5901 -0.1572  0.6741
 1694TIP3   OH226496   1.373   6.750   0.973 -0.3908 -0.4000 -0.5831
 1694TIP3    H126497   1.467   6.740   0.990 -0.2681  0.3781 -0.7797
 1694TIP3    H226498   1.348   6.667   0.932  0.0278 -0.9416  0.2191
 1695TIP3   OH226499   2.944   3.162   1.729  0.0457 -0.7688  0.0363
 1695TIP3    H126500   2.917   3.162   1.637  1.3488 -0.5569 -0.3688
 1695TIP3    H226501   3.026   3.113   1.730  0.8376  0.5128  0.8146
 1696TIP3   OH226502   1.385   0.641   3.663  0.1725 -0.5223 -0.7824
 1696TIP3    H126503   1.404   0.708   3.598  0.2746 -1.3540 -1.6273
 1696TIP3    H226504   1.471   0.621   3.702 -0.0746  1.0148  0.6948
 1697TIP3   OH226505   3.760   6.072  11.912  0.1356  0.2111  0.5319
 1697TIP3    H126506   3.699   6.141  11.936  0.5733  0.3746  1.2093
 1697TIP3    H226507   3.844   6.117  11.901  0.7901 -0.3955  2.5666
 1698TIP3   OH226508   0.372   1.261   3.866 -0.1190 -0.0021 -0.1513
 1698TIP3    H126509   0.465   1.270   3.846  0.1198 -0.4082  0.7183
 1698TIP3    H226510   0.369   1.199   3.939 -0.9503  1.1484  0.8357
 1699TIP3   OH226511   2.009   3.117  16.054  0.0313  0.3414  0.7118
 1699TIP3    H126512   2.059   3.043  16.020  1.4299  0.9036  1.4702
 1699TIP3    H226513   2.074   3.186  16.066 -1.3163  1.8545 -0.3815
 1700TIP3   OH226514   5.440   4.050  11.603  0.0692  0.0399 -0.5445
 1700TIP3    H126515   5.412   4.109  11.533  0.3149 -1.2775 -1.8287
 1700TIP3    H226516   5.358   4.021  11.644 -0.2901 -1.0533 -1.9419
 1701TIP3   OH226517   1.846   2.192   2.411  0.0856 -0.4494 -0.3621
 1701TIP3    H126518   1.848   2.191   2.316  1.0638 -0.0718 -0.3564
 1701TIP3    H226519   1.931   2.157   2.438  0.4065  0.7993  0.3418
 1702TIP3   OH226520   3.767   3.481   0.016  0.0556  0.3277  0.2734
 1702TIP3    H126521   3.731   3.415  -0.044  1.2232 -1.1140  1.1066
 1702TIP3    H226522   3.817   3.539  -0.041  0.1560 -0.3098 -0.3038
 1703TIP3   OH226523   1.135   4.306   6.056  0.2054  0.4602 -0.7466
 1703TIP3    H126524   1.180   4.270   6.133  0.9247 -0.1481 -1.4336
 1703TIP3    H226525   1.181   4.268   5.982 -0.4592  1.0712 -1.4865
 1704TIP3   OH226526   0.560   5.317  15.048  0.0605  0.3759  0.1615
 1704TIP3    H126527   0.602   5.402  15.065  1.1381  0.1736 -1.3217
 1704TIP3    H226528   0.607   5.256  15.104 -0.1533  0.6165  0.6075
 1705TIP3   OH226529   0.622   1.500  15.788  0.3736 -0.8095  0.1516
 1705TIP3    H126530   0.626   1.409  15.757  1.6197 -1.2241  1.4005
 1705TIP3    H226531   0.651   1.495  15.879  0.5903  0.8753  0.2027
 1706TIP3   OH226532   0.617   1.155  14.573  0.0652 -0.2692 -0.0709
 1706TIP3    H126533   0.669   1.079  14.549 -0.3956 -1.5513  2.5220
 1706TIP3    H226534   0.681   1.224  14.592  0.7170 -1.1108  0.8713
 1707TIP3   OH226535   6.555   4.491   3.256 -0.2248  0.0614 -0.0187
 1707TIP3    H126536   6.567   4.513   3.164 -1.7560 -0.6147 -0.4077
 1707TIP3    H226537   6.582   4.569   3.304 -1.5134  1.2291 -1.1419
 1708TIP3   OH226538   5.984   1.334  15.795 -0.0386 -0.3712 -0.4737
 1708TIP3    H126539   5.902   1.377  15.771  0.4094  0.5542 -0.3797
 1708TIP3    H226540   6.050   1.402  15.786  0.7190 -1.1042 -0.5196
 1709TIP3   OH226541   0.172   4.891   0.873 -0.1982 -0.7115  0.5076
 1709TIP3    H126542   0.140   4.938   0.950  0.6558 -0.1442  0.5300
 1709TIP3    H226543   0.141   4.802   0.885 -0.2181 -0.5955  1.4287
 1710TIP3   OH226544   4.240   1.904   6.395 -0.3213 -1.3470 -0.3096
 1710TIP3    H126545   4.313   1.879   6.339  0.4427  2.4055 -1.2280
 1710TIP3    H226546   4.167   1.917   6.335  0.0354  1.0151 -0.3069
 1711TIP3   OH226547   4.920   5.003   0.123  0.1516  0.2486  0.3162
 1711TIP3    H126548   4.998   4.952   0.147 -0.3652 -0.7388 -0.0518
 1711TIP3    H226549   4.878   5.024   0.206  0.8129  0.7957  0.5162
 1712TIP3   OH226550   4.897   5.172  16.860  0.2032 -0.1904 -0.7287
 1712TIP3    H126551   4.882   5.120  16.938  1.7786  1.0598  0.4502
 1712TIP3    H226552   4.811   5.176  16.817 -0.5855 -1.2363  0.6987
 1713TIP3   OH226553   4.349   2.495  14.523  0.1555 -0.4931  0.6208
 1713TIP3    H126554   4.267   2.539  14.501  0.7436  0.3400  0.0562
 1713TIP3    H226555   4.418   2.555  14.493  0.9751 -1.4991  0.4382
 1714TIP3   OH226556   4.261   3.018  12.814 -0.2271 -0.2076  0.5113
 1714TIP3    H126557   4.239   3.046  12.725  2.4594  0.8915  0.0820
 1714TIP3    H226558   4.207   3.074  12.870 -1.1928 -0.1920 -0.3930
 1715TIP3   OH226559   4.861   4.003   2.194  0.4762 -0.2342  0.5646
 1715TIP3    H126560   4.883   4.045   2.110 -0.4960  1.2560  1.0064
 1715TIP3    H226561   4.927   4.036   2.255  1.6677 -1.9380  0.2723
 1716TIP3   OH226562   6.059   2.790  15.855 -0.3506 -0.2441 -0.5837
 1716TIP3    H126563   6.073   2.871  15.807  1.0285  0.4954  0.9609
 1716TIP3    H226564   6.008   2.735  15.796 -1.9209  1.9870 -1.4077
 1717TIP3   OH226565   4.584   5.183  14.685  0.1027  0.0969 -0.1341
 1717TIP3    H126566   4.662   5.208  14.634  0.0620 -1.6495 -1.1088
 1717TIP3    H226567   4.540   5.118  14.632 -1.1143 -0.2175  1.2002
 1718TIP3   OH226568   5.977   6.640  13.156  0.0411 -0.7407 -0.1655
 1718TIP3    H126569   6.059   6.616  13.199  1.8338  1.4449 -2.1964
 1718TIP3    H226570   5.993   6.627  13.063 -1.9294 -0.2050 -0.6257
 1719TIP3   OH226571   3.470   0.566  12.708 -0.0118  0.1829 -0.3992
 1719TIP3    H126572   3.440   0.627  12.640 -0.4565  0.4663  0.0457
 1719TIP3    H226573   3.493   0.486  12.660 -1.9684 -0.2352 -0.7083
 1720TIP3   OH226574   0.806   3.746   0.828 -0.6477 -0.2034  0.3717
 1720TIP3    H126575   0.797   3.831   0.872  0.1485 -0.2655  0.6746
 1720TIP3    H226576   0.734   3.694   0.864 -1.8128  0.6506 -0.6178
 1721TIP3   OH226577   2.162   4.157  16.452 -0.0220 -0.4820  0.2509
 1721TIP3    H126578   2.158   4.194  16.540 -1.7312  2.2940 -0.8305
 1721TIP3    H226579   2.072   4.128  16.434 -0.0839  0.3932 -1.0434
 1722TIP3   OH226580   6.367   2.536  15.252 -0.2377 -0.1517 -0.0690
 1722TIP3    H126581   6.455   2.523  15.286 -0.4311 -1.5152 -0.0426
 1722TIP3    H226582   6.363   2.482  15.174 -0.3724  1.5823 -1.3342
 1723TIP3   OH226583   1.408   4.939   0.681  0.6641 -0.1051 -0.4168
 1723TIP3    H126584   1.479   4.895   0.634  0.1109  0.1228 -1.5045
 1723TIP3    H226585   1.329   4.896   0.650  0.3378 -0.7285  1.2017
 1724TIP3   OH226586   1.813   4.369  11.369  1.1669  0.0021  0.7712
 1724TIP3    H126587   1.797   4.292  11.314  0.3802  1.1932 -0.7494
 1724TIP3    H226588   1.896   4.350  11.414  1.2666 -1.4872  0.0057
 1725TIP3   OH226589   6.246   4.735  12.876 -0.3514  0.0459  0.1964
 1725TIP3    H126590   6.269   4.817  12.831 -1.8789  0.6109  0.3888
 1725TIP3    H226591   6.171   4.758  12.931 -0.8249 -1.5010  0.2400
 1726TIP3   OH226592   3.019   5.251  14.349  0.0859  0.4180  0.7456
 1726TIP3    H126593   3.039   5.171  14.301  1.3133  1.4289 -0.5089
 1726TIP3    H226594   2.923   5.251  14.357  0.0004 -0.6781 -0.0960
 1727TIP3   OH226595   1.998   6.307  12.859 -0.0022  0.7277  0.0082
 1727TIP3    H126596   2.059   6.372  12.822  2.4716 -1.5402 -0.2225
 1727TIP3    H226597   2.020   6.305  12.952  0.5026 -0.2985 -0.1235
 1728TIP3   OH226598   2.168   0.011  14.371  0.8411 -0.4651 -0.3044
 1728TIP3    H126599   2.149   0.087  14.316  0.1014 -0.0030  0.5627
 1728TIP3    H226600   2.110  -0.058  14.339  0.3561 -0.1723 -0.0693
 1729TIP3   OH226601   3.978   3.284   4.747 -0.5517 -0.3613  0.3115
 1729TIP3    H126602   4.053   3.257   4.800  1.0734  0.9798 -1.2126
 1729TIP3    H226603   3.974   3.219   4.677  0.6391  0.8162 -0.8864
 1730TIP3   OH226604   0.046   2.372   2.938  0.4026  0.1904 -0.4374
 1730TIP3    H126605   0.117   2.335   2.886  0.1961 -0.8233 -0.0306
 1730TIP3    H226606  -0.034   2.339   2.897  0.2502 -2.3108  1.6219
 1731TIP3   OH226607   3.516   0.509  11.898  0.2452 -0.1672  0.2530
 1731TIP3    H126608   3.584   0.472  11.954 -0.3395 -0.7504  0.5810
 1731TIP3    H226609   3.442   0.524  11.956 -0.7902 -1.8671 -0.5472
 1732TIP3   OH226610   3.023   5.402   1.247 -0.0098  0.2645  0.2438
 1732TIP3    H126611   3.103   5.446   1.217  1.5635 -0.7694  2.6542
 1732TIP3    H226612   2.999   5.346   1.173  1.7223  0.3096 -0.4173
 1733TIP3   OH226613   4.570   2.275   2.558  0.1497 -0.2375 -1.1545
 1733TIP3    H126614   4.518   2.355   2.568  1.0659  0.1053  1.4476
 1733TIP3    H226615   4.646   2.302   2.507  0.5756  0.6466 -0.0894
 1734TIP3   OH226616   2.019   1.936  15.005  0.1684 -0.3810  0.0609
 1734TIP3    H126617   2.107   1.972  15.016 -0.0011  0.0730 -0.0313
 1734TIP3    H226618   1.977   1.996  14.944 -0.1044 -0.7772 -0.1445
 1735TIP3   OH226619   4.248   3.451   0.144 -0.0044 -0.3121 -1.0753
 1735TIP3    H126620   4.195   3.372   0.157  0.3884 -0.8632 -2.6429
 1735TIP3    H226621   4.337   3.423   0.165 -0.0840  0.1911  0.0054
 1736TIP3   OH226622   6.194   4.218  15.952  0.2898 -0.0542 -0.0390
 1736TIP3    H126623   6.148   4.193  15.871 -1.4236  0.8038  0.6111
 1736TIP3    H226624   6.241   4.298  15.929 -1.2179  0.9087  0.0918
 1737TIP3   OH226625   3.740   0.915  14.363  0.3308 -0.0368  0.1083
 1737TIP3    H126626   3.755   1.000  14.323  2.6177 -0.0021  0.9024
 1737TIP3    H226627   3.761   0.852  14.294 -1.5884 -0.0315 -0.5541
 1738TIP3   OH226628   5.846   6.059   1.072  0.0869  0.0073  0.1697
 1738TIP3    H126629   5.771   6.017   1.030  0.2202 -1.4138  1.2840
 1738TIP3    H226630   5.821   6.151   1.079 -2.0823 -0.6157  1.5588
 1739TIP3   OH226631   4.453   2.849   1.914 -0.4126  0.3725  0.1352
 1739TIP3    H126632   4.433   2.876   2.003 -0.5357  0.0718  0.2032
 1739TIP3    H226633   4.367   2.841   1.872 -0.3444  0.7121 -0.0703
 1740TIP3   OH226634   6.498   2.303  17.105 -0.0949 -0.0335 -0.1221
 1740TIP3    H126635   6.567   2.238  17.093  0.5173  0.7250 -0.8112
 1740TIP3    H226636   6.544   2.384  17.130 -0.5764  0.8425 -1.9147
 1741TIP3   OH226637   0.940   2.779  12.591  0.2527 -0.3892 -1.0503
 1741TIP3    H126638   0.900   2.855  12.632  1.2542  0.6482 -1.9462
 1741TIP3    H226639   0.868   2.717  12.580 -0.5173  0.2986 -0.0396
 1742TIP3   OH226640   0.156   3.939  14.770  0.2667 -0.5320 -0.3248
 1742TIP3    H126641   0.129   3.941  14.678  0.1999 -3.1707 -0.4439
 1742TIP3    H226642   0.076   3.919  14.818  0.2725  0.9820  0.3798
 1743TIP3   OH226643   6.176   4.451  15.280 -0.5701 -0.2905 -1.0123
 1743TIP3    H126644   6.169   4.382  15.345  0.4390 -1.0905 -1.7337
 1743TIP3    H226645   6.175   4.406  15.196  0.8598  0.4762 -1.4832
 1744TIP3   OH226646   0.475   4.298   2.278 -0.2465 -0.2098 -0.4647
 1744TIP3    H126647   0.399   4.326   2.330  0.6470  0.6621  0.4210
 1744TIP3    H226648   0.439   4.235   2.215 -1.7830  0.5700 -0.4167
 1745TIP3   OH226649   1.544   3.516   1.043 -0.0629  0.0536 -0.0007
 1745TIP3    H126650   1.461   3.527   1.088  0.2438  0.2657  0.5181
 1745TIP3    H226651   1.545   3.587   0.978 -1.4096 -1.4507 -1.7837
 1746TIP3   OH226652   4.395   4.846  15.542  0.3319  0.2426 -0.3660
 1746TIP3    H126653   4.359   4.827  15.630 -1.0688  0.7860 -0.7915
 1746TIP3    H226654   4.396   4.941  15.537 -1.7073  0.2612 -1.7082
 1747TIP3   OH226655   4.704   6.700   0.908  0.6516  0.1026 -0.6951
 1747TIP3    H126656   4.719   6.754   0.985 -0.0012  0.8976 -1.1067
 1747TIP3    H226657   4.740   6.751   0.835 -0.4701  0.2514 -1.1648
 1748TIP3   OH226658   6.200   4.007   0.453 -0.0116 -0.2142 -0.5410
 1748TIP3    H126659   6.180   4.063   0.527  0.2266 -2.0449  0.9830
 1748TIP3    H226660   6.290   4.031   0.428 -1.2652  2.8757 -2.6483
 1749TIP3   OH226661   0.339   5.275   3.150 -0.6342  0.7848 -0.0969
 1749TIP3    H126662   0.315   5.187   3.119 -0.9660  0.7196  0.3327
 1749TIP3    H226663   0.372   5.319   3.072  0.4713 -0.0365 -0.1175
 1750TIP3   OH226664   2.905   2.814   5.105  0.3591 -0.0374 -0.4056
 1750TIP3    H126665   2.868   2.885   5.157  0.1431 -0.1436 -0.4134
 1750TIP3    H226666   2.971   2.856   5.050  1.6852 -0.1615  1.0446
 1751TIP3   OH226667   3.197   0.716   6.210  0.7164 -0.8202 -0.2338
 1751TIP3    H126668   3.284   0.718   6.249  0.8322 -1.1492 -0.4712
 1751TIP3    H226669   3.151   0.648   6.258  0.9461 -1.4154 -0.8476
 1752TIP3   OH226670   5.169   5.492  16.614  0.6782 -0.0568 -0.0626
 1752TIP3    H126671   5.258   5.520  16.636  0.7192 -0.4197  0.2456
 1752TIP3    H226672   5.181   5.430  16.542  0.9471 -2.2691  1.7679
 1753TIP3   OH226673   4.567   4.389   2.000  0.1327  0.3647  0.6296
 1753TIP3    H126674   4.591   4.309   1.954 -1.2748  0.2127  0.0848
 1753TIP3    H226675   4.500   4.362   2.063  1.5178  0.6894  2.3396
 1754TIP3   OH226676   6.462   4.892  16.182  0.4730  0.5435  0.3105
 1754TIP3    H126677   6.505   4.974  16.157 -0.8246  0.7217 -1.6213
 1754TIP3    H226678   6.392   4.882  16.117  1.3329 -2.7102 -0.2962
 1755TIP3   OH226679   1.416   1.041   5.381 -0.3722  0.0985 -0.1198
 1755TIP3    H126680   1.461   0.966   5.344  0.3366  0.6017 -0.2928
 1755TIP3    H226681   1.390   1.094   5.306 -0.9643 -0.0259 -0.0059
 1756TIP3   OH226682   2.588   6.680  13.407 -0.2997  0.1817  0.5506
 1756TIP3    H126683   2.537   6.710  13.482 -0.5539 -1.4970  1.0997
 1756TIP3    H226684   2.560   6.736  13.334 -2.8403 -0.5893  0.8549
 1757TIP3   OH226685   5.027   3.911  17.048 -0.5482  0.5518  0.2777
 1757TIP3    H126686   5.102   3.916  16.989 -0.4799 -1.3561  0.1244
 1757TIP3    H226687   5.056   3.852  17.118 -1.3601  1.0743  1.0688
 1758TIP3   OH226688   3.301   4.864  15.316 -0.3145  0.1484  0.2813
 1758TIP3    H126689   3.308   4.867  15.412 -1.6005  0.5784  0.3799
 1758TIP3    H226690   3.221   4.814  15.299 -0.3000  0.3949 -0.5641
 1759TIP3   OH226691   0.559   0.772   3.938 -0.3773 -0.0029 -0.3409
 1759TIP3    H126692   0.521   0.685   3.950  0.5972 -0.3816  0.1971
 1759TIP3    H226693   0.618   0.782   4.014 -1.2561  1.5571  0.1753
 1760TIP3   OH226694   4.106   1.318   5.020  0.0040 -0.5211  0.1999
 1760TIP3    H126695   4.165   1.287   5.089 -0.4016  0.3448  0.9558
 1760TIP3    H226696   4.079   1.405   5.048  0.1147  0.0130 -1.2390
 1761TIP3   OH226697   0.976   0.723  15.189  0.1762 -0.3717  0.0968
 1761TIP3    H126698   0.968   0.751  15.097  1.1295  0.2356  0.1716
 1761TIP3    H226699   0.889   0.694  15.214 -0.0722 -0.6370 -1.0377
 1762TIP3   OH226700   4.899   3.409   3.717 -0.1774 -0.4926  0.5172
 1762TIP3    H126701   4.857   3.409   3.803 -3.0763 -4.1991 -0.6597
 1762TIP3    H226702   4.965   3.340   3.722  1.3067  0.8299  0.3146
 1763TIP3   OH226703   2.789   3.568  16.985 -0.7307 -0.1734  0.1293
 1763TIP3    H126704   2.746   3.483  16.985 -1.6489  0.2847  0.1587
 1763TIP3    H226705   2.764   3.608  17.069  1.2989 -0.6582  1.0392
 1764TIP3   OH226706   4.856   2.339  12.345  0.0431 -0.6495 -0.0856
 1764TIP3    H126707   4.847   2.403  12.275 -1.0055 -1.7009 -0.9435
 1764TIP3    H226708   4.860   2.392  12.425  3.4668  0.6995 -0.9941
 1765TIP3   OH226709   0.750   4.461   0.190  0.4677 -0.2503  0.3989
 1765TIP3    H126710   0.670   4.507   0.216 -0.6642 -0.8097 -1.8949
 1765TIP3    H226711   0.743   4.375   0.231 -0.5216 -0.5743 -0.4245
 1766TIP3   OH226712   4.776   5.715   4.161  0.1863 -0.3071  0.5660
 1766TIP3    H126713   4.707   5.688   4.222 -0.1375  0.0538  0.3626
 1766TIP3    H226714   4.730   5.755   4.088  0.6271  0.2272  0.5735
 1767TIP3   OH226715   4.308   4.253   2.116 -0.5623 -0.7542 -0.7651
 1767TIP3    H126716   4.229   4.298   2.146 -1.1810 -0.4367 -2.7082
 1767TIP3    H226717   4.313   4.274   2.022  1.2815 -1.5918 -0.8943
 1768TIP3   OH226718   6.571   6.754   0.014 -0.5025  0.3509  0.2724
 1768TIP3    H126719   6.598   6.747   0.106  2.3527 -0.6203 -0.5157
 1768TIP3    H226720   6.573   6.664  -0.019 -0.0497  0.8184 -1.0721
 1769TIP3   OH226721   2.785   1.940  11.588  0.2597  0.0057 -0.0023
 1769TIP3    H126722   2.727   2.013  11.568  1.0251  0.6866  0.2203
 1769TIP3    H226723   2.868   1.963  11.547  0.5102 -0.7503  0.0601
 1770TIP3   OH226724   2.511   2.668   2.442  0.0769  0.0310 -0.2939
 1770TIP3    H126725   2.469   2.586   2.467 -0.5462  0.5605  0.4808
 1770TIP3    H226726   2.567   2.646   2.368 -1.2020 -0.8145 -1.0466
 1771TIP3   OH226727   6.771   3.686  15.442 -0.1911 -0.5532 -0.2488
 1771TIP3    H126728   6.831   3.720  15.508 -1.8100  1.7167  0.1880
 1771TIP3    H226729   6.781   3.591  15.447  0.6761 -0.4067  2.3616
 1772TIP3   OH226730   3.245   2.012   6.401  0.2688 -0.1680  0.3034
 1772TIP3    H126731   3.263   2.090   6.348  0.6660 -1.5034 -1.6512
 1772TIP3    H226732   3.154   1.989   6.379  0.0215 -0.0695  1.1694
 1773TIP3   OH226733   4.447   0.752   0.204  0.4428 -0.1559 -0.0453
 1773TIP3    H126734   4.420   0.673   0.157  2.0155 -1.8775  1.7065
 1773TIP3    H226735   4.423   0.824   0.147 -3.2391 -1.7056 -0.7307
 1774TIP3   OH226736   0.224   1.006  14.426  0.1408  0.0879 -0.3315
 1774TIP3    H126737   0.269   1.090  14.417  1.7972 -0.7408 -0.1129
 1774TIP3    H226738   0.283   0.943  14.386  0.0633 -1.3018  1.5853
 1775TIP3   OH226739   0.368   0.980  11.725  0.0754 -0.2599 -0.1162
 1775TIP3    H126740   0.295   0.949  11.671  0.5400 -1.5310 -0.0334
 1775TIP3    H226741   0.439   0.994  11.663  0.9243 -2.6699  0.2071
 1776TIP3   OH226742   1.124   4.961   3.142 -0.2463  0.4413  0.4009
 1776TIP3    H126743   1.063   5.010   3.086 -0.4540  0.4274  0.6086
 1776TIP3    H226744   1.148   4.884   3.091 -0.2203  0.5659  0.2243
 1777TIP3   OH226745   4.255   6.134  13.850 -0.1501  0.4107 -0.4089
 1777TIP3    H126746   4.304   6.211  13.879 -1.0686  0.9473 -0.2245
 1777TIP3    H226747   4.304   6.060  13.885  1.1128  0.8720 -1.1362
 1778TIP3   OH226748   1.237   1.644  17.015 -0.1532  0.1710 -0.3558
 1778TIP3    H126749   1.327   1.620  17.037 -0.7894 -0.6526  1.6170
 1778TIP3    H226750   1.236   1.647  16.920  1.1698 -3.1469 -0.6352
 1779TIP3   OH226751   4.831   3.852  13.029 -0.5742  0.1827 -0.8962
 1779TIP3    H126752   4.914   3.805  13.020 -1.2086 -0.6612 -3.3343
 1779TIP3    H226753   4.842   3.907  13.106  2.5833  0.7489 -1.6154
 1780TIP3   OH226754   4.336   3.359   0.423 -0.2333  0.3639 -0.2207
 1780TIP3    H126755   4.404   3.346   0.356  2.0769 -0.8377  2.1593
 1780TIP3    H226756   4.371   3.428   0.480 -1.1098 -0.1081  0.9351
 1781TIP3   OH226757   6.387   4.401  15.899  0.4471 -0.0905 -0.2935
 1781TIP3    H126758   6.469   4.356  15.920  0.1408 -0.4376  0.1710
 1781TIP3    H226759   6.398   4.488  15.940  1.3698  0.5840 -1.8825
 1782TIP3   OH226760   2.611   2.050   3.922  0.6268  0.0192  0.3206
 1782TIP3    H126761   2.642   2.140   3.911 -0.0966  0.2909  0.4460
 1782TIP3    H226762   2.592   2.042   4.015  2.2335 -0.7911  0.6044
 1783TIP3   OH226763   5.733   6.495  10.701  0.5281 -0.2140 -0.4069
 1783TIP3    H126764   5.817   6.540  10.711  2.5529 -3.2018 -2.3396
 1783TIP3    H226765   5.743   6.415  10.753 -0.8190 -0.9995 -1.2951
 1784TIP3   OH226766   2.120   0.883   3.740 -0.0447 -0.2271  0.6167
 1784TIP3    H126767   2.041   0.861   3.691  0.3877 -1.6570  0.5158
 1784TIP3    H226768   2.185   0.818   3.712  0.1478 -1.2942  3.2603
 1785TIP3   OH226769   2.339   1.255  14.067 -0.2130  0.5868  0.6674
 1785TIP3    H126770   2.370   1.325  14.010 -1.7375 -0.7383 -2.0242
 1785TIP3    H226771   2.397   1.181  14.048 -0.2125  0.3683  1.4923
 1786TIP3   OH226772   3.339   1.883   5.312  0.0150  0.1841  0.2115
 1786TIP3    H126773   3.284   1.907   5.237  0.3318 -2.4298 -0.9629
 1786TIP3    H226774   3.302   1.802   5.344 -0.3658  1.4386  3.2834
 1787TIP3   OH226775   1.955   1.160  15.477 -0.4456 -0.3498  0.1135
 1787TIP3    H126776   1.925   1.072  15.452 -1.1117 -0.0624 -0.1128
 1787TIP3    H226777   2.004   1.191  15.401 -0.5136 -0.3885  0.0537
 1788TIP3   OH226778   3.261   4.639   4.127  0.1238 -0.3492  0.5031
 1788TIP3    H126779   3.278   4.731   4.146 -1.4970 -0.3865  2.4482
 1788TIP3    H226780   3.323   4.617   4.057  3.2321  1.1679  2.5649
 1789TIP3   OH226781   5.008   0.386   0.378 -0.1229 -0.0228 -0.0275
 1789TIP3    H126782   5.077   0.441   0.414  0.4734 -0.5928 -0.2869
 1789TIP3    H226783   4.990   0.322   0.446  0.9683 -1.0690 -0.7002
 1790TIP3   OH226784   3.530   2.274   2.233 -0.5378  0.3240 -0.6221
 1790TIP3    H126785   3.605   2.330   2.212 -0.9070  1.2362  0.3633
 1790TIP3    H226786   3.463   2.335   2.266 -0.7580 -0.7241  1.0234
 1791TIP3   OH226787   4.387   6.127  16.908 -0.2174 -0.0776  0.0087
 1791TIP3    H126788   4.319   6.141  16.843  1.2859 -1.1756 -1.9203
 1791TIP3    H226789   4.454   6.193  16.888  0.6028 -0.9140 -0.1180
 1792TIP3   OH226790   2.030   4.733  17.059 -0.0675  0.2723 -0.4945
 1792TIP3    H126791   2.082   4.728  17.140 -3.2776 -0.4862  1.6985
 1792TIP3    H226792   2.023   4.827  17.041 -1.9365  0.7335  2.0799
 1793TIP3   OH226793   2.121   4.277   0.285  0.3207  0.2428  0.6937
 1793TIP3    H126794   2.061   4.325   0.228 -1.6448 -1.8845  0.7995
 1793TIP3    H226795   2.185   4.238   0.226 -1.5300 -1.7064 -0.1708
 1794TIP3   OH226796   5.420   1.126   3.940 -0.0309 -0.5056  0.0561
 1794TIP3    H126797   5.497   1.105   3.886  1.1156 -1.0227  1.7807
 1794TIP3    H226798   5.353   1.150   3.878  0.8932 -2.0776 -1.6726
 1795TIP3   OH226799   5.109   5.303   4.551 -0.3073 -0.5267  0.6379
 1795TIP3    H126800   5.038   5.350   4.594  0.1476  0.7694  0.0347
 1795TIP3    H226801   5.183   5.311   4.611 -1.1150 -3.6976  2.2978
 1796TIP3   OH226802   3.921   0.182   1.981  0.2555  0.2421  0.1401
 1796TIP3    H126803   3.836   0.192   2.023  0.5522  1.5856  0.4524
 1796TIP3    H226804   3.985   0.193   2.051  0.7511 -4.0683  0.6242
 1797TIP3   OH226805   3.803   0.059   5.822  0.7798  0.3353 -0.2615
 1797TIP3    H126806   3.892   0.092   5.830  0.1669  2.1547 -0.5234
 1797TIP3    H226807   3.750   0.123   5.869 -0.6256  0.4788 -1.9498
 1798TIP3   OH226808   0.024   4.673   0.870  1.2389  0.0460  0.3035
 1798TIP3    H126809   0.035   4.612   0.797 -1.1293  1.1844 -1.1347
 1798TIP3    H226810  -0.018   4.620   0.938  4.0525 -1.1878  1.1972
 1799TIP3   OH226811   1.044   5.318   0.466 -0.0868  0.1820 -0.3921
 1799TIP3    H126812   1.056   5.344   0.374 -0.6803  1.4821 -0.1232
 1799TIP3    H226813   1.095   5.238   0.475 -0.3556 -0.1998 -1.9708
 1800TIP3   OH226814   2.815   1.759   1.305 -0.1560  0.6017  0.3012
 1800TIP3    H126815   2.817   1.678   1.357  0.9229  1.1362  1.1401
 1800TIP3    H226816   2.725   1.765   1.273 -0.2861 -0.8708  0.3148
 1801TIP3   OH226817   2.427   2.094   0.705  0.1966 -0.3242  0.2729
 1801TIP3    H126818   2.360   2.026   0.702  0.0148 -0.1569 -3.3644
 1801TIP3    H226819   2.498   2.060   0.651  0.4599  1.9682 -0.9469
 1802TIP3   OH226820   1.571   5.568  13.033 -0.0065  0.2626  0.3121
 1802TIP3    H126821   1.496   5.624  13.015 -1.1767 -0.0406  3.5297
 1802TIP3    H226822   1.535   5.479  13.032  0.6555 -0.0102  0.3174
 1803TIP3   OH226823   0.662   5.676  12.127 -0.1476 -0.2081  0.7467
 1803TIP3    H126824   0.573   5.698  12.099  0.4206 -0.2090 -1.2085
 1803TIP3    H226825   0.655   5.585  12.158 -1.0081  0.1432  1.6670
 1804TIP3   OH226826   2.082   0.874  15.449  0.4713 -0.2156 -0.0736
 1804TIP3    H126827   2.127   0.938  15.393 -1.4260 -0.5912 -2.2095
 1804TIP3    H226828   2.121   0.790  15.425 -0.2727 -0.3643 -0.8276
 1805TIP3   OH226829   2.839   4.908   4.210  0.4903 -0.2122  0.2667
 1805TIP3    H126830   2.814   4.997   4.236 -0.2501  0.0399 -1.1734
 1805TIP3    H226831   2.905   4.920   4.142 -0.5419 -0.6853 -0.8693
 1806TIP3   OH226832   3.576   5.428   3.863  0.2571  0.0723 -0.0333
 1806TIP3    H126833   3.522   5.506   3.875 -0.5081 -0.8141  3.3397
 1806TIP3    H226834   3.649   5.458   3.808 -0.3695  2.9761  0.5427
 1807TIP3   OH226835   4.707   6.613   3.535  0.5414  0.0423  0.4967
 1807TIP3    H126836   4.638   6.653   3.482  0.3725 -0.5101  0.2897
 1807TIP3    H226837   4.669   6.606   3.622  0.3954 -0.1073  0.4214
 1808TIP3   OH226838   0.600   5.169   5.206  0.0059 -0.8984  0.6291
 1808TIP3    H126839   0.540   5.111   5.158  0.2627 -0.6949  0.0557
 1808TIP3    H226840   0.600   5.250   5.155 -1.3632  0.1055  2.1088
 1809TIP3   OH226841   0.980   4.156   2.491  0.0485 -0.5813 -0.3029
 1809TIP3    H126842   1.016   4.115   2.569  0.0859 -1.2307 -0.6563
 1809TIP3    H226843   0.885   4.155   2.505  0.1215  0.5187  0.3264
 1810TIP3   OH226844   1.982   4.050   5.473  0.1045  0.2029  0.5621
 1810TIP3    H126845   1.891   4.061   5.499 -0.5655  0.2473 -1.6534
 1810TIP3    H226846   1.979   3.995   5.395  1.6997  2.3320 -1.1587
 1811TIP3   OH226847   3.814   3.291  12.629 -0.0817  0.1013  0.6055
 1811TIP3    H126848   3.847   3.303  12.718  1.0214  2.5698 -0.0460
 1811TIP3    H226849   3.722   3.318  12.635 -0.0816  0.0211  1.0558
 1812TIP3   OH226850   3.014   1.051  13.177  0.4311 -0.6120  0.0860
 1812TIP3    H126851   2.930   1.014  13.151  0.3470 -0.9813  0.8489
 1812TIP3    H226852   3.019   1.135  13.132 -0.9762  0.0498  1.0994
 1813TIP3   OH226853   3.898   4.481   5.444  0.1513 -0.2739  0.0066
 1813TIP3    H126854   3.804   4.474   5.431  0.1083 -0.3546  0.3529
 1813TIP3    H226855   3.921   4.405   5.498  0.6023 -0.9046 -1.0404
 1814TIP3   OH226856   2.132   0.687  14.372 -0.0849 -0.6410  0.2961
 1814TIP3    H126857   2.107   0.712  14.461  0.4481  0.8870  0.0437
 1814TIP3    H226858   2.122   0.767  14.321  3.1834 -0.4128 -0.2549
 1815TIP3   OH226859   3.003   3.996  12.781 -0.2807  0.1864 -0.1369
 1815TIP3    H126860   2.930   3.936  12.797  0.8939 -1.1822  0.3112
 1815TIP3    H226861   2.987   4.030  12.693 -1.2370 -0.4145 -0.2102
 1816TIP3   OH226862   2.544   4.731  15.262 -0.4141 -0.1608  0.0663
 1816TIP3    H126863   2.541   4.654  15.205  0.6072 -0.5090  0.4540
 1816TIP3    H226864   2.559   4.694  15.350  3.5587  0.5499 -0.1390
 1817TIP3   OH226865   6.719   4.948   3.571 -0.2875  0.0453  0.1528
 1817TIP3    H126866   6.760   4.893   3.638 -0.2415 -0.8225 -0.5508
 1817TIP3    H226867   6.790   4.965   3.509 -0.4157  0.5359  0.1438
 1818TIP3   OH226868   2.999   2.773   2.684 -0.1676  0.1840 -0.2737
 1818TIP3    H126869   3.038   2.826   2.615 -1.2950  0.1959 -0.9307
 1818TIP3    H226870   2.908   2.802   2.688 -0.9682 -1.9944 -1.0081
 1819TIP3   OH226871   0.039   5.498   4.097  0.0604  0.5843 -0.6180
 1819TIP3    H126872   0.055   5.562   4.028 -0.3515  0.5428 -0.7588
 1819TIP3    H226873  -0.028   5.439   4.061  0.8845 -0.3047 -0.7309
 1820TIP3   OH226874   5.344   3.087   4.397  0.5859  0.1173 -0.3489
 1820TIP3    H126875   5.300   3.096   4.481  0.3513  1.3195 -0.5801
 1820TIP3    H226876   5.324   2.998   4.369 -0.6725  0.2276  0.1206
 1821TIP3   OH226877   0.784   5.163   1.201 -0.3162 -0.6068 -0.4538
 1821TIP3    H126878   0.841   5.173   1.277 -0.5926  0.2106 -0.3409
 1821TIP3    H226879   0.779   5.068   1.187 -0.2375 -0.7702  0.5313
 1822TIP3   OH226880   4.132   4.800  10.936 -0.2776 -0.0300  0.1472
 1822TIP3    H126881   4.177   4.819  11.018  0.5319 -2.7169  0.4294
 1822TIP3    H226882   4.198   4.816  10.868 -1.2547  3.2081 -0.1878
 1823TIP3   OH226883   6.363   4.433  11.103  0.1299 -0.0475  0.5426
 1823TIP3    H126884   6.306   4.365  11.065  0.3142 -0.2106  0.5579
 1823TIP3    H226885   6.306   4.509  11.112  0.6088  0.7935 -2.3370
 1824TIP3   OH226886   0.895   2.461   1.158 -0.3111  0.0952  0.7620
 1824TIP3    H126887   0.990   2.451   1.156 -0.4056 -0.8680 -0.5361
 1824TIP3    H226888   0.864   2.387   1.211 -0.4238 -0.8291 -0.5323
 1825TIP3   OH226889   5.460   2.764   3.695  0.3203 -0.0852  0.2338
 1825TIP3    H126890   5.473   2.801   3.782  1.3954 -0.8759  0.4187
 1825TIP3    H226891   5.524   2.808   3.640  1.2427 -1.2382  0.3432
 1826TIP3   OH226892   0.508   0.062   5.078  0.2053 -0.2862 -0.3858
 1826TIP3    H126893   0.521   0.028   4.990  1.6569 -1.3100  0.1872
 1826TIP3    H226894   0.420   0.032   5.103  0.5518 -1.6640 -0.7660
 1827TIP3   OH226895   2.344   1.898   0.394 -0.1222  0.2569  0.0922
 1827TIP3    H126896   2.362   1.809   0.365 -1.7755 -0.4793  1.1837
 1827TIP3    H226897   2.426   1.929   0.431 -0.0607 -1.6165  1.6530
 1828TIP3   OH226898   2.649   4.906   6.358 -0.3620  0.2764 -0.4310
 1828TIP3    H126899   2.566   4.938   6.394  0.9403  1.0325  2.1567
 1828TIP3    H226900   2.642   4.811   6.362 -1.2577  0.3222 -0.6769
 1829TIP3   OH226901   4.175   5.494  11.256  0.5834 -0.1721 -0.2063
 1829TIP3    H126902   4.109   5.446  11.206  0.6187 -0.1283 -0.2947
 1829TIP3    H226903   4.130   5.521  11.336  0.4061  0.1312 -0.4087
 1830TIP3   OH226904   5.889   3.724  16.527  0.0740  0.5214 -0.2837
 1830TIP3    H126905   5.955   3.654  16.519 -0.6198 -0.2285  0.4046
 1830TIP3    H226906   5.927   3.786  16.589 -0.4812 -0.6803  1.3269
 1831TIP3   OH226907   3.219   2.342   2.744 -0.5073  0.7397  0.2050
 1831TIP3    H126908   3.236   2.436   2.751  0.5776  0.5276  0.6960
 1831TIP3    H226909   3.209   2.312   2.834 -0.4985  0.3312  0.0745
 1832TIP3   OH226910   4.035   0.722   5.530  0.3282 -0.0891 -0.4491
 1832TIP3    H126911   4.052   0.745   5.622  2.3599  1.2829 -1.0794
 1832TIP3    H226912   3.963   0.778   5.504  0.1349 -0.0538  0.1437
 1833TIP3   OH226913   2.331   5.960   2.113 -0.0945 -0.0997 -0.6455
 1833TIP3    H126914   2.421   5.973   2.084  0.8457 -0.7616  1.7016
 1833TIP3    H226915   2.320   5.865   2.117 -0.8631 -0.0227 -0.8124
 1834TIP3   OH226916   6.366   6.316  11.374 -0.1175  0.0441 -0.6959
 1834TIP3    H126917   6.324   6.397  11.405 -1.4495 -0.9543  0.2274
 1834TIP3    H226918   6.460   6.334  11.379 -0.3785  1.4344 -0.2503
 1835TIP3   OH226919   0.993   3.871   4.152  0.0885  0.2360  0.1323
 1835TIP3    H126920   1.010   3.781   4.124  1.5927  0.1662  1.1340
 1835TIP3    H226921   0.904   3.870   4.186 -0.1509 -0.7050 -0.4833
 1836TIP3   OH226922   0.289   3.524   3.473  0.1464 -0.0478  0.1810
 1836TIP3    H126923   0.301   3.472   3.553 -1.2834  1.1171  1.2170
 1836TIP3    H226924   0.194   3.541   3.470  0.1298 -0.2261 -1.8911
 1837TIP3   OH226925   0.165   2.307   3.586  0.3857  0.5177  0.5665
 1837TIP3    H126926   0.091   2.335   3.639 -0.7770 -2.1686  0.5383
 1837TIP3    H226927   0.128   2.291   3.499  1.4787  1.2329 -0.0527
 1838TIP3   OH226928   2.461   5.835  10.963  0.4368 -0.2537  1.2244
 1838TIP3    H126929   2.370   5.841  10.992  0.0708  1.9865 -0.1251
 1838TIP3    H226930   2.512   5.879  11.031 -0.0021  1.8532  0.2768
 1839TIP3   OH226931   2.476   3.252  16.029  0.0187  0.1116 -0.2358
 1839TIP3    H126932   2.457   3.284  15.941 -2.0381 -0.1682  0.0688
 1839TIP3    H226933   2.567   3.278  16.045  0.4442  0.1324 -2.4397
 1840TIP3   OH226934   1.246   0.144   1.459  0.8157 -0.1291 -0.4814
 1840TIP3    H126935   1.308   0.168   1.390  0.9202 -0.2511 -0.4290
 1840TIP3    H226936   1.277   0.060   1.492  1.2990  0.3619  0.3432
 1841TIP3   OH226937   0.770   2.193  17.126 -0.5875 -0.4554 -0.6549
 1841TIP3    H126938   0.758   2.249  17.203 -1.2128 -1.7611  0.2383
 1841TIP3    H226939   0.681   2.172  17.098 -0.3616 -0.1977 -1.6129
 1842TIP3   OH226940   0.779   0.499  15.453 -0.4083 -0.3192 -0.4607
 1842TIP3    H126941   0.785   0.477  15.546 -1.8592 -0.7425 -0.4419
 1842TIP3    H226942   0.769   0.414  15.410  1.5051 -0.2343 -1.1516
 1843TIP3   OH226943   5.009   3.064  12.469  0.2232  0.2329 -0.5687
 1843TIP3    H126944   4.975   3.077  12.381 -0.5696  0.5731 -0.2202
 1843TIP3    H226945   4.971   3.135  12.520  2.6447  1.5230 -0.4539
 1844TIP3   OH226946   1.323   3.015  16.617  0.4911  0.4959  0.7302
 1844TIP3    H126947   1.246   2.973  16.655  0.0619  1.1866  0.6327
 1844TIP3    H226948   1.362   2.948  16.561 -1.4764  0.8946 -1.2565
 1845TIP3   OH226949   1.029   4.847  12.452  0.0656 -0.7480  0.8299
 1845TIP3    H126950   1.055   4.767  12.407  0.1447 -0.0224 -0.4731
 1845TIP3    H226951   0.949   4.875  12.407 -0.0585 -0.1781  1.3839
 1846TIP3   OH226952   6.753   1.219   2.287 -0.3793 -0.7157 -0.1645
 1846TIP3    H126953   6.732   1.155   2.355  0.8551 -0.3939  0.5372
 1846TIP3    H226954   6.847   1.232   2.293 -0.5428  0.8673 -0.5587
 1847TIP3   OH226955   2.712   4.666   0.069 -0.2025  0.1411 -0.7077
 1847TIP3    H126956   2.667   4.736   0.021  1.3164  0.0311 -2.3827
 1847TIP3    H226957   2.689   4.586   0.022  0.6568 -0.0763 -0.7647
 1848TIP3   OH226958   6.421   1.075  15.074  0.2805 -0.4353 -0.5144
 1848TIP3    H126959   6.484   1.135  15.114 -1.3976  0.3511  1.1192
 1848TIP3    H226960   6.404   1.010  15.143 -1.1195 -0.2794 -0.6898
 1849TIP3   OH226961   1.300   3.325   0.639  0.1088 -0.7122  0.2621
 1849TIP3    H126962   1.248   3.362   0.710  0.8459  1.5496 -0.2692
 1849TIP3    H226963   1.383   3.374   0.641  0.9138 -1.9186 -0.9570
 1850TIP3   OH226964   6.397   4.140  15.336  0.2760 -0.1526 -0.3201
 1850TIP3    H126965   6.453   4.063  15.327  0.3643 -0.0963 -0.2574
 1850TIP3    H226966   6.310   4.108  15.314  0.5571  0.0984 -1.9013
 1851TIP3   OH226967   4.156   3.994   3.855 -0.3875 -0.0338 -0.4947
 1851TIP3    H126968   4.231   3.941   3.831  1.1306  0.6604  2.2219
 1851TIP3    H226969   4.192   4.082   3.868 -1.7734  0.4545  0.2662
 1852TIP3   OH226970   4.232   6.596   0.455  0.8518  0.0973 -0.5096
 1852TIP3    H126971   4.298   6.624   0.392  2.1105  0.7246  1.0186
 1852TIP3    H226972   4.282   6.553   0.524 -0.4658 -0.3962  0.1695
 1853TIP3   OH226973   0.308   5.982   6.336  0.1537  0.4980 -0.3326
 1853TIP3    H126974   0.381   6.029   6.295  0.7073  0.0370  0.0908
 1853TIP3    H226975   0.324   5.890   6.316 -0.1030  0.3568  0.0812
 1854TIP3   OH226976   3.591   2.920  12.391  0.0773 -0.3718 -0.8709
 1854TIP3    H126977   3.616   2.994  12.447 -1.3524 -1.1935  0.9526
 1854TIP3    H226978   3.641   2.933  12.311  1.2030  1.6010  0.0761
 1855TIP3   OH226979   4.868   0.691   2.083  0.1780  0.1028 -0.1755
 1855TIP3    H126980   4.878   0.777   2.124 -0.6206  0.4132 -0.6164
 1855TIP3    H226981   4.948   0.680   2.032  0.4711  0.4005  0.2125
 1856TIP3   OH226982   1.797   4.931  15.305  0.4941 -0.0274 -0.4270
 1856TIP3    H126983   1.768   4.897  15.390  0.5546  0.7677 -0.0839
 1856TIP3    H226984   1.770   4.864  15.242  2.2715 -1.6334  0.4142
 1857TIP3   OH226985   6.613   2.754  12.822 -0.2989 -0.7709 -0.3489
 1857TIP3    H126986   6.639   2.671  12.783 -2.0755 -1.0082 -1.1292
 1857TIP3    H226987   6.596   2.812  12.748 -0.3400 -0.1080  0.1621
 1858TIP3   OH226988   1.005   0.153  15.529  0.3226 -0.5061 -0.0329
 1858TIP3    H126989   0.960   0.085  15.578 -0.7388  1.0498  1.2845
 1858TIP3    H226990   1.015   0.225  15.592  0.2370  1.0269 -1.6746
 1859TIP3   OH226991   1.722   4.189  14.638 -0.1777 -0.2810 -0.0127
 1859TIP3    H126992   1.709   4.201  14.544 -0.2767  0.1617  0.0563
 1859TIP3    H226993   1.781   4.259  14.664 -1.4738  0.6523  0.5596
 1860TIP3   OH226994   0.216   0.964   2.158 -0.2503 -0.1839  0.1365
 1860TIP3    H126995   0.213   1.057   2.184  0.2362 -0.5395  1.5631
 1860TIP3    H226996   0.304   0.951   2.125 -0.7827  0.2006 -1.4951
 1861TIP3   OH226997   5.862   5.282  13.112 -0.2268  0.3209  0.2119
 1861TIP3    H126998   5.780   5.241  13.086  0.0510 -0.5557  0.6537
 1861TIP3    H226999   5.916   5.281  13.033 -0.4557  0.4218  0.0551
 1862TIP3   OH227000   6.073   5.224  14.202 -0.5234  0.0351  0.4304
 1862TIP3    H127001   6.117   5.140  14.192  1.5049  0.9703  0.9769
 1862TIP3    H227002   5.993   5.216  14.150 -0.4886 -2.2770  0.6555
 1863TIP3   OH227003   5.384   5.226   1.432  0.8930  0.3889  0.1449
 1863TIP3    H127004   5.474   5.208   1.462  0.3485 -2.5855  0.3163
 1863TIP3    H227005   5.396   5.272   1.349  2.7589 -2.7929 -1.5286
 1864TIP3   OH227006   1.772   3.650  15.861  0.6220  0.1919 -0.5250
 1864TIP3    H127007   1.750   3.568  15.906 -1.5359  0.4541 -1.0139
 1864TIP3    H227008   1.797   3.623  15.773  0.8896 -0.0158 -0.3854
 1865TIP3   OH227009   1.467   4.693  11.308 -0.2556 -0.6741 -0.1093
 1865TIP3    H127010   1.485   4.635  11.234 -0.0895 -0.5825 -0.1388
 1865TIP3    H227011   1.541   4.680  11.368 -0.9345 -1.5912  0.5606
 1866TIP3   OH227012   3.072   2.054  11.257  0.0946 -0.5919  0.7078
 1866TIP3    H127013   3.142   2.013  11.308  1.3035  0.5766  0.0424
 1866TIP3    H227014   2.992   2.035  11.306  1.1202 -0.2219  2.6168
 1867TIP3   OH227015   4.183   4.391  11.292 -0.5358  0.3190 -0.5189
 1867TIP3    H127016   4.111   4.333  11.316 -0.9401  1.2105  0.5112
 1867TIP3    H227017   4.261   4.346  11.324 -0.5897 -0.7064 -1.7466
 1868TIP3   OH227018   1.714   2.681   3.795 -0.2432  0.3606  0.3045
 1868TIP3    H127019   1.792   2.635   3.824  0.6276  1.7849  0.3421
 1868TIP3    H227020   1.641   2.629   3.828  0.6976 -0.2838  1.4508
 1869TIP3   OH227021   6.515   0.117  15.224  0.5891  0.4068  0.7002
 1869TIP3    H127022   6.602   0.153  15.209  0.7663  0.6363  2.1703
 1869TIP3    H227023   6.528   0.049  15.290 -0.3902  0.7458  1.2695
 1870TIP3   OH227024   5.904   2.664   6.198  0.4551 -0.1020  0.7606
 1870TIP3    H127025   5.888   2.571   6.186  0.2491  0.2046 -2.0165
 1870TIP3    H227026   5.817   2.705   6.190  0.7125  0.4190  0.5523
 1871TIP3   OH227027   3.999   1.067  13.895 -0.0042 -0.3107 -0.0366
 1871TIP3    H127028   3.990   1.143  13.952  1.6850 -2.0415  2.7938
 1871TIP3    H227029   3.909   1.045  13.870 -0.5669  2.1848 -0.4834
 1872TIP3   OH227030   2.756   6.399  11.147 -0.4048 -0.1422 -0.7003
 1872TIP3    H127031   2.771   6.413  11.054  0.8448 -1.1708 -0.6769
 1872TIP3    H227032   2.662   6.416  11.159 -0.3687  1.1072 -1.9131
 1873TIP3   OH227033   3.079   2.201   3.435  0.2876 -0.0259  0.8027
 1873TIP3    H127034   3.060   2.239   3.349  0.1790 -0.3644  0.6738
 1873TIP3    H227035   2.995   2.165   3.464  0.3979 -0.2065  0.9002
 1874TIP3   OH227036   4.867   1.019  16.660 -0.0152  0.0834  0.1421
 1874TIP3    H127037   4.929   0.950  16.635  0.3960  0.6842 -0.5238
 1874TIP3    H227038   4.884   1.033  16.753  0.5997 -0.0142  0.0506
 1875TIP3   OH227039   2.148   5.847  14.799  0.0276 -0.1291  0.1584
 1875TIP3    H127040   2.127   5.926  14.751  1.7131 -1.2199 -2.5574
 1875TIP3    H227041   2.066   5.797  14.799 -0.1559  0.1466 -1.1212
 1876TIP3   OH227042   3.799   4.191  11.708 -0.3357  0.0673  0.0315
 1876TIP3    H127043   3.711   4.169  11.676  0.4676 -1.9579 -0.9827
 1876TIP3    H227044   3.839   4.240  11.636 -0.7420  1.4321  0.6880
 1877TIP3   OH227045   0.967   5.438   4.097  0.0664 -0.0062 -0.5638
 1877TIP3    H127046   0.905   5.415   4.166 -1.1725  0.5002 -1.4756
 1877TIP3    H227047   1.053   5.428   4.138 -0.6204 -0.1630  0.9047
 1878TIP3   OH227048   0.719   4.336   5.819 -0.2229 -0.0024  0.7524
 1878TIP3    H127049   0.795   4.352   5.875  0.3295  0.2145 -0.0381
 1878TIP3    H227050   0.644   4.370   5.868  0.2728  0.3426  1.2753
 1879TIP3   OH227051   2.579   2.401   4.369  0.2867  0.2028 -0.1281
 1879TIP3    H127052   2.500   2.349   4.380  0.7658 -0.3265  1.0450
 1879TIP3    H227053   2.601   2.430   4.458  0.9097  1.0954 -0.5533
 1880TIP3   OH227054   5.317   4.403  13.689  0.6642  0.9310 -0.5416
 1880TIP3    H127055   5.372   4.465  13.642  2.3922  0.4619  0.7399
 1880TIP3    H227056   5.293   4.448  13.770  1.1385  0.3060 -0.0358
 1881TIP3   OH227057   5.172   0.097   0.420  0.2383  0.3303 -0.0792
 1881TIP3    H127058   5.118   0.024   0.390 -1.3741  1.2080  0.5487
 1881TIP3    H227059   5.188   0.148   0.341 -1.5646  1.1019 -0.0061
 1882TIP3   OH227060   2.382   3.543  11.964 -0.5036  0.0581 -0.1239
 1882TIP3    H127061   2.295   3.581  11.964 -0.7264 -0.4452  0.4162
 1882TIP3    H227062   2.370   3.453  11.932  0.1680  0.7376 -2.4574
 1883TIP3   OH227063   3.734   4.603  16.636 -0.3355 -0.2276  0.4991
 1883TIP3    H127064   3.677   4.570  16.706 -0.0089 -0.6619  0.5612
 1883TIP3    H227065   3.733   4.698  16.648  0.1010 -0.3246  1.4058
 1884TIP3   OH227066   6.443   5.979  12.927  0.0614  0.4469 -0.7745
 1884TIP3    H127067   6.352   5.988  12.897 -0.4226 -1.1750  0.0705
 1884TIP3    H227068   6.493   5.959  12.848 -0.6661 -0.6456 -0.9733
 1885TIP3   OH227069   4.785   1.476  10.977  0.5321 -0.2126  0.1310
 1885TIP3    H127070   4.868   1.481  11.025  1.2137  0.4762 -1.0866
 1885TIP3    H227071   4.804   1.421  10.901 -0.3045 -0.5459  0.1490
 1886TIP3   OH227072   5.923   6.688  12.699 -0.5544 -0.4322 -0.0586
 1886TIP3    H127073   5.848   6.690  12.759 -1.2364  1.0417 -0.9192
 1886TIP3    H227074   5.886   6.711  12.614  0.7848 -0.2949 -0.6216
 1887TIP3   OH227075   0.495   3.564   1.761  0.5360  0.2220  0.2449
 1887TIP3    H127076   0.481   3.659   1.752  1.4857  0.3220 -0.2558
 1887TIP3    H227077   0.508   3.552   1.856  1.1053  0.7081  0.2423
 1888TIP3   OH227078   5.168   3.340   4.045 -0.0590 -0.2362 -0.7063
 1888TIP3    H127079   5.221   3.409   4.006  1.0914  0.3044  1.6117
 1888TIP3    H227080   5.111   3.386   4.107  0.4443 -1.3070  0.5874
 1889TIP3   OH227081   1.261   2.306  16.083 -0.4576  0.3452 -0.4810
 1889TIP3    H127082   1.302   2.362  16.017  1.0203 -0.1227 -0.0026
 1889TIP3    H227083   1.301   2.220  16.069  0.4741  0.4089  1.5080
 1890TIP3   OH227084   5.362   1.383  15.484 -0.1440  0.4307  0.8232
 1890TIP3    H127085   5.420   1.370  15.408 -1.7797  1.3165 -0.6537
 1890TIP3    H227086   5.350   1.478  15.489 -3.2211  0.2265 -0.4129
 1891TIP3   OH227087   3.432   5.793  13.021 -0.0547  0.4661 -0.1589
 1891TIP3    H127088   3.407   5.880  13.052  0.2895  0.7932 -0.7786
 1891TIP3    H227089   3.460   5.747  13.100 -0.1155  0.9579  0.1583
 1892TIP3   OH227090   4.548   2.217  11.431  0.0966  0.9757  0.3899
 1892TIP3    H127091   4.536   2.125  11.410  1.3618  0.5349  1.4407
 1892TIP3    H227092   4.472   2.241  11.483  1.7607 -0.7731  4.0035
 1893TIP3   OH227093   3.204   1.501   5.896 -0.0990  0.0337 -0.1139
 1893TIP3    H127094   3.187   1.505   5.802  0.8442  0.6437 -0.2602
 1893TIP3    H227095   3.182   1.411   5.920  0.1313 -0.2707 -1.0114
 1894TIP3   OH227096   1.142   2.342   4.651 -0.5722  0.0783 -0.1119
 1894TIP3    H127097   1.184   2.281   4.712  1.2772  1.1281 -0.2430
 1894TIP3    H227098   1.138   2.295   4.568  2.2010  0.5241 -0.5998
 1895TIP3   OH227099   4.489   3.324   0.183  0.2546  0.1034  0.2015
 1895TIP3    H127100   4.545   3.254   0.216  1.0156  1.6139  2.3923
 1895TIP3    H227101   4.523   3.343   0.096  0.5040 -1.7179 -0.1327
 1896TIP3   OH227102   3.953   2.775   4.485 -0.4012 -0.2457 -0.1501
 1896TIP3    H127103   3.889   2.808   4.421  0.9932  1.8705 -0.5929
 1896TIP3    H227104   4.038   2.802   4.449  0.5732 -0.7924  1.6156
 1897TIP3   OH227105   6.186   6.503  16.067  0.3076 -0.4616  0.2506
 1897TIP3    H127106   6.171   6.415  16.032  3.5894 -0.6232 -1.0769
 1897TIP3    H227107   6.247   6.490  16.140 -0.9418  0.5878  1.5574
 1898TIP3   OH227108   2.677   1.464   3.676  0.0311 -0.4069 -0.3128
 1898TIP3    H127109   2.744   1.488   3.612 -0.1395 -2.1755 -1.1993
 1898TIP3    H227110   2.680   1.369   3.679 -1.3507 -0.4361  0.8416
 1899TIP3   OH227111   0.145   4.144  15.870 -0.3515  0.3787 -0.1563
 1899TIP3    H127112   0.148   4.219  15.810 -2.3631 -0.0605 -0.8720
 1899TIP3    H227113   0.116   4.071  15.816  3.4419 -1.5221  0.0365
 1900TIP3   OH227114   3.991   3.222  10.680  0.0875  0.4974 -0.5807
 1900TIP3    H127115   3.995   3.161  10.607  1.0237  0.1399 -0.2437
 1900TIP3    H227116   3.903   3.213  10.715  0.1915 -0.6091 -0.5855
 1901TIP3   OH227117   1.579   6.042  11.123 -0.0649  0.2772  0.1007
 1901TIP3    H127118   1.647   6.005  11.067 -0.9079  0.5289 -1.1181
 1901TIP3    H227119   1.530   5.966  11.154 -0.1602  0.1920 -0.2525
 1902TIP3   OH227120   5.941   6.489   3.531  0.1081  0.0274 -0.0847
 1902TIP3    H127121   6.009   6.422   3.543  1.0071  0.6572 -1.3983
 1902TIP3    H227122   5.888   6.456   3.458 -0.7480 -0.2573  0.6578
 1903TIP3   OH227123   2.129   2.112  10.556  0.2737  0.1598  0.0211
 1903TIP3    H127124   2.062   2.086  10.492 -0.9657  1.6369  0.6711
 1903TIP3    H227125   2.135   2.038  10.616 -1.5472  0.3800  0.5318
 1904TIP3   OH227126   4.723   5.995  11.319 -0.3016  0.2589 -0.0907
 1904TIP3    H127127   4.749   6.067  11.261 -0.7107  0.4399 -0.0513
 1904TIP3    H227128   4.759   6.019  11.404 -0.1798  0.2642 -0.1429
 1905TIP3   OH227129   4.451   4.263   4.233  0.2267  0.5093 -0.1865
 1905TIP3    H127130   4.530   4.316   4.244 -0.5290  1.8216 -0.8479
 1905TIP3    H227131   4.456   4.231   4.143  0.3740 -0.0505  0.0151
 1906TIP3   OH227132   3.526   4.437  15.975  0.0522  0.2143 -0.5555
 1906TIP3    H127133   3.485   4.453  15.891 -1.0493 -0.7069 -0.2136
 1906TIP3    H227134   3.549   4.344  15.973  0.0428  0.1911  0.1511
 1907TIP3   OH227135   2.169   3.704   5.386  0.9899 -0.0377 -0.4449
 1907TIP3    H127136   2.125   3.768   5.330  1.1308  0.0850 -0.4134
 1907TIP3    H227137   2.174   3.745   5.472 -1.4302 -1.1557  0.3331
 1908TIP3   OH227138   1.123   0.028  12.666 -0.0253  0.0242 -0.0736
 1908TIP3    H127139   1.073  -0.007  12.593  0.7098 -1.0472 -0.0917
 1908TIP3    H227140   1.198  -0.031  12.675  1.1808  1.4961  0.0286
 1909TIP3   OH227141   4.458   1.533   0.525 -0.2565  0.2514 -0.0018
 1909TIP3    H127142   4.391   1.572   0.580  0.7740  3.2690 -0.6562
 1909TIP3    H227143   4.430   1.552   0.435  0.8955  0.5861 -0.3120
 1910TIP3   OH227144   1.151   2.419   3.844  0.5369 -0.2632  0.1191
 1910TIP3    H127145   1.150   2.497   3.901 -0.2432  1.1681 -1.7610
 1910TIP3    H227146   1.225   2.434   3.786 -1.1305  0.3930 -1.9376
 1911TIP3   OH227147   4.586   0.388  15.002 -0.8719  0.0470 -0.0685
 1911TIP3    H127148   4.585   0.460  14.939 -0.8390 -0.8320 -1.1057
 1911TIP3    H227149   4.530   0.418  15.074 -0.6358  1.2079 -0.3465
 1912TIP3   OH227150   2.408   4.807   5.527  0.2407  0.3545 -0.3914
 1912TIP3    H127151   2.368   4.894   5.536  0.3980  0.4083 -0.2103
 1912TIP3    H227152   2.502   4.824   5.531  0.2786  0.2190 -0.7437
 1913TIP3   OH227153   2.891   6.734  14.845 -0.0857 -0.0240 -0.0292
 1913TIP3    H127154   2.978   6.695  14.854  1.0791  1.9265 -1.9355
 1913TIP3    H227155   2.867   6.759  14.934  0.9151 -1.3395  0.6476
 1914TIP3   OH227156   2.786   3.285  14.495  0.5470 -0.6862  0.0046
 1914TIP3    H127157   2.788   3.344  14.420  0.1754 -0.8076 -0.0969
 1914TIP3    H227158   2.732   3.330  14.560 -0.2871 -1.2020 -0.3139
 1915TIP3   OH227159   6.150   5.516  16.494  0.5052 -0.2145 -0.0758
 1915TIP3    H127160   6.141   5.423  16.474  1.5383 -0.2239 -0.5451
 1915TIP3    H227161   6.187   5.555  16.414 -2.0368  1.0280 -0.7583
 1916TIP3   OH227162   1.390   0.384   1.595  0.1566  0.2390 -0.3196
 1916TIP3    H127163   1.441   0.428   1.663 -0.4028 -2.2276  1.8602
 1916TIP3    H227164   1.451   0.324   1.554  0.1318  0.6794 -1.0146
 1917TIP3   OH227165   6.209   2.145   1.818  0.0868 -0.0521  0.1590
 1917TIP3    H127166   6.234   2.076   1.757 -1.2304 -0.0501 -0.4108
 1917TIP3    H227167   6.268   2.134   1.892 -0.6368 -2.3685  0.4736
 1918TIP3   OH227168   2.390   5.718   6.277 -0.0928  0.3037  0.2748
 1918TIP3    H127169   2.295   5.724   6.271 -0.0263  0.9601 -0.2509
 1918TIP3    H227170   2.413   5.771   6.354 -0.1341  0.2622  0.3161
 1919TIP3   OH227171   5.907   0.532   5.194 -0.5557  0.1222  0.2095
 1919TIP3    H127172   5.902   0.624   5.167  0.3767  0.2819  0.5774
 1919TIP3    H227173   5.868   0.484   5.120  1.7207  0.5716 -1.3970
 1920TIP3   OH227174   0.338   0.298   5.099 -0.2153  0.0062  0.2576
 1920TIP3    H127175   0.383   0.214   5.112 -0.5542 -0.5899 -1.8484
 1920TIP3    H227176   0.259   0.291   5.152  0.0879 -0.7544  0.6233
 1921TIP3   OH227177   6.761   2.928  11.096  0.2060  0.0140  0.6164
 1921TIP3    H127178   6.826   2.978  11.048 -0.0927  0.2562  0.4614
 1921TIP3    H227179   6.731   2.860  11.035 -1.0546  1.0622  0.0126
 1922TIP3   OH227180   2.043   2.798   0.499 -0.3680 -0.4716  0.3146
 1922TIP3    H127181   1.965   2.770   0.547  0.1786  0.8393  2.0517
 1922TIP3    H227182   2.067   2.721   0.447 -1.8845 -1.4244  0.9353
 1923TIP3   OH227183   4.574   0.507   5.212  0.2473 -0.0291  0.5816
 1923TIP3    H127184   4.558   0.591   5.255 -1.3137 -0.6215  1.2161
 1923TIP3    H227185   4.491   0.461   5.216  1.1159 -1.7054  0.4134
 1924TIP3   OH227186   2.716   3.048  17.055 -0.1682 -0.0239  0.4490
 1924TIP3    H127187   2.743   3.127  17.009  1.4851 -0.6348  0.2936
 1924TIP3    H227188   2.695   2.986  16.984 -0.8397  0.0600  0.5656
 1925TIP3   OH227189   6.513   4.618  13.080 -0.2694 -0.2295  0.5961
 1925TIP3    H127190   6.566   4.677  13.028 -1.9113 -0.9171 -2.0756
 1925TIP3    H227191   6.450   4.581  13.018 -1.2566 -2.4840  2.7477
 1926TIP3   OH227192   5.021   2.155  16.784 -0.1130  0.2470  0.7589
 1926TIP3    H127193   4.953   2.196  16.837  0.7188  1.7548  0.7087
 1926TIP3    H227194   4.993   2.171  16.693 -0.6729 -0.8514  0.7249
 1927TIP3   OH227195   1.309   1.399   6.147 -0.3070 -0.6089 -0.5938
 1927TIP3    H127196   1.354   1.419   6.065 -1.3446  0.3459 -0.9519
 1927TIP3    H227197   1.224   1.441   6.139  0.1445  0.9196  1.5932
 1928TIP3   OH227198   4.153   2.327   2.557 -0.0967 -0.1810  0.1509
 1928TIP3    H127199   4.229   2.377   2.529 -0.3418  0.5609  0.7745
 1928TIP3    H227200   4.096   2.391   2.600 -0.5655 -0.9263  0.6772
 1929TIP3   OH227201   5.499   2.460   0.564  0.1082 -0.6528  0.3361
 1929TIP3    H127202   5.437   2.531   0.550 -0.5496 -1.1845  0.4978
 1929TIP3    H227203   5.556   2.462   0.486  1.2612  1.1804  1.1540
 1930TIP3   OH227204   3.342   2.853  16.351 -0.3505 -0.1796 -0.5883
 1930TIP3    H127205   3.335   2.769  16.306  0.6144 -0.6122  0.0300
 1930TIP3    H227206   3.286   2.843  16.428 -1.1528  0.1796 -1.1049
 1931TIP3   OH227207   0.732   3.579   5.733 -0.3630  0.4978 -0.2383
 1931TIP3    H127208   0.824   3.563   5.751 -0.2598  0.6890 -0.5934
 1931TIP3    H227209   0.717   3.541   5.647 -1.2818 -1.9927  0.9372
 1932TIP3   OH227210   4.115   0.365  14.615  0.6015 -0.0339 -0.5208
 1932TIP3    H127211   4.127   0.460  14.625  0.5323  0.1292 -1.8652
 1932TIP3    H227212   4.131   0.348  14.523 -1.6834 -0.9798 -0.8049
 1933TIP3   OH227213   0.651   0.933  16.918 -0.2064  0.3343 -0.5421
 1933TIP3    H127214   0.597   0.854  16.921 -1.2176  0.9945 -0.8148
 1933TIP3    H227215   0.741   0.901  16.912 -0.5739 -0.7924 -0.2064
 1934TIP3   OH227216   2.650   5.604  12.954 -0.3229  0.3476  0.0918
 1934TIP3    H127217   2.737   5.564  12.960 -0.6435 -0.2201  1.4039
 1934TIP3    H227218   2.647   5.664  13.029 -1.4469 -0.4623  0.7189
 1935TIP3   OH227219   3.787   5.933   2.832 -0.0109 -0.6292  0.6426
 1935TIP3    H127220   3.760   5.841   2.838  0.2861 -0.6952  0.9906
 1935TIP3    H227221   3.829   5.951   2.915  1.2020 -0.5921  0.0452
 1936TIP3   OH227222   1.178   2.189  11.828 -0.2176 -0.0619 -0.2743
 1936TIP3    H127223   1.190   2.277  11.793  2.1594  0.3118  1.2945
 1936TIP3    H227224   1.188   2.131  11.752  2.0321  0.8549 -0.7478
 1937TIP3   OH227225   2.637   1.409   2.135 -0.8172 -0.2932  0.7022
 1937TIP3    H127226   2.713   1.387   2.081  0.3720  0.0956  2.1150
 1937TIP3    H227227   2.673   1.415   2.224 -2.6317 -0.6853  1.5145
 1938TIP3   OH227228   3.522   3.139   0.286 -0.1743  0.4157  0.7009
 1938TIP3    H127229   3.522   3.183   0.201  0.2145  0.1666  0.5699
 1938TIP3    H227230   3.611   3.150   0.318  0.4734 -1.8610 -0.1639
 1939TIP3   OH227231   4.860   2.548   1.719  0.2514 -0.5459  0.0960
 1939TIP3    H127232   4.811   2.608   1.663 -0.6400 -1.6872 -0.3825
 1939TIP3    H227233   4.862   2.466   1.670  2.6911 -0.5606  0.0683
 1940TIP3   OH227234   5.469   0.428   4.148 -0.3531 -0.9165  0.6599
 1940TIP3    H127235   5.533   0.463   4.211 -1.2230  2.4805 -0.1412
 1940TIP3    H227236   5.394   0.402   4.202 -0.5893  0.7457  1.1897
 1941TIP3   OH227237   3.493   3.282   0.041 -0.4872 -0.1557 -0.3628
 1941TIP3    H127238   3.487   3.374   0.069  1.8933  0.2768 -1.0942
 1941TIP3    H227239   3.549   3.284  -0.036 -1.6245 -2.0923 -1.2976
 1942TIP3   OH227240   0.735   1.324  15.408 -0.5999 -0.0816 -0.5713
 1942TIP3    H127241   0.648   1.301  15.441 -0.5051  1.4825  0.9048
 1942TIP3    H227242   0.723   1.409  15.365  0.1003 -0.1040 -0.8279
 1943TIP3   OH227243   2.183   2.458   1.946  0.0475  0.1677  0.4125
 1943TIP3    H127244   2.245   2.419   1.884 -0.9261  1.2267 -1.3119
 1943TIP3    H227245   2.234   2.473   2.025  1.8503  0.4371 -0.7406
 1944TIP3   OH227246   2.144   6.707   3.563 -0.6358 -0.2761  0.2323
 1944TIP3    H127247   2.067   6.678   3.514 -1.1870  0.7954  0.4272
 1944TIP3    H227248   2.148   6.802   3.548  1.3273 -0.4459 -0.7191
 1945TIP3   OH227249   3.733   0.461   2.654 -0.3464  0.4009 -0.3075
 1945TIP3    H127250   3.669   0.473   2.723  0.1189 -1.9573  0.5993
 1945TIP3    H227251   3.682   0.451   2.574 -1.0023  0.5387  0.0941
 1946TIP3   OH227252   5.533   6.628   1.647 -0.2773  0.6625  0.6430
 1946TIP3    H127253   5.438   6.617   1.646  0.0197 -3.3543  0.6965
 1946TIP3    H227254   5.549   6.699   1.708 -3.1890  0.3507  1.9011
 1947TIP3   OH227255   3.565   0.190  16.427 -0.2372  0.0763  0.5539
 1947TIP3    H127256   3.569   0.274  16.474 -2.5624  0.0154  1.0098
 1947TIP3    H227257   3.534   0.214  16.340  0.3911 -0.1762  0.2641
 1948TIP3   OH227258   5.066   0.765  15.666  0.1953 -0.4923  0.4402
 1948TIP3    H127259   5.152   0.734  15.694  1.1477  1.3210 -0.3383
 1948TIP3    H227260   5.016   0.774  15.747  1.4149  0.3389  1.1277
 1949TIP3   OH227261   0.380   5.533  14.258  0.6308 -0.1450 -0.1071
 1949TIP3    H127262   0.344   5.530  14.169  0.3942 -0.9362  0.0062
 1949TIP3    H227263   0.452   5.470  14.257 -1.1573 -2.3367  0.9981
 1950TIP3   OH227264   6.582   1.596  13.940  0.4522 -0.5389 -0.1064
 1950TIP3    H127265   6.677   1.591  13.943  0.4629 -0.0649  0.8723
 1950TIP3    H227266   6.564   1.683  13.905  0.4010 -0.0474  1.0993
 1951TIP3   OH227267   1.957   6.153   1.588  0.4719 -0.3743  0.1229
 1951TIP3    H127268   2.000   6.160   1.673  0.3615 -0.4560  0.1838
 1951TIP3    H227269   1.867   6.127   1.607  0.4418 -0.3766 -0.0170
 1952TIP3   OH227270   3.146   1.454   1.652 -0.1071  0.2552 -0.1022
 1952TIP3    H127271   3.222   1.506   1.627 -1.0337  1.0893 -1.3249
 1952TIP3    H227272   3.151   1.376   1.598  0.0130  0.1924 -0.0000
 1953TIP3   OH227273   5.963   3.293  15.341 -0.2328  0.4379 -0.3202
 1953TIP3    H127274   6.005   3.343  15.272  0.1970 -0.7898 -0.9809
 1953TIP3    H227275   5.871   3.293  15.318 -0.2998  1.2942 -0.0686
 1954TIP3   OH227276   0.044   1.266   5.109 -0.0215  0.0505 -0.0478
 1954TIP3    H127277   0.055   1.185   5.059  1.5747 -0.1685  0.6136
 1954TIP3    H227278   0.115   1.323   5.079  0.4501  0.2295  1.3384
 1955TIP3   OH227279   2.936   0.355  16.195 -0.0458 -0.0661 -0.3711
 1955TIP3    H127280   2.858   0.407  16.212 -0.8641 -0.8242 -1.6587
 1955TIP3    H227281   2.921   0.273  16.244 -0.7973 -0.8276 -1.8049
 1956TIP3   OH227282   0.745   6.316  11.626 -0.3957  0.0449 -0.2535
 1956TIP3    H127283   0.707   6.396  11.591  0.3089  0.5436  0.0915
 1956TIP3    H227284   0.670   6.267  11.661 -0.9244  0.1738 -1.1935
 1957TIP3   OH227285   3.696   6.594   4.555  0.0388  0.3164  0.2757
 1957TIP3    H127286   3.693   6.601   4.459 -0.2730  0.0343  0.2597
 1957TIP3    H227287   3.606   6.613   4.583 -0.1034 -0.5411  0.4374
 1958TIP3   OH227288   6.161   6.175  16.519 -0.0916 -0.9368  0.2124
 1958TIP3    H127289   6.132   6.190  16.429 -2.4449 -1.7476  0.7560
 1958TIP3    H227290   6.256   6.167  16.512 -0.0316  0.5933 -1.9460
 1959TIP3   OH227291   4.615   3.131   2.471  0.3279 -0.6609 -0.0214
 1959TIP3    H127292   4.527   3.136   2.507  1.1485 -1.1415  2.2019
 1959TIP3    H227293   4.666   3.086   2.538  2.1524 -0.8983 -1.4944
 1960TIP3   OH227294   3.108   3.346  11.796  0.3857  0.3409 -0.3454
 1960TIP3    H127295   3.151   3.301  11.723 -0.7110  0.9443 -1.3972
 1960TIP3    H227296   3.120   3.286  11.870 -0.2214 -1.2692 -1.4833
 1961TIP3   OH227297   2.750   3.889   5.813  0.4045 -0.0392 -0.1728
 1961TIP3    H127298   2.773   3.887   5.721 -0.9784 -2.6480 -0.5528
 1961TIP3    H227299   2.768   3.801   5.845 -2.0084 -0.1148  1.2430
 1962TIP3   OH227300   0.708   0.966   3.448 -0.2018  0.0354  0.1117
 1962TIP3    H127301   0.713   1.005   3.535 -0.3744 -0.7844  0.4975
 1962TIP3    H227302   0.617   0.977   3.422 -1.0085 -2.6604  1.4622
 1963TIP3   OH227303   3.326   5.293   2.421 -0.6367  0.1529 -0.0069
 1963TIP3    H127304   3.353   5.319   2.333  1.0740 -1.4732 -0.0405
 1963TIP3    H227305   3.236   5.324   2.429 -0.0490  2.4677 -1.4015
 1964TIP3   OH227306   1.118   2.903  15.826 -0.5064 -0.4445  0.2386
 1964TIP3    H127307   1.117   2.957  15.905 -0.3995  2.5984 -1.6714
 1964TIP3    H227308   1.203   2.920  15.786 -1.5443  0.2157 -1.8313
 1965TIP3   OH227309   0.217   6.134  16.996  0.0841 -0.2397  0.5637
 1965TIP3    H127310   0.164   6.199  17.041  0.3283 -1.0194  2.0331
 1965TIP3    H227311   0.177   6.126  16.909 -0.1485  1.5947  0.4740
 1966TIP3   OH227312   4.893   6.723   1.256 -0.0853 -0.2801 -0.1360
 1966TIP3    H127313   4.974   6.713   1.307 -1.9769 -3.6218  2.6920
 1966TIP3    H227314   4.892   6.646   1.199 -0.6534  0.4897 -1.1897
 1967TIP3   OH227315   2.757   6.307   1.902 -0.5242 -0.0334  0.5346
 1967TIP3    H127316   2.749   6.386   1.847 -1.7757 -0.4505  0.0848
 1967TIP3    H227317   2.669   6.293   1.936 -0.0457 -0.5623  1.5868
 1968TIP3   OH227318   3.577   5.824  12.771  0.6416 -0.5212 -0.4393
 1968TIP3    H127319   3.564   5.778  12.688  0.9569 -0.7129 -0.3871
 1968TIP3    H227320   3.495   5.810  12.819 -0.4964  1.5817 -1.6338
 1969TIP3   OH227321   0.405   3.998  15.798  0.2301 -0.2944  0.1965
 1969TIP3    H127322   0.458   3.977  15.721  0.2822  0.5475 -0.0087
 1969TIP3    H227323   0.341   4.062  15.766  0.6001  0.4850  0.9657
 1970TIP3   OH227324   1.696   2.681   5.536 -0.1157  0.7865 -0.4558
 1970TIP3    H127325   1.600   2.679   5.535 -0.1101  0.0951 -0.9475
 1970TIP3    H227326   1.719   2.766   5.500 -0.5439  0.6209 -1.1312
 1971TIP3   OH227327   5.310   0.654  16.654 -0.3782 -0.1284  0.2496
 1971TIP3    H127328   5.242   0.636  16.719  0.0438  0.1374  0.7621
 1971TIP3    H227329   5.335   0.567  16.622 -0.5517 -0.2636  0.4742
 1972TIP3   OH227330   5.281   6.328   1.448  0.1533 -0.1526  0.0728
 1972TIP3    H127331   5.247   6.346   1.360  0.8140 -2.9670 -0.8838
 1972TIP3    H227332   5.327   6.245   1.438  2.1400  0.5291  2.6403
 1973TIP3   OH227333   5.755   5.016   4.250  0.3267  0.1630 -1.0698
 1973TIP3    H127334   5.686   5.000   4.314  1.0617 -2.4203 -0.8169
 1973TIP3    H227335   5.708   5.035   4.169 -0.7011 -0.9505 -0.7608
 1974TIP3   OH227336   0.073   2.331  14.459  0.0584 -0.3424 -0.1286
 1974TIP3    H127337   0.090   2.270  14.387  1.2284  0.5175 -0.6223
 1974TIP3    H227338   0.134   2.404  14.443 -3.1354  2.3560 -1.1903
 1975TIP3   OH227339   4.410   3.565  16.502  0.2663  0.5880  0.1719
 1975TIP3    H127340   4.419   3.474  16.530 -1.1028 -0.1424 -1.5367
 1975TIP3    H227341   4.498   3.591  16.476  0.4695 -0.7415 -0.5725
 1976TIP3   OH227342   6.150   3.073  15.781 -0.8208  0.1895 -0.2901
 1976TIP3    H127343   6.087   3.099  15.714  0.6029  1.7134 -1.1094
 1976TIP3    H227344   6.234   3.108  15.750  0.1239 -0.2521  1.6176
 1977TIP3   OH227345   2.392   6.045   0.463 -0.0179  0.2099  0.3027
 1977TIP3    H127346   2.415   5.954   0.484 -0.5474  0.2382  1.0523
 1977TIP3    H227347   2.410   6.093   0.544 -0.1116  0.7091  0.0309
 1978TIP3   OH227348   3.197   0.504  15.765  0.6214 -0.8105 -0.2081
 1978TIP3    H127349   3.207   0.477  15.674 -0.3145 -1.3133 -0.1707
 1978TIP3    H227350   3.113   0.549  15.767 -0.2767 -2.4567  0.7714
 1979TIP3   OH227351   3.097   0.358  12.000  0.2519 -0.2300  0.2827
 1979TIP3    H127352   3.041   0.421  11.954  0.1787 -0.0367  0.6350
 1979TIP3    H227353   3.154   0.323  11.931 -0.7962 -0.9845 -0.2194
 1980TIP3   OH227354   0.371   1.558  15.764 -0.0727 -0.2623 -0.0665
 1980TIP3    H127355   0.455   1.514  15.752  0.2497 -0.5724  2.6153
 1980TIP3    H227356   0.320   1.497  15.818  0.3821  2.3760  3.7934
 1981TIP3   OH227357   2.056   4.690   1.002 -0.2382  0.2464  0.5578
 1981TIP3    H127358   2.068   4.719   0.912  1.0557  1.5234  1.1114
 1981TIP3    H227359   2.032   4.769   1.050  1.2648  0.0341  1.7250
 1982TIP3   OH227360   2.798   6.033   6.424 -0.1707 -0.1094 -0.2449
 1982TIP3    H127361   2.718   6.069   6.462 -0.5621 -0.0615 -1.0958
 1982TIP3    H227362   2.787   5.938   6.431  0.2052 -0.0969  0.6530
 1983TIP3   OH227363   5.890   3.943   4.506  0.5854  0.0377  0.0283
 1983TIP3    H127364   5.900   3.920   4.598 -2.0932 -0.8684  0.1945
 1983TIP3    H227365   5.816   4.004   4.504  1.2377  0.8486 -1.4481
 1984TIP3   OH227366   2.074   0.549   4.335  0.3380  0.2426  0.3498
 1984TIP3    H127367   2.160   0.578   4.307 -0.2101  2.1624  0.5570
 1984TIP3    H227368   2.080   0.453   4.334  1.4306  0.2161 -2.9002
 1985TIP3   OH227369   2.596   3.472  15.488  0.2082 -0.3875 -0.1429
 1985TIP3    H127370   2.509   3.456  15.523  0.4160 -0.1261  0.5033
 1985TIP3    H227371   2.627   3.551  15.534  0.9065 -0.6631 -0.1242
 1986TIP3   OH227372   0.172   3.618  16.664 -0.4219  0.0539 -0.0584
 1986TIP3    H127373   0.189   3.713  16.666  0.8211 -0.1494  1.9989
 1986TIP3    H227374   0.145   3.601  16.574 -0.3907  2.3148 -0.5694
 1987TIP3   OH227375   3.408   0.521  16.772  0.3454 -0.1750  0.2941
 1987TIP3    H127376   3.375   0.476  16.694 -1.9943  1.7858  0.0244
 1987TIP3    H227377   3.378   0.467  16.845 -1.4688  0.2687 -0.0620
 1988TIP3   OH227378   3.682   2.699  13.582  0.4350 -0.2863  0.2836
 1988TIP3    H127379   3.639   2.756  13.645 -0.6619 -1.6531  0.7963
 1988TIP3    H227380   3.729   2.635  13.635 -0.0965 -1.1497 -0.2611
 1989TIP3   OH227381   2.178   2.367   0.193  0.3428 -0.0313 -0.0407
 1989TIP3    H127382   2.088   2.356   0.223  0.2452 -1.5149 -0.7783
 1989TIP3    H227383   2.191   2.297   0.129  2.0361  0.1164  0.0829
 1990TIP3   OH227384   6.768   2.362   6.373 -0.1713  0.5887  0.0417
 1990TIP3    H127385   6.741   2.439   6.324  2.3111  0.1309 -2.2511
 1990TIP3    H227386   6.689   2.336   6.422 -2.4140  1.9149 -2.5972
 1991TIP3   OH227387   4.527   6.160   2.487 -0.3497  0.2612  0.4059
 1991TIP3    H127388   4.473   6.209   2.425 -1.9798 -0.5851  1.0952
 1991TIP3    H227389   4.603   6.131   2.436 -0.2643  1.8810 -0.4720
 1992TIP3   OH227390   0.750   3.766  14.552  0.1980 -0.0391 -0.1304
 1992TIP3    H127391   0.794   3.687  14.518 -0.3569 -0.0694 -0.7964
 1992TIP3    H227392   0.665   3.766  14.509 -0.0818  0.5438  0.4199
 1993TIP3   OH227393   1.344   5.833   4.244 -0.1560 -0.4745  0.0154
 1993TIP3    H127394   1.311   5.767   4.183  2.1168 -0.1687 -1.6910
 1993TIP3    H227395   1.318   5.917   4.205  0.3054 -0.2983  0.0724
 1994TIP3   OH227396   4.874   0.641   4.798  0.0693 -0.1581  0.5859
 1994TIP3    H127397   4.960   0.648   4.839  0.3009 -0.5281  0.1665
 1994TIP3    H227398   4.844   0.732   4.791 -0.0167 -0.0966  1.6463
 1995TIP3   OH227399   6.568   4.123  10.319 -0.7923  0.1406 -0.1527
 1995TIP3    H127400   6.489   4.176  10.331 -2.0527 -1.6605  0.0455
 1995TIP3    H227401   6.639   4.177  10.351 -2.3353  0.7004  2.6930
 1996TIP3   OH227402   4.168   0.867   4.795 -0.3839 -0.0408 -0.4053
 1996TIP3    H127403   4.194   0.861   4.703  0.6236  0.6614 -0.1873
 1996TIP3    H227404   4.145   0.959   4.808  1.8832  0.4569  0.6111
 1997TIP3   OH227405   5.047   2.655  12.789 -0.4126  0.4630  0.0043
 1997TIP3    H127406   5.044   2.560  12.785 -1.1243  0.3117  2.3887
 1997TIP3    H227407   4.958   2.683  12.766  0.1603  0.7090 -2.1514
 1998TIP3   OH227408   1.097   1.734   4.406  0.1081  0.6926  0.2615
 1998TIP3    H127409   1.151   1.700   4.477  0.9825  1.3320 -0.0819
 1998TIP3    H227410   1.138   1.817   4.382 -1.5073  1.6316  0.5447
 1999TIP3   OH227411   3.708   6.357   5.745 -0.3412  0.4317  0.2503
 1999TIP3    H127412   3.683   6.419   5.677  0.7216 -1.0721 -1.6055
 1999TIP3    H227413   3.803   6.368   5.754 -0.4057  0.3196  1.2294
 2000TIP3   OH227414   1.570   5.522  16.262  0.2044  0.0871  0.1769
 2000TIP3    H127415   1.479   5.493  16.274  0.2725  0.0761  0.6945
 2000TIP3    H227416   1.617   5.444  16.234  0.1941 -0.0731  0.6047
 2001TIP3   OH227417   5.076   5.739  14.199 -0.3892 -0.4406 -0.1053
 2001TIP3    H127418   5.103   5.828  14.175  0.5527 -0.7086 -0.0968
 2001TIP3    H227419   5.125   5.720  14.279 -3.6306  0.5275  2.3215
 2002TIP3   OH227420   3.001   5.337  15.927  0.5199 -0.0739 -0.1923
 2002TIP3    H127421   2.933   5.303  15.985  0.0847 -0.6141 -0.9958
 2002TIP3    H227422   2.957   5.405  15.875  1.1072  0.9764  0.6365
 2003TIP3   OH227423   6.521   0.728   4.491  0.2445 -0.6000 -0.7020
 2003TIP3    H127424   6.612   0.754   4.479  0.5231 -0.8407  0.7488
 2003TIP3    H227425   6.479   0.805   4.531 -0.5626  0.0423 -2.6411
 2004TIP3   OH227426   1.421   5.911   6.389 -0.3678  0.1039 -0.3679
 2004TIP3    H127427   1.502   5.863   6.403 -0.0737  0.0149 -2.0981
 2004TIP3    H227428   1.370   5.857   6.328 -1.7992  0.0973  0.7847
 2005TIP3   OH227429   5.553   2.253  13.802  0.4837  0.5104  0.0966
 2005TIP3    H127430   5.481   2.311  13.827 -0.9040 -0.0082 -2.3059
 2005TIP3    H227431   5.532   2.169  13.842  0.2723  0.6215  0.2178
 2006TIP3   OH227432   3.615   3.389  15.067 -0.2703 -0.5358  0.0069
 2006TIP3    H127433   3.599   3.454  14.999  2.3203  0.1552 -0.0423
 2006TIP3    H227434   3.613   3.305  15.021  0.9572 -0.1132 -0.8618
 2007TIP3   OH227435   0.867   2.812  13.823  0.5215  0.0641 -0.1916
 2007TIP3    H127436   0.824   2.873  13.882  0.0953  1.0097 -1.4318
 2007TIP3    H227437   0.796   2.761  13.785  0.5787  0.7926 -1.3197
 2008TIP3   OH227438   3.811   6.357   1.072  0.5368  0.4103  0.0318
 2008TIP3    H127439   3.779   6.338   1.160 -0.7676 -1.2267 -0.7493
 2008TIP3    H227440   3.734   6.350   1.016  1.3033  1.6144 -1.2556
 2009TIP3   OH227441   0.807   2.982  14.258  0.5308 -0.0437  0.2676
 2009TIP3    H127442   0.746   2.955  14.327  1.0072  0.0295  0.7217
 2009TIP3    H227443   0.878   2.918  14.262  1.0479  0.5348  0.5040
 2010TIP3   OH227444   0.514   3.055   5.934 -0.3653  0.1901  0.0559
 2010TIP3    H127445   0.544   3.064   6.024 -1.9247  0.4277  0.5678
 2010TIP3    H227446   0.535   2.964   5.911  1.4005  0.5522  0.1120
 2011TIP3   OH227447   2.008   6.119  15.317  0.2661 -0.9352  0.2831
 2011TIP3    H127448   1.993   6.180  15.389 -0.4866 -0.0463 -0.6038
 2011TIP3    H227449   1.986   6.168  15.238  0.5695 -2.0529 -0.5292
 2012TIP3   OH227450   3.846   5.264   5.040  0.0046  0.4937  0.4009
 2012TIP3    H127451   3.796   5.217   5.107 -0.1767 -1.0695 -0.7591
 2012TIP3    H227452   3.808   5.352   5.039  0.8619  0.9991  3.1956
 2013TIP3   OH227453   1.552   2.727  13.336  0.1181  0.1326 -0.0598
 2013TIP3    H127454   1.472   2.757  13.293 -0.4206 -0.5082  0.4675
 2013TIP3    H227455   1.604   2.688  13.266 -0.3364 -0.0622 -0.2909
 2014TIP3   OH227456   4.676   0.447   5.610 -0.3332 -0.2515  0.6690
 2014TIP3    H127457   4.586   0.465   5.583 -1.0804 -2.6735  1.2449
 2014TIP3    H227458   4.677   0.353   5.627  2.5540 -0.4813 -0.1807
 2015TIP3   OH227459   5.921   5.924  11.018 -0.0849 -0.4848 -0.2869
 2015TIP3    H127460   5.870   5.987  11.069  1.3672  0.7720 -0.3238
 2015TIP3    H227461   5.882   5.927  10.931 -0.0882  0.3112 -0.2648
 2016TIP3   OH227462   0.925   0.308  14.700  0.2810 -0.2090  0.6676
 2016TIP3    H127463   1.013   0.337  14.674  0.7249  0.1537  2.4919
 2016TIP3    H227464   0.869   0.383  14.680  0.3398 -0.4562 -0.5425
 2017TIP3   OH227465   4.733   5.705  16.781  0.2813 -0.1114 -0.1602
 2017TIP3    H127466   4.767   5.620  16.755  0.5337 -0.1598  0.3273
 2017TIP3    H227467   4.790   5.733  16.853 -0.5028 -0.0434  0.4441
 2018TIP3   OH227468   5.745   5.233  11.954  0.6800 -0.7026  0.5611
 2018TIP3    H127469   5.816   5.274  12.001  0.5445  1.0203 -0.6559
 2018TIP3    H227470   5.685   5.202  12.022  2.4621 -2.0850  1.6016
 2019TIP3   OH227471   4.012   1.286  16.382  0.0896 -0.3949  0.4872
 2019TIP3    H127472   4.025   1.205  16.332  0.8289  0.6607 -1.0756
 2019TIP3    H227473   4.065   1.351  16.337 -0.7896  1.0688  1.5002
 2020TIP3   OH227474   3.581   6.060   3.094 -0.3760  0.0130  0.0545
 2020TIP3    H127475   3.525   6.036   3.021  0.1870 -1.5636  0.0986
 2020TIP3    H227476   3.670   6.045   3.062 -0.1689 -2.6264  1.6314
 2021TIP3   OH227477   2.796   0.591  12.163  0.0575 -0.0986  0.2428
 2021TIP3    H127478   2.854   0.599  12.087 -1.6789  0.5810 -1.0753
 2021TIP3    H227479   2.736   0.665  12.155 -2.4976 -2.0080  0.1810
 2022TIP3   OH227480   2.299   1.815   4.879 -0.3381 -0.3243  0.1743
 2022TIP3    H127481   2.355   1.890   4.898 -2.2491  0.9098  1.2617
 2022TIP3    H227482   2.239   1.810   4.953 -3.9455  0.6667 -2.4127
 2023TIP3   OH227483   0.648   4.855  15.782  0.3317  0.5364 -0.7142
 2023TIP3    H127484   0.730   4.903  15.795  0.4808  0.5738 -1.7348
 2023TIP3    H227485   0.609   4.849  15.870  2.3511 -1.1357  0.1695
 2024TIP3   OH227486   0.670   2.602  17.196 -0.0046 -0.0119 -0.0283
 2024TIP3    H127487   0.697   2.679  17.146  0.1487  2.2166  3.2482
 2024TIP3    H227488   0.575   2.611  17.205  0.1428  0.4289  1.2661
 2025TIP3   OH227489   5.356   0.434   2.389 -0.0846 -0.2324  0.4011
 2025TIP3    H127490   5.396   0.507   2.342  0.8269 -0.5347  0.7026
 2025TIP3    H227491   5.283   0.475   2.438 -2.0031 -0.1176 -2.3272
 2026TIP3   OH227492   6.070   4.488  16.554  0.0317  0.1043 -0.4522
 2026TIP3    H127493   6.036   4.398  16.556 -2.9483  1.1003 -0.7856
 2026TIP3    H227494   6.038   4.527  16.635  3.3955  0.2903  0.9202
 2027TIP3   OH227495   4.363   0.537   0.708  0.1783  0.3010 -1.3636
 2027TIP3    H127496   4.439   0.479   0.708  0.1071  0.2078 -1.6560
 2027TIP3    H227497   4.326   0.529   0.620 -0.2196  0.2813 -1.1974
 2028TIP3   OH227498   4.978   1.723  14.089 -0.3949  0.3446  0.0035
 2028TIP3    H127499   4.989   1.813  14.121  0.5515  0.3584 -0.3488
 2028TIP3    H227500   4.980   1.670  14.169 -2.8425  0.7497  0.4287
 2029TIP3   OH227501   5.649   4.115   4.507 -0.1741  0.3343 -0.3827
 2029TIP3    H127502   5.604   4.053   4.564  0.8916 -1.0699 -1.0148
 2029TIP3    H227503   5.579   4.164   4.464 -1.0259 -0.2201  0.3449
 2030TIP3   OH227504   4.910   2.992  11.535 -0.1446 -0.0099 -0.5207
 2030TIP3    H127505   4.921   3.077  11.578 -1.1355  0.1764 -0.6195
 2030TIP3    H227506   4.998   2.967  11.508  0.4554  0.0893  1.2072
 2031TIP3   OH227507   5.224   5.593   3.619 -0.2777  0.0845  0.0939
 2031TIP3    H127508   5.186   5.679   3.597 -1.2057 -0.4609 -0.5199
 2031TIP3    H227509   5.259   5.605   3.707  0.1437  1.2618 -0.2088
 2032TIP3   OH227510   2.773   6.112   3.524  0.2306 -0.1472 -0.2776
 2032TIP3    H127511   2.690   6.066   3.536  0.2037 -0.4974 -1.6206
 2032TIP3    H227512   2.836   6.061   3.575 -0.4238  0.3602  1.0986
 2033TIP3   OH227513   0.548   6.748   0.590  0.0330 -0.0367 -0.0148
 2033TIP3    H127514   0.592   6.669   0.557 -0.9067 -1.0264  1.0187
 2033TIP3    H227515   0.590   6.766   0.673  0.5017  0.7982 -0.4239
 2034TIP3   OH227516   1.593   5.927  14.257  0.3520  0.0087  0.4158
 2034TIP3    H127517   1.652   5.967  14.321 -0.5671  0.4647  1.0139
 2034TIP3    H227518   1.644   5.921  14.177  1.0652  0.8010  0.7947
 2035TIP3   OH227519   2.364   4.912  14.459 -0.1950  0.0343  0.2343
 2035TIP3    H127520   2.302   4.983  14.470 -0.5012  0.1028 -1.5512
 2035TIP3    H227521   2.438   4.951  14.412  0.9154 -0.2042  1.7289
 2036TIP3   OH227522   1.492   1.640  12.294 -0.5952  0.2025 -0.0109
 2036TIP3    H127523   1.414   1.668  12.342  0.2428  0.3190  1.3346
 2036TIP3    H227524   1.540   1.585  12.356  0.0012 -0.5507 -1.0969
 2037TIP3   OH227525   1.108   5.055   0.508  0.2559  0.4313  0.1620
 2037TIP3    H127526   1.179   5.003   0.471 -0.8198 -0.3060 -0.9549
 2037TIP3    H227527   1.099   5.024   0.598  0.7420 -0.1221  0.0240
 2038TIP3   OH227528   1.095   4.418   3.588  0.9569 -0.2733 -0.0628
 2038TIP3    H127529   1.173   4.464   3.558  0.3064 -0.2184 -1.7700
 2038TIP3    H227530   1.082   4.347   3.525  0.9639 -1.7819  1.5492
 2039TIP3   OH227531   6.342   1.207  13.545 -0.2833  0.3735 -0.2152
 2039TIP3    H127532   6.323   1.289  13.590  1.4721 -0.1314  1.5864
 2039TIP3    H227533   6.435   1.212  13.523  0.1960 -1.6129  1.0962
 2040TIP3   OH227534   2.782   1.504  11.746  0.1513  0.5230 -0.6885
 2040TIP3    H127535   2.759   1.547  11.828  1.8498 -0.9110  0.6173
 2040TIP3    H227536   2.744   1.560  11.678 -1.0113  1.9370  1.0379
 2041TIP3   OH227537   1.227   4.954   4.065  1.0657  0.6144 -0.2333
 2041TIP3    H127538   1.294   4.894   4.033 -1.2917 -1.7545 -1.1160
 2041TIP3    H227539   1.177   4.978   3.987 -0.7055  0.1663  0.6990
 2042TIP3   OH227540   2.851   3.132   2.520 -0.0663 -1.1045  0.2646
 2042TIP3    H127541   2.933   3.162   2.560 -0.5983 -1.2637  1.4823
 2042TIP3    H227542   2.865   3.147   2.426  0.8357  0.1390  0.5646
 2043TIP3   OH227543   4.441   6.327  13.922 -0.2765  0.1517 -1.1441
 2043TIP3    H127544   4.477   6.374  13.998  0.9497  0.3722 -1.8376
 2043TIP3    H227545   4.486   6.364  13.847  1.4341 -2.7062 -1.6645
 2044TIP3   OH227546   0.103   0.608   0.036  0.5947  0.2346 -0.6381
 2044TIP3    H127547   0.018   0.566   0.020  0.1544  1.6723 -2.4994
 2044TIP3    H227548   0.160   0.537   0.064 -1.1063 -0.8513  0.2781
 2045TIP3   OH227549   0.972   6.454  14.909  0.0432  0.8087 -0.0596
 2045TIP3    H127550   1.005   6.535  14.870  1.4539 -0.2056 -1.0817
 2045TIP3    H227551   1.044   6.425  14.966 -0.8198  0.7170  1.0206
 2046TIP3   OH227552   1.114   1.413  16.372 -0.2198 -0.3959 -0.3139
 2046TIP3    H127553   1.063   1.402  16.452 -1.8304  0.0338 -1.2372
 2046TIP3    H227554   1.049   1.415  16.302  1.0293  0.6925 -1.5064
 2047TIP3   OH227555   2.107   0.248  14.245  0.3563  0.1035  0.0456
 2047TIP3    H127556   2.017   0.264  14.215  0.8481  0.0510 -1.5150
 2047TIP3    H227557   2.162   0.284  14.176  1.5456 -0.4384  0.6887
 2048TIP3   OH227558   1.495   3.003  12.839  0.2750 -0.1588 -0.1913
 2048TIP3    H127559   1.554   2.968  12.905 -1.2558 -1.5042  0.5341
 2048TIP3    H227560   1.553   3.038  12.771  1.8895 -1.2557  0.5569
 2049TIP3   OH227561   3.930   6.611   1.895 -0.4764  0.0111  0.4497
 2049TIP3    H127562   3.999   6.676   1.908 -1.3134  1.0327 -0.0940
 2049TIP3    H227563   3.871   6.650   1.831 -1.1236 -1.1975  0.2769
 2050TIP3   OH227564   0.825   1.861   5.062 -0.3723 -0.5272  0.0625
 2050TIP3    H127565   0.837   1.872   4.968  0.8258  1.8787  0.3926
 2050TIP3    H227566   0.730   1.869   5.075 -0.4092  0.8635 -0.8123
 2051TIP3   OH227567   0.071   6.016   5.012 -0.4459 -0.1589 -0.8787
 2051TIP3    H127568   0.153   6.065   5.008  0.0954 -0.9957 -0.3193
 2051TIP3    H227569   0.025   6.040   4.931  0.3741  0.2685 -1.2286
 2052TIP3   OH227570   2.264   3.540  14.287 -0.2780  0.4045 -0.2374
 2052TIP3    H127571   2.187   3.595  14.300  0.6588  2.3611 -2.2729
 2052TIP3    H227572   2.325   3.567  14.356 -0.1198  1.4240 -0.7548
 2053TIP3   OH227573   0.536   1.848  12.893  0.5321 -0.6271  0.2821
 2053TIP3    H127574   0.481   1.882  12.963 -2.8515 -1.3970 -1.7558
 2053TIP3    H227575   0.526   1.753  12.897 -0.7744 -0.6584 -1.8598
 2054TIP3   OH227576   0.896   6.712  13.005  0.8746 -0.0143  0.3478
 2054TIP3    H127577   0.871   6.711  13.097 -0.6615  0.0009 -0.0422
 2054TIP3    H227578   0.968   6.775  13.000  1.6776 -0.7975  1.6885
 2055TIP3   OH227579   1.327   0.644  13.978  0.0796  0.0169  0.4925
 2055TIP3    H127580   1.321   0.551  13.955  0.8214  0.3711 -1.3339
 2055TIP3    H227581   1.403   0.650  14.035  0.2450 -0.4515  0.3286
 2056TIP3   OH227582   3.219   6.438   1.696 -0.4428 -0.3696 -0.1016
 2056TIP3    H127583   3.155   6.415   1.763  0.4886 -0.7443  0.6877
 2056TIP3    H227584   3.266   6.357   1.679  2.7789  0.6676  2.5900
 2057TIP3   OH227585   3.653   1.043   3.883 -0.2836 -0.6004  0.0767
 2057TIP3    H127586   3.588   1.022   3.950 -0.1123 -0.7053  0.2115
 2057TIP3    H227587   3.672   0.959   3.841 -1.8175 -0.2671 -1.4229
 2058TIP3   OH227588   1.018   2.028   4.597 -0.5081  1.2038 -0.1156
 2058TIP3    H127589   1.024   2.087   4.522 -1.2329  0.8623 -0.4489
 2058TIP3    H227590   1.103   2.035   4.640  1.3285 -1.3494 -2.9888
 2059TIP3   OH227591   1.923   0.254  14.807 -0.7549  0.5393 -0.0462
 2059TIP3    H127592   1.884   0.322  14.862  0.3681  2.1889 -1.1915
 2059TIP3    H227593   2.010   0.241  14.843 -0.5143  0.6153 -0.5952
 2060TIP3   OH227594   2.840   2.632   3.809  0.3254 -0.0518  0.4869
 2060TIP3    H127595   2.858   2.596   3.722  1.7591  0.2527  0.6354
 2060TIP3    H227596   2.906   2.700   3.821 -0.5286  0.6560  1.3893
 2061TIP3   OH227597   6.644   6.552   5.395 -0.1656 -0.0866 -0.3923
 2061TIP3    H127598   6.646   6.577   5.488  0.8583  0.0742 -0.4381
 2061TIP3    H227599   6.570   6.493   5.387  0.0303 -0.4901  0.6400
 2062TIP3   OH227600   4.316   2.564   2.580  0.4934  0.3306  0.4302
 2062TIP3    H127601   4.372   2.640   2.594 -0.4734  0.8343  1.8013
 2062TIP3    H227602   4.227   2.599   2.588  0.0012 -0.6669 -0.5076
 2063TIP3   OH227603   4.729   4.579   1.893  0.3142 -0.0022  0.3764
 2063TIP3    H127604   4.671   4.652   1.872  0.5097 -0.0331 -0.2983
 2063TIP3    H227605   4.671   4.505   1.910  0.1456  0.0484  0.0196
 2064TIP3   OH227606   5.286   6.219  15.017  0.1182  0.3471  0.4819
 2064TIP3    H127607   5.322   6.308  15.019  1.0481  0.0843 -1.6672
 2064TIP3    H227608   5.363   6.163  15.007 -0.6180 -0.4914 -0.7691
 2065TIP3   OH227609   2.799   4.089  14.175 -0.4459 -0.2940  0.0444
 2065TIP3    H127610   2.893   4.075  14.167 -0.5001  0.0754 -1.8305
 2065TIP3    H227611   2.766   4.007  14.211  0.4833 -0.8562 -0.3310
 2066TIP3   OH227612   1.251   5.488  12.455 -0.1784  0.8054  0.0642
 2066TIP3    H127613   1.171   5.538  12.440  0.8661  2.1242 -1.4907
 2066TIP3    H227614   1.308   5.512  12.382  1.1953 -1.0322  0.4514
 2067TIP3   OH227615   2.760   6.687   1.692 -0.6398 -0.4559 -0.4758
 2067TIP3    H127616   2.753   6.772   1.649 -0.4454 -0.5638 -0.7247
 2067TIP3    H227617   2.686   6.684   1.753 -1.4676 -0.6921 -1.4736
 2068TIP3   OH227618   2.477   2.309   5.812  0.3083 -0.3071  0.0867
 2068TIP3    H127619   2.410   2.255   5.769 -0.3760  0.4440  0.1802
 2068TIP3    H227620   2.438   2.396   5.817  1.0525  0.0045  0.7187
 2069TIP3   OH227621   0.130   6.080   3.488 -0.1460  0.2610  0.1972
 2069TIP3    H127622   0.182   6.075   3.568  2.5674  1.1724 -1.3890
 2069TIP3    H227623   0.176   6.142   3.433 -2.1401 -0.0336 -1.9652
 2070TIP3   OH227624   5.020   6.637  16.150  0.4837 -0.2423 -0.1872
 2070TIP3    H127625   4.950   6.571  16.143 -0.6430  0.8379  0.3904
 2070TIP3    H227626   5.067   6.632  16.067 -0.4694 -0.8148 -0.7103
 2071TIP3   OH227627   1.278   1.877   1.452  0.3988 -0.5179 -0.0140
 2071TIP3    H127628   1.369   1.895   1.476  0.4804  1.7782 -1.6889
 2071TIP3    H227629   1.261   1.936   1.379 -2.2857 -1.3131 -0.1246
 2072TIP3   OH227630   0.253   1.350  12.987 -0.3434 -0.2843 -0.0266
 2072TIP3    H127631   0.202   1.269  12.986  0.0749 -0.5513 -0.7569
 2072TIP3    H227632   0.192   1.416  12.953 -0.7645 -0.2364  0.8102
 2073TIP3   OH227633   5.042   4.068   3.657 -0.0534 -0.0974  0.0806
 2073TIP3    H127634   5.097   4.129   3.706 -0.6273 -0.6420  1.4650
 2073TIP3    H227635   5.061   3.982   3.694 -0.7166 -0.4882 -0.4502
 2074TIP3   OH227636   4.645   1.768  14.180 -0.0100 -0.1053  0.2652
 2074TIP3    H127637   4.551   1.774  14.200  0.0204  0.3238  0.3028
 2074TIP3    H227638   4.686   1.829  14.242  0.1904  0.4228 -0.3713
 2075TIP3   OH227639   6.478   3.428   4.772 -0.3061 -0.0852  0.0019
 2075TIP3    H127640   6.451   3.385   4.853 -0.8602  1.0840  0.4638
 2075TIP3    H227641   6.397   3.460   4.732 -0.2130 -1.9273 -1.8215
 2076TIP3   OH227642   1.236   4.428   3.833 -0.0118 -0.0984  0.2856
 2076TIP3    H127643   1.176   4.409   3.760  1.2622  0.0090 -0.8248
 2076TIP3    H227644   1.309   4.368   3.819  0.7066  0.6222  0.9171
 2077TIP3   OH227645   3.940   3.360  16.774 -0.3056 -0.0553  0.1317
 2077TIP3    H127646   4.030   3.350  16.804  0.2119 -0.4298 -1.4568
 2077TIP3    H227647   3.947   3.379  16.681 -1.8767 -0.2459 -0.0564
 2078TIP3   OH227648   3.660   3.140  12.840  0.5080 -0.5308 -0.2742
 2078TIP3    H127649   3.638   3.047  12.849 -0.7510 -0.4613 -2.0895
 2078TIP3    H227650   3.581   3.179  12.802  1.2635  1.1657 -0.1499
 2079TIP3   OH227651   5.017   5.208  12.594  0.2094  0.2724 -0.1749
 2079TIP3    H127652   5.062   5.246  12.670  0.2579 -1.2637  0.6075
 2079TIP3    H227653   4.980   5.125  12.627  1.1030 -0.9486 -2.0633
 2080TIP3   OH227654   6.537   1.950  12.601 -0.2851  0.6514  0.8863
 2080TIP3    H127655   6.607   1.885  12.598 -1.1120 -0.2376  0.2348
 2080TIP3    H227656   6.518   1.960  12.694 -0.0258  0.1037  1.0021
 2081TIP3   OH227657   3.140   2.514  15.020 -0.0081 -0.1311 -0.2871
 2081TIP3    H127658   3.206   2.577  14.991  0.4127  0.0362  0.9820
 2081TIP3    H227659   3.091   2.493  14.941  0.9522  0.4735 -1.0669
 2082TIP3   OH227660   0.935   4.589   5.617 -0.2075  0.8598  0.4339
 2082TIP3    H127661   0.964   4.609   5.706 -1.6989  1.0677  0.8964
 2082TIP3    H227662   0.966   4.664   5.565  2.8266 -0.3970  0.2331
 2083TIP3   OH227663   4.063   1.490   4.752 -0.2438  0.8050  0.0216
 2083TIP3    H127664   4.085   1.518   4.840 -0.1390  0.3430  0.1443
 2083TIP3    H227665   4.115   1.546   4.694  0.2229  0.6270  0.2713
 2084TIP3   OH227666   0.978   0.141   1.525  0.0572  0.3255  0.2666
 2084TIP3    H127667   0.979   0.161   1.619  0.0561 -0.9989  0.5711
 2084TIP3    H227668   1.070   0.131   1.502  0.0063 -0.9408  0.5174
 2085TIP3   OH227669   4.187   0.906  10.952 -0.4419 -0.0190  0.0235
 2085TIP3    H127670   4.242   0.952  10.889 -1.9922  0.6722 -0.8567
 2085TIP3    H227671   4.176   0.968  11.024  0.4974 -0.4336  0.5454
 2086TIP3   OH227672   1.211   1.010  17.199 -0.2063 -0.0827  0.1278
 2086TIP3    H127673   1.175   1.054  17.122  2.2406  0.5794 -0.7603
 2086TIP3    H227674   1.188   0.918  17.188 -2.8427  0.4704  0.4598
 2087TIP3   OH227675   5.841   5.549   6.047 -0.1836 -0.6765 -0.0414
 2087TIP3    H127676   5.781   5.622   6.030  0.3109 -0.2978 -0.1823
 2087TIP3    H227677   5.792   5.492   6.107 -0.5906 -0.2494  0.0464
 2088TIP3   OH227678   5.690   5.946   3.958 -0.8668 -0.0105  0.3097
 2088TIP3    H127679   5.764   5.897   3.924 -1.1969 -0.7854  0.6883
 2088TIP3    H227680   5.729   6.011   4.016 -0.5564 -1.2568  1.5281
 2089TIP3   OH227681   0.219   5.408   0.302 -0.1027 -0.1936  0.3813
 2089TIP3    H127682   0.308   5.398   0.267  0.3374 -0.1637  1.4754
 2089TIP3    H227683   0.163   5.402   0.224  0.7626 -1.5013 -0.1805
 2090TIP3   OH227684   5.070   5.383   2.216  0.1978 -0.1131 -0.6857
 2090TIP3    H127685   5.005   5.323   2.179  0.0158 -1.1667  1.1709
 2090TIP3    H227686   5.140   5.325   2.248  0.4908  0.7339  0.2619
 2091TIP3   OH227687   1.204   5.805   5.833 -0.4455  0.3934 -0.1310
 2091TIP3    H127688   1.225   5.803   5.740  1.5021 -1.0810  0.2670
 2091TIP3    H227689   1.265   5.868   5.871 -2.6797  2.6640 -0.0822
 2092TIP3   OH227690   2.935   1.332  12.041 -0.2274  0.0502  0.2373
 2092TIP3    H127691   2.995   1.327  11.966  0.0113 -0.6606  0.4657
 2092TIP3    H227692   2.880   1.254  12.032 -0.3148  0.0576  0.7009
 2093TIP3   OH227693   0.553   6.691   0.010  0.7634  0.5659  0.2737
 2093TIP3    H127694   0.561   6.666  -0.082 -1.1234 -1.8418  0.6611
 2093TIP3    H227695   0.635   6.664   0.049  0.2837 -1.6654 -0.1120
 2094TIP3   OH227696   4.309   0.079   1.342 -0.2787 -0.2639 -0.6279
 2094TIP3    H127697   4.303   0.019   1.267  0.2892  0.1599 -1.0230
 2094TIP3    H227698   4.226   0.069   1.387  0.2639 -2.3118  0.0517
 2095TIP3   OH227699   1.382   3.690  14.371 -0.3635  0.0258  0.0468
 2095TIP3    H127700   1.457   3.748  14.357  0.5755 -0.7591  1.5233
 2095TIP3    H227701   1.333   3.694  14.289  0.7189  1.3833 -0.5803
 2096TIP3   OH227702   2.829   6.484   3.982 -0.0163  0.2088  0.0576
 2096TIP3    H127703   2.899   6.444   3.930 -1.0164 -0.6642 -0.6683
 2096TIP3    H227704   2.829   6.575   3.955  0.3172  0.0413 -0.5276
 2097TIP3   OH227705   2.752   6.609   6.173 -0.2198 -0.3466  0.0484
 2097TIP3    H127706   2.703   6.635   6.251  0.1121  0.4483  0.0067
 2097TIP3    H227707   2.808   6.684   6.155 -1.4792  0.1872 -1.9352
 2098TIP3   OH227708   5.396   2.215   4.074  0.3704  0.3200 -0.3185
 2098TIP3    H127709   5.335   2.214   4.000 -0.4497 -0.9184  0.3478
 2098TIP3    H227710   5.413   2.308   4.088 -1.0941  0.6881 -0.7526
 2099TIP3   OH227711   6.148   2.376   3.823  0.2211  0.8238  0.5864
 2099TIP3    H127712   6.219   2.440   3.822  0.1300  1.0469 -2.7539
 2099TIP3    H227713   6.071   2.425   3.793  0.3483 -0.8125 -2.9978
 2100TIP3   OH227714   4.282   0.540   1.640 -0.0220  0.1071  0.0946
 2100TIP3    H127715   4.236   0.484   1.703  1.4411 -1.1630  0.1111
 2100TIP3    H227716   4.213   0.568   1.579 -1.0475 -0.6254  0.8639
 2101TIP3   OH227717   5.017   3.927  14.723  0.5614  0.6467  0.1039
 2101TIP3    H127718   5.100   3.969  14.747 -0.4457  2.3388  0.8374
 2101TIP3    H227719   5.037   3.833  14.721  2.1308  0.8730  1.8649
 2102TIP3   OH227720   0.676   6.430   5.986 -0.7119  0.0654  0.3776
 2102TIP3    H127721   0.628   6.500   5.942 -2.3139  1.1321  3.5211
 2102TIP3    H227722   0.707   6.469   6.067  1.3052 -2.0072  0.7152
 2103TIP3   OH227723   2.733   4.198  11.389  0.4783  0.4102 -0.2958
 2103TIP3    H127724   2.684   4.179  11.309 -0.2471 -0.2855  0.2961
 2103TIP3    H227725   2.748   4.112  11.429  2.7225  0.5190 -0.7470
 2104TIP3   OH227726   2.671   5.440   0.986 -0.5945 -0.5168 -0.2707
 2104TIP3    H127727   2.708   5.355   0.963  1.3131 -0.1275  1.2080
 2104TIP3    H227728   2.746   5.499   0.991 -1.6505  0.8014  0.7324
 2105TIP3   OH227729   2.064   2.714  12.273  0.0469 -0.8435  0.4484
 2105TIP3    H127730   2.011   2.776  12.322 -0.0920 -0.4383 -0.2052
 2105TIP3    H227731   2.100   2.765  12.201 -0.7926 -1.7090 -0.6169
 2106TIP3   OH227732   3.090   0.993   1.167 -0.0856  0.9448 -0.1800
 2106TIP3    H127733   3.141   0.971   1.089  0.1636 -1.3397  0.5363
 2106TIP3    H227734   3.001   1.003   1.135 -0.0227 -0.1792 -0.7684
 2107TIP3   OH227735   2.575   5.981  11.169 -0.0648 -0.1190 -0.4631
 2107TIP3    H127736   2.627   6.032  11.232  0.0962  1.2941 -1.6985
 2107TIP3    H227737   2.494   6.032  11.159 -0.4082 -0.7314 -0.8362
 2108TIP3   OH227738   4.055   4.224   2.291 -0.5477 -0.5717 -0.0433
 2108TIP3    H127739   4.069   4.270   2.374  1.5667 -0.7392 -0.2525
 2108TIP3    H227740   4.057   4.131   2.315  0.1091 -0.6199 -0.2787
 2109TIP3   OH227741   5.226   3.470   3.651  0.3987 -0.0340 -0.0720
 2109TIP3    H127742   5.183   3.385   3.647  2.6346 -1.4493  2.5976
 2109TIP3    H227743   5.301   3.462   3.591  0.2242  0.3428 -0.3488
 2110TIP3   OH227744   0.536   5.411  11.510 -0.9863 -0.1079  0.3672
 2110TIP3    H127745   0.463   5.456  11.552  1.3624  1.7281  2.8626
 2110TIP3    H227746   0.594   5.481  11.481  0.4049 -1.4994 -0.3961
 2111TIP3   OH227747   6.604   1.992   4.388 -0.1661 -0.4184 -0.4368
 2111TIP3    H127748   6.517   1.957   4.408  0.0527 -0.8718 -0.2809
 2111TIP3    H227749   6.664   1.919   4.401  0.1663 -0.2940 -1.2267
 2112TIP3   OH227750   1.073   2.427  17.155 -0.0954 -0.1070 -0.0442
 2112TIP3    H127751   1.132   2.410  17.228 -2.8293  0.7277  2.5388
 2112TIP3    H227752   1.054   2.340  17.120  1.5826 -0.4842 -0.1167
 2113TIP3   OH227753   5.311   6.772   2.236 -0.1531 -0.1697  0.2227
 2113TIP3    H127754   5.358   6.829   2.297 -0.1278 -0.3216  0.3482
 2113TIP3    H227755   5.345   6.794   2.150 -1.3714  1.2436  0.0478
 2114TIP3   OH227756   2.201   2.779   1.156 -0.6556  0.2203  0.4564
 2114TIP3    H127757   2.221   2.685   1.159 -1.5150 -0.0207 -0.5993
 2114TIP3    H227758   2.159   2.798   1.239 -0.5625 -0.3605  0.6401
 2115TIP3   OH227759   6.754   4.033  13.194 -0.4154  0.0518  0.5372
 2115TIP3    H127760   6.676   4.053  13.143 -0.0272  0.4582  0.0991
 2115TIP3    H227761   6.777   4.115  13.237  1.3248  0.7087 -1.4713
 2116TIP3   OH227762   6.051   6.343   5.507  0.2848  0.5035  0.1719
 2116TIP3    H127763   6.010   6.259   5.530  1.4640 -0.3070 -0.5287
 2116TIP3    H227764   6.018   6.362   5.419  1.5239 -0.2748 -0.4950
 2117TIP3   OH227765   5.748   3.577  11.629  0.1127  0.3094  0.0691
 2117TIP3    H127766   5.785   3.489  11.618  0.2870  0.3528  0.2972
 2117TIP3    H227767   5.655   3.566  11.607  0.2501  0.1928 -0.4555
 2118TIP3   OH227768   3.932   6.329   4.058 -0.0516 -0.5333  0.0745
 2118TIP3    H127769   4.027   6.323   4.065 -0.0193 -2.3721 -1.3852
 2118TIP3    H227770   3.901   6.320   4.149  1.1296  0.3491  0.5957
 2119TIP3   OH227771   4.456   1.690  11.954  0.8718 -0.0444  0.2366
 2119TIP3    H127772   4.400   1.638  11.897  2.5949  0.3066 -1.8943
 2119TIP3    H227773   4.442   1.780  11.925  1.2642  0.2232  0.8503
 2120TIP3   OH227774   2.699   2.560   0.785  0.4924 -0.3538 -0.1677
 2120TIP3    H127775   2.777   2.582   0.836  1.0850  0.1336 -1.2363
 2120TIP3    H227776   2.719   2.592   0.696 -1.1812  0.3670 -0.3298
 2121TIP3   OH227777   4.946   5.302   4.963  0.0861  0.3302  0.5313
 2121TIP3    H127778   5.035   5.331   4.945  0.6125  0.5672  3.1519
 2121TIP3    H227779   4.890   5.366   4.919  1.2186  1.2034  0.3262
 2122TIP3   OH227780   2.980   4.768   0.089  0.1553  0.0243 -0.4363
 2122TIP3    H127781   2.900   4.716   0.094  0.6794 -0.7367  0.3415
 2122TIP3    H227782   2.995   4.780  -0.005 -1.1119  0.5908 -0.5913
 2123TIP3   OH227783   1.898   2.908  12.398  0.5615 -0.3894 -0.0382
 2123TIP3    H127784   1.823   2.925  12.454  2.5684  1.1036  2.4664
 2123TIP3    H227785   1.901   2.982  12.338 -0.3002 -0.7889 -0.5827
 2124TIP3   OH227786   2.809   0.690  16.903 -0.3062 -0.0077 -0.0472
 2124TIP3    H127787   2.777   0.701  16.813  0.8792 -2.1253 -0.7889
 2124TIP3    H227788   2.755   0.621  16.940  1.0280 -1.1407 -0.1272
 2125TIP3   OH227789   0.319   3.139   3.556  0.3914  0.1053  0.4101
 2125TIP3    H127790   0.361   3.139   3.642  0.7683  0.0906  0.2242
 2125TIP3    H227791   0.225   3.139   3.576  0.4770  0.2328  0.8227
 2126TIP3   OH227792   2.877   2.658  16.093  0.9775 -0.2224 -0.1654
 2126TIP3    H127793   2.851   2.747  16.072  0.0922 -0.5764 -0.6255
 2126TIP3    H227794   2.899   2.660  16.186 -0.6724  0.1226  0.2407
 2127TIP3   OH227795   1.372   4.429   5.881 -0.5131  0.4494  0.2810
 2127TIP3    H127796   1.311   4.491   5.921  1.2171  0.9535  2.2785
 2127TIP3    H227797   1.426   4.398   5.953  1.7282  0.1703 -1.4198
 2128TIP3   OH227798   1.618   0.907   2.013  0.0529  0.6653 -0.1972
 2128TIP3    H127799   1.540   0.939   2.057 -2.6919 -1.5691 -2.9898
 2128TIP3    H227800   1.627   0.816   2.041  0.3734  0.2802 -1.4717
 2129TIP3   OH227801   5.139   1.311  15.288 -0.0512 -0.4219  0.3425
 2129TIP3    H127802   5.221   1.288  15.245  0.3013  0.7144  0.3806
 2129TIP3    H227803   5.124   1.402  15.264 -0.1797  0.0488  2.0575
 2130TIP3   OH227804   2.259   4.229   5.895  0.5273  0.7218 -0.6591
 2130TIP3    H127805   2.226   4.308   5.937  0.8565  1.5836 -1.9410
 2130TIP3    H227806   2.317   4.261   5.826 -0.0500 -0.5962 -1.8182
 2131TIP3   OH227807   2.395   4.180   3.523  0.4165  0.5679 -0.6248
 2131TIP3    H127808   2.313   4.138   3.499  0.9103 -1.1251  0.5403
 2131TIP3    H227809   2.443   4.186   3.440 -0.1843  0.0377 -1.0208
 2132TIP3   OH227810   4.528   1.040   5.154  0.3088 -0.1957  0.4215
 2132TIP3    H127811   4.556   1.041   5.246 -1.0187 -0.5922  0.8457
 2132TIP3    H227812   4.604   1.073   5.106  0.9996  0.0939  1.6664
 2133TIP3   OH227813   3.138   6.309  16.331  0.5144 -0.0949 -0.0859
 2133TIP3    H127814   3.113   6.310  16.423  0.3122 -0.2656 -0.1381
 2133TIP3    H227815   3.058   6.333  16.284  0.2580 -1.2699 -0.2935
 2134TIP3   OH227816   2.373   5.478  12.324 -0.0487  0.1429 -0.2789
 2134TIP3    H127817   2.411   5.480  12.412 -1.8116  1.1665  0.5350
 2134TIP3    H227818   2.325   5.561  12.317 -3.9324 -1.8377 -0.2852
 2135TIP3   OH227819   4.077   4.171  17.169  0.5062 -0.4691  0.1137
 2135TIP3    H127820   4.153   4.160  17.225  1.0553 -1.0675 -0.7282
 2135TIP3    H227821   4.049   4.262  17.183  0.6790 -0.5836  1.2735
 2136TIP3   OH227822   4.015   0.557   4.035 -0.3039  0.0883  0.8901
 2136TIP3    H127823   4.106   0.529   4.046  0.2492  1.1808 -0.5433
 2136TIP3    H227824   3.981   0.564   4.125  2.1160  3.0275  1.7692
 2137TIP3   OH227825   5.671   4.112   0.590 -0.4376 -0.0994  0.0409
 2137TIP3    H127826   5.709   4.162   0.662  0.3474 -0.5721 -0.0377
 2137TIP3    H227827   5.628   4.038   0.632  0.2979 -0.5514  0.0094
 2138TIP3   OH227828   4.759   6.249  16.465  0.3073  0.3435  0.3560
 2138TIP3    H127829   4.748   6.270  16.557 -0.7505  0.0545  0.3094
 2138TIP3    H227830   4.848   6.215  16.458 -0.6262 -2.9127  1.9482
 2139TIP3   OH227831   0.911   1.395  16.972  0.2442 -0.0629  0.4407
 2139TIP3    H127832   0.954   1.479  16.962 -0.3275  0.1926  0.0990
 2139TIP3    H227833   0.834   1.413  17.026  0.8413 -0.6133  1.5055
 2140TIP3   OH227834   4.956   0.325  12.951  0.0996  0.4298  0.4079
 2140TIP3    H127835   4.909   0.342  12.869 -2.2041  1.2165  1.7696
 2140TIP3    H227836   4.990   0.410  12.977  1.4328  0.0497 -0.0520
 2141TIP3   OH227837   0.316   1.229   0.225  0.2552 -0.0036  0.2190
 2141TIP3    H127838   0.324   1.204   0.133 -2.5407  1.1729 -0.4361
 2141TIP3    H227839   0.297   1.148   0.271 -1.7693 -0.1914 -0.8277
 2142TIP3   OH227840   0.183   2.679   4.286  0.0259  0.2466 -0.2078
 2142TIP3    H127841   0.246   2.611   4.310 -3.0869 -2.5119  0.8476
 2142TIP3    H227842   0.167   2.664   4.193 -0.8060 -0.6337  0.0699
 2143TIP3   OH227843   0.659   0.092  15.618  0.0849 -0.0908 -0.4875
 2143TIP3    H127844   0.599   0.085  15.544 -1.5226 -0.3479  0.7877
 2143TIP3    H227845   0.603   0.110  15.694  1.7169  0.6793  0.6071
 2144TIP3   OH227846   2.790   0.918  12.982 -0.0924 -0.3154 -0.0223
 2144TIP3    H127847   2.739   0.839  12.965 -1.5956  0.6698 -0.3322
 2144TIP3    H227848   2.724   0.985  13.003  0.8876  1.5189 -2.3443
 2145TIP3   OH227849   0.844   1.059  13.780  0.4203 -0.3113  0.1449
 2145TIP3    H127850   0.789   1.113  13.837 -0.1416 -0.1495 -0.5294
 2145TIP3    H227851   0.836   1.100  13.694 -0.9580 -2.1156 -0.6372
 2146TIP3   OH227852   5.399   3.347   5.991 -0.6249 -0.3431  0.1540
 2146TIP3    H127853   5.346   3.383   6.061  0.0286 -0.4352  0.7006
 2146TIP3    H227854   5.485   3.388   6.001 -0.3394 -0.8381 -0.1907
 2147TIP3   OH227855   2.095   2.449   2.654 -0.2495 -0.3075  0.1112
 2147TIP3    H127856   2.057   2.485   2.734  0.8754  1.5610 -0.1098
 2147TIP3    H227857   2.037   2.479   2.584 -1.6415 -2.5465  0.2007
 2148TIP3   OH227858   4.896   3.276  13.123 -0.0808 -0.4639  0.3842
 2148TIP3    H127859   4.886   3.183  13.146 -0.5514 -0.1000  1.7645
 2148TIP3    H227860   4.974   3.304  13.171  0.0528 -0.1356 -0.0230
 2149TIP3   OH227861   0.179   2.680  10.861 -0.5313 -0.1326  0.1251
 2149TIP3    H127862   0.185   2.585  10.850  0.7276 -0.2580  1.5818
 2149TIP3    H227863   0.086   2.697  10.876 -0.6431 -1.2446  0.7864
 2150TIP3   OH227864   1.691   1.225   4.634  0.5941  0.0229 -0.3016
 2150TIP3    H127865   1.738   1.308   4.621 -0.8375  0.6351 -2.0143
 2150TIP3    H227866   1.659   1.229   4.724  1.6364  0.7441  0.0527
 2151TIP3   OH227867   3.698   1.166  17.104 -0.5534  0.2725  0.1335
 2151TIP3    H127868   3.718   1.254  17.070  1.4110 -0.1693  0.0370
 2151TIP3    H227869   3.738   1.106  17.041 -0.3919 -0.6498  1.0875
 2152TIP3   OH227870   2.979   0.545   3.717 -0.0331  0.0414 -0.2199
 2152TIP3    H127871   2.920   0.480   3.754 -0.7738  0.9588  0.2523
 2152TIP3    H227872   3.032   0.576   3.791 -0.7400  1.0632 -0.1213
 2153TIP3   OH227873   6.347   4.027  14.185 -0.1987 -0.1748  0.4374
 2153TIP3    H127874   6.304   4.061  14.263  0.8505  0.1374  0.8973
 2153TIP3    H227875   6.402   4.099  14.154  1.0437 -0.9835  0.6667
 2154TIP3   OH227876   0.576   3.131   2.817 -0.6994 -0.0134  0.2646
 2154TIP3    H127877   0.548   3.096   2.901 -1.2717  1.9403  0.9436
 2154TIP3    H227878   0.502   3.115   2.758 -1.7528  1.6584  1.0562
 2155TIP3   OH227879   4.760   0.678   1.507 -0.5430  0.4727  0.1463
 2155TIP3    H127880   4.695   0.625   1.554 -1.0526  0.5375 -0.4668
 2155TIP3    H227881   4.744   0.659   1.414 -0.0532  0.9189 -0.0363
 2156TIP3   OH227882   2.489   1.342   0.299 -0.0992 -0.0056  0.0553
 2156TIP3    H127883   2.474   1.288   0.377  2.1276 -0.4306  0.2791
 2156TIP3    H227884   2.582   1.328   0.279 -0.4635  0.6128 -2.3014
 2157TIP3   OH227885   4.234   2.523   0.644 -0.2528  0.5908 -0.5783
 2157TIP3    H127886   4.310   2.579   0.628 -1.6755  2.1248 -2.3912
 2157TIP3    H227887   4.242   2.453   0.579 -0.6355  1.0388 -1.1156
 2158TIP3   OH227888   5.272   3.902   4.806  0.7916 -0.0894 -0.2441
 2158TIP3    H127889   5.211   3.968   4.839  1.6547  0.3072  0.6374
 2158TIP3    H227890   5.346   3.906   4.867  1.6996 -0.5439 -1.2830
 2159TIP3   OH227891   1.772   5.834  15.903 -0.3014  0.6190  0.3191
 2159TIP3    H127892   1.865   5.841  15.928 -0.4925  2.0446  0.7219
 2159TIP3    H227893   1.749   5.743  15.922  0.3189  0.8942  2.7987
 2160TIP3   OH227894   0.439   4.426  14.511 -0.4971 -0.2486 -0.1817
 2160TIP3    H127895   0.481   4.371  14.445 -0.1041  1.5119 -1.4811
 2160TIP3    H227896   0.347   4.430  14.483 -0.3061  0.5955 -0.7249
 2161TIP3   OH227897   5.911   3.534  16.760 -0.2708  0.3093  0.1054
 2161TIP3    H127898   5.937   3.507  16.672 -0.9689  0.5637 -0.1847
 2161TIP3    H227899   5.888   3.626  16.751  0.4668  0.5716  0.7433
 2162TIP3   OH227900   5.623   0.627   2.840  0.1170 -0.1306  0.2976
 2162TIP3    H127901   5.537   0.611   2.802  0.6581  0.4746 -1.2572
 2162TIP3    H227902   5.649   0.712   2.805  1.3197 -0.2614  0.8197
 2163TIP3   OH227903   3.971   4.435  16.845 -0.1085  0.5769  0.8711
 2163TIP3    H127904   3.950   4.354  16.891 -0.1030  0.7284  1.1407
 2163TIP3    H227905   3.939   4.504  16.903  2.1874  0.8776  1.8547
 2164TIP3   OH227906   6.266   0.508  15.502 -0.2240 -0.0818  0.1744
 2164TIP3    H127907   6.200   0.487  15.437 -1.1748 -0.3629  1.2074
 2164TIP3    H227908   6.303   0.424  15.528  0.0341  0.0148  0.1281
 2165TIP3   OH227909   3.108   4.722   6.329  0.5086  0.7205  0.8058
 2165TIP3    H127910   3.049   4.761   6.392 -0.1707  0.8266  0.1184
 2165TIP3    H227911   3.062   4.729   6.245  1.7820  1.4595  0.1336
 2166TIP3   OH227912   4.194   3.296  13.678 -0.4312  0.0813  0.3210
 2166TIP3    H127913   4.228   3.210  13.698  0.0243  0.6482  2.1405
 2166TIP3    H227914   4.137   3.318  13.752 -1.3794  0.9172 -0.6116
 2167TIP3   OH227915   0.501   3.231  11.148 -0.8525  0.1869 -0.4522
 2167TIP3    H127916   0.587   3.263  11.120 -0.1213 -2.4026 -1.5122
 2167TIP3    H227917   0.439   3.272  11.087 -0.1942  0.8803 -0.6711
 2168TIP3   OH227918   3.304   4.604   1.214  0.1302 -0.5799  0.4590
 2168TIP3    H127919   3.213   4.600   1.244 -0.5353  1.1290 -1.1693
 2168TIP3    H227920   3.308   4.543   1.141 -0.6143  1.5976 -1.5034
 2169TIP3   OH227921   3.026   6.210   0.266  0.5277 -0.0268 -0.0920
 2169TIP3    H127922   3.022   6.264   0.187  1.2662 -0.8789 -0.7256
 2169TIP3    H227923   2.936   6.208   0.298  0.3057  0.7186 -0.6358
 2170TIP3   OH227924   4.488   5.532  12.966  0.0589  0.2204 -0.1704
 2170TIP3    H127925   4.510   5.485  13.047  0.7768  1.1050  0.1637
 2170TIP3    H227926   4.394   5.547  12.971  0.1895  0.7833  0.7888
 2171TIP3   OH227927   0.618   0.781   1.308  0.2216  0.0247  0.4925
 2171TIP3    H127928   0.608   0.842   1.235  0.6449  0.4072  0.7551
 2171TIP3    H227929   0.576   0.700   1.277  1.1631 -0.1061 -0.5154
 2172TIP3   OH227930   0.283   4.874  13.200  0.2722  0.0881  0.0125
 2172TIP3    H127931   0.325   4.818  13.265  0.8417  1.0946  0.5260
 2172TIP3    H227932   0.293   4.962  13.234  0.4537  0.6224 -1.3847
 2173TIP3   OH227933   5.598   2.028   6.687 -0.2418 -0.0438 -0.0884
 2173TIP3    H127934   5.513   1.983   6.681  0.1475 -0.7955 -0.0446
 2173TIP3    H227935   5.653   1.968   6.737  0.0919  0.7952  0.5665
 2174TIP3   OH227936   2.665   6.243   1.317 -0.3155  0.1507 -0.6111
 2174TIP3    H127937   2.756   6.215   1.330 -1.0341 -1.6387  0.9885
 2174TIP3    H227938   2.658   6.325   1.366 -0.1880 -1.0147  1.4534
 2175TIP3   OH227939   2.873   1.791   0.596 -0.0809  0.2393 -0.1933
 2175TIP3    H127940   2.911   1.801   0.683 -1.8873  0.1290  0.6623
 2175TIP3    H227941   2.866   1.880   0.561  1.2124  0.2329 -0.5069
 2176TIP3   OH227942   1.127   3.216   5.043  0.0626  1.4672 -0.6460
 2176TIP3    H127943   1.214   3.201   5.007  1.2259  0.5432  2.2279
 2176TIP3    H227944   1.112   3.310   5.033  2.2748  1.9966  0.4688
 2177TIP3   OH227945   1.493   3.132   4.305 -0.1915  0.6368 -0.0587
 2177TIP3    H127946   1.549   3.141   4.227 -0.5464 -1.1252 -0.5602
 2177TIP3    H227947   1.452   3.218   4.314  1.1633  1.4172 -0.7781
 2178TIP3   OH227948   2.974   4.368  15.062 -0.1263  1.0322 -0.3969
 2178TIP3    H127949   2.882   4.353  15.037 -0.2531  2.1666 -0.6450
 2178TIP3    H227950   2.969   4.421  15.142  0.2839 -2.0994  1.8992
 2179TIP3   OH227951   3.411   2.724   3.023  0.2205 -0.9254  0.1332
 2179TIP3    H127952   3.485   2.721   3.084  1.2291  1.1783 -0.8900
 2179TIP3    H227953   3.359   2.799   3.051 -1.4992 -2.2601  0.7215
 2180TIP3   OH227954   0.122   1.936   3.865  0.5065 -0.3903 -0.4555
 2180TIP3    H127955   0.074   1.986   3.931  1.0432  1.6347 -1.5056
 2180TIP3    H227956   0.162   2.003   3.809  1.0995 -2.0261 -2.0841
 2181TIP3   OH227957   3.127   2.601  17.244 -0.4127  0.3342  0.3148
 2181TIP3    H127958   3.058   2.548  17.204 -1.0159  1.5094 -0.2165
 2181TIP3    H227959   3.187   2.620  17.172  1.7086 -2.4973  1.1705
 2182TIP3   OH227960   0.820   5.701   3.667  0.2987  0.2754  0.6464
 2182TIP3    H127961   0.914   5.691   3.653  0.1898  0.0135  0.0484
 2182TIP3    H227962   0.802   5.646   3.743  0.1165 -2.4359 -1.1841
 2183TIP3   OH227963   3.878   3.418   4.981  0.3902 -0.3391 -0.1939
 2183TIP3    H127964   3.910   3.358   4.914  0.0945  0.7499 -1.3495
 2183TIP3    H227965   3.807   3.466   4.938  0.3296  0.5278  0.8396
 2184TIP3   OH227966   3.887   2.034  14.589  0.0303  0.4416 -0.1363
 2184TIP3    H127967   3.967   1.998  14.551 -0.0223  1.3836 -1.1828
 2184TIP3    H227968   3.816   1.983  14.548  0.0254  0.6991 -0.4518
 2185TIP3   OH227969   1.223   4.455  12.753 -0.2332 -0.1480 -0.4869
 2185TIP3    H127970   1.279   4.470  12.677  0.0084  1.9894  0.0529
 2185TIP3    H227971   1.250   4.522  12.816 -1.2998 -1.0544  0.9865
 2186TIP3   OH227972   2.978   1.958   6.345 -0.8502  0.3405  0.2347
 2186TIP3    H127973   2.983   1.950   6.250 -0.5146 -0.6550  0.3193
 2186TIP3    H227974   2.889   1.931   6.368 -0.0894 -2.2844  0.4125
 2187TIP3   OH227975   4.972   1.128   4.898  0.4229  0.0799 -0.5194
 2187TIP3    H127976   5.050   1.139   4.844  0.4746  1.1700 -0.2348
 2187TIP3    H227977   4.941   1.217   4.915 -0.4388 -0.3070  0.0189
 2188TIP3   OH227978   1.812   3.140  11.957  0.0338 -0.3945 -0.0332
 2188TIP3    H127979   1.781   3.087  12.030  0.3641 -0.0445  0.3678
 2188TIP3    H227980   1.798   3.230  11.986  2.5324 -0.1541  0.7050
 2189TIP3   OH227981   3.273   6.026  14.454 -0.6117  0.0072  0.1686
 2189TIP3    H127982   3.363   6.005  14.428 -0.4391  0.1009  0.6765
 2189TIP3    H227983   3.226   6.037  14.371 -0.3527 -0.8586 -0.1054
 2190TIP3   OH227984   3.036   0.125  16.348 -0.5300  0.1387  0.2567
 2190TIP3    H127985   3.080   0.042  16.363 -0.8864 -0.2511 -0.8066
 2190TIP3    H227986   3.066   0.181  16.420  0.3818 -0.6331  0.4911
 2191TIP3   OH227987   2.595   3.385  13.803  0.4901  0.0662 -0.4068
 2191TIP3    H127988   2.505   3.412  13.817  0.5259  0.0020 -0.0467
 2191TIP3    H227989   2.626   3.358  13.889 -0.1660 -3.1335 -1.0699
 2192TIP3   OH227990   5.260   4.888  14.360  0.0485  0.1373 -0.0973
 2192TIP3    H127991   5.232   4.895  14.269  0.1644 -2.3435 -0.3899
 2192TIP3    H227992   5.286   4.977  14.384 -1.6700  1.2188 -1.8920
 2193TIP3   OH227993   5.322   5.858   0.418 -0.7156  0.0310 -0.4062
 2193TIP3    H127994   5.263   5.850   0.492 -1.8120  0.2581 -1.2381
 2193TIP3    H227995   5.381   5.930   0.441 -1.2911  0.3505  0.0675
 2194TIP3   OH227996   3.444   4.016  15.673 -0.4776  0.5343 -0.7367
 2194TIP3    H127997   3.495   4.061  15.740 -0.3390 -0.0668 -0.4233
 2194TIP3    H227998   3.490   4.034  15.591  1.5483 -1.7176 -0.2377
 2195TIP3   OH227999   2.947   3.881   2.190 -0.3125 -0.0408  0.3886
 2195TIP3    H128000   2.973   3.966   2.225  0.0183 -0.0819  0.2405
 2195TIP3    H228001   2.874   3.901   2.131  1.5968  0.5191 -1.9211
 2196TIP3   OH228002   6.006   6.293   1.436 -0.1475  0.3835 -0.1467
 2196TIP3    H128003   6.097   6.302   1.408 -0.1979  0.4177 -0.2963
 2196TIP3    H228004   5.955   6.317   1.359 -0.2811  0.0898 -0.1493
 2197TIP3   OH228005   3.877   4.409   4.914  0.1246 -0.4632 -0.0697
 2197TIP3    H128006   3.957   4.459   4.897  0.4688 -1.2381 -0.8382
 2197TIP3    H228007   3.818   4.471   4.955  1.2816  0.0204  0.9470
 2198TIP3   OH228008   5.896   4.333   4.403 -0.4052 -0.0011 -0.1741
 2198TIP3    H128009   5.859   4.258   4.357  0.1493  0.5372 -1.5203
 2198TIP3    H228010   5.845   4.338   4.484 -1.2178 -1.1216 -0.5888
 2199TIP3   OH228011   2.558   1.376  15.954 -0.8353 -0.0792  0.0310
 2199TIP3    H128012   2.560   1.341  15.865 -0.4725  0.5538 -0.2201
 2199TIP3    H228013   2.615   1.453  15.950  0.5017 -0.9620  1.2013
 2200TIP3   OH228014   3.860   0.058   1.517 -0.1113  0.2803  0.1911
 2200TIP3    H128015   3.932   0.034   1.460 -0.1322 -0.5328  0.4818
 2200TIP3    H228016   3.827   0.141   1.482  0.6817  0.4402 -0.1960
 2201TIP3   OH228017   6.205   2.413  11.279  0.2733 -0.2388 -0.4781
 2201TIP3    H128018   6.243   2.500  11.271  1.1601 -0.5391  0.3463
 2201TIP3    H228019   6.112   2.425  11.257  0.5001  0.8053 -0.8867
 2202TIP3   OH228020   2.317   0.678   0.328  0.0726 -0.2277  0.1299
 2202TIP3    H128021   2.395   0.708   0.373 -1.0647  0.0145  2.0523
 2202TIP3    H228022   2.346   0.601   0.278  1.2770 -0.9438  1.8354
 2203TIP3   OH228023   4.302   5.465   6.347  0.0495 -0.1280  0.8938
 2203TIP3    H128024   4.347   5.380   6.347 -1.4833 -1.0026  2.2451
 2203TIP3    H228025   4.348   5.516   6.414  2.7858  1.2529 -1.7918
 2204TIP3   OH228026   0.475   1.635   1.969  0.2342  0.2152  0.3589
 2204TIP3    H128027   0.517   1.705   1.919  0.3338  0.6477  1.0376
 2204TIP3    H228028   0.387   1.667   1.985  0.6497  0.7467  1.7302
 2205TIP3   OH228029   3.444   0.893  17.028  0.2002 -0.7658  0.0599
 2205TIP3    H128030   3.480   0.905  17.116  0.8239  0.7849 -0.3690
 2205TIP3    H228031   3.372   0.956  17.024  0.5018 -0.4627 -0.7011
 2206TIP3   OH228032   0.532   0.722   5.794 -0.5925  0.1343  0.0923
 2206TIP3    H128033   0.542   0.814   5.819 -3.3262  0.0186  2.0080
 2206TIP3    H228034   0.602   0.677   5.843  1.5627  1.2027 -1.7991
 2207TIP3   OH228035   2.468   2.976   4.404 -0.1761 -0.6148  0.9157
 2207TIP3    H128036   2.378   3.008   4.391  0.1128 -0.6227 -1.4178
 2207TIP3    H228037   2.520   3.025   4.341  0.8510 -3.1712 -0.3394
 2208TIP3   OH228038   2.936   2.816  12.696  0.6848  0.1017 -0.2040
 2208TIP3    H128039   2.971   2.848  12.779  2.1293 -1.6709 -0.0746
 2208TIP3    H228040   2.972   2.875  12.630  2.7029 -0.7117  0.0984
 2209TIP3   OH228041   1.489   5.828  17.008 -0.2703 -0.1629  0.3565
 2209TIP3    H128042   1.534   5.908  17.037 -0.2313  0.4936 -1.4057
 2209TIP3    H228043   1.398   5.853  16.997 -0.3982 -0.5565  0.4811
 2210TIP3   OH228044   5.490   3.620   4.363 -0.1458  0.0227 -0.2196
 2210TIP3    H128045   5.399   3.646   4.379 -0.9350 -2.0504 -0.9910
 2210TIP3    H228046   5.487   3.524   4.356  2.1634 -0.1278  0.0770
 2211TIP3   OH228047   5.532   5.601   0.388 -0.3429  0.3570 -0.4107
 2211TIP3    H128048   5.463   5.574   0.328  0.0601  0.5769 -0.9804
 2211TIP3    H228049   5.492   5.596   0.475 -0.9271  0.0287 -0.6957
 2212TIP3   OH228050   5.271   0.584   1.269 -0.2217 -0.4956  0.2562
 2212TIP3    H128051   5.312   0.655   1.219 -0.7790 -0.3782 -0.0397
 2212TIP3    H228052   5.209   0.629   1.327 -2.6194 -0.8772 -1.8561
 2213TIP3   OH228053   4.383   0.091   5.518 -0.1195  0.8999 -0.1158
 2213TIP3    H128054   4.365   0.051   5.603  0.9920  1.2919  0.3314
 2213TIP3    H228055   4.323   0.165   5.513  0.7318  1.7066  0.9754
 2214TIP3   OH228056   4.396   6.176  16.599  0.0168 -0.0044  0.1855
 2214TIP3    H128057   4.426   6.255  16.553  0.0436 -1.2833 -2.1033
 2214TIP3    H228058   4.302   6.187  16.606  0.0358  0.2972  0.0140
 2215TIP3   OH228059   3.015   1.380  15.234  0.5896 -0.1148 -0.7727
 2215TIP3    H128060   3.041   1.353  15.146  2.6865  0.3264 -0.3275
 2215TIP3    H228061   3.088   1.432  15.267 -0.5524  0.5535  0.8876
 2216TIP3   OH228062   4.197   6.085   4.724  0.0994 -0.1262  0.2411
 2216TIP3    H128063   4.213   6.083   4.818 -1.0439  1.8252  0.5426
 2216TIP3    H228064   4.139   6.011   4.707 -1.9293  1.0524  1.6077
 2217TIP3   OH228065   3.858   3.906  13.368 -0.1254  0.3219  0.5475
 2217TIP3    H128066   3.819   3.942  13.288 -0.0167  2.4495  1.3834
 2217TIP3    H228067   3.883   3.817  13.345 -0.7749  0.6345 -1.5519
 2218TIP3   OH228068   5.512   0.886   5.771  0.3231 -0.2546 -0.7182
 2218TIP3    H128069   5.487   0.793   5.768  1.2757 -0.4945 -2.0763
 2218TIP3    H228070   5.562   0.895   5.852  1.0713 -1.1788 -1.0558
 2219TIP3   OH228071   0.444   4.792  16.950 -0.8260 -0.0819  0.1898
 2219TIP3    H128072   0.535   4.780  16.976 -1.3917 -1.4920  1.6116
 2219TIP3    H228073   0.393   4.780  17.030 -2.3849 -0.9492 -0.8718
 2220TIP3   OH228074   2.167   0.605   5.581 -0.2450 -0.0881  0.1422
 2220TIP3    H128075   2.134   0.692   5.557 -1.8693 -0.8055 -0.2889
 2220TIP3    H228076   2.165   0.605   5.677  0.2836  0.5181  0.1658
 2221TIP3   OH228077   3.821   3.811   3.261 -0.1104 -0.1908 -0.8187
 2221TIP3    H128078   3.858   3.899   3.250  0.4670 -0.3457 -0.1401
 2221TIP3    H228079   3.831   3.771   3.174  2.2819 -0.5840 -0.4394
 2222TIP3   OH228080   0.174   1.657  11.277 -0.1511  0.5620 -0.2315
 2222TIP3    H128081   0.237   1.586  11.288 -0.0530  0.3669 -1.8075
 2222TIP3    H228082   0.137   1.643  11.189 -0.2583  2.3554 -0.5141
 2223TIP3   OH228083   5.411   1.999  14.643  0.9536 -0.1963 -0.0459
 2223TIP3    H128084   5.392   1.925  14.585 -0.9813 -0.8587  1.2896
 2223TIP3    H228085   5.414   1.960  14.730  0.6217  1.1805  0.6135
 2224TIP3   OH228086   4.961   6.486   2.613  0.3032 -0.0208 -0.1274
 2224TIP3    H128087   4.892   6.495   2.548 -0.5086 -1.4175  0.4890
 2224TIP3    H228088   5.025   6.427   2.573 -0.8848 -2.0498  0.7940
 2225TIP3   OH228089   1.597   5.110  15.942  0.2149 -0.0655 -0.4080
 2225TIP3    H128090   1.560   5.023  15.930 -1.2793  0.4545  0.2028
 2225TIP3    H228091   1.651   5.124  15.863  0.4430 -1.4904 -0.5390
 2226TIP3   OH228092   4.080   6.313   1.032  0.1250 -0.5854 -0.0033
 2226TIP3    H128093   3.989   6.324   1.059  0.9712  2.6635  2.1115
 2226TIP3    H228094   4.116   6.253   1.098  0.1084  0.3281  0.8660
 2227TIP3   OH228095   4.839   2.469  15.519  0.0620  0.0248  0.0729
 2227TIP3    H128096   4.840   2.564  15.531 -1.2010  0.3372 -1.8671
 2227TIP3    H228097   4.747   2.445  15.531  0.2004 -0.7924 -0.4702
 2228TIP3   OH228098   1.723   1.849  13.181 -0.0466 -0.1837 -0.0476
 2228TIP3    H128099   1.711   1.813  13.094  1.8847  0.5069 -0.6478
 2228TIP3    H228100   1.760   1.936  13.167 -0.4444  0.2714  1.4547
 2229TIP3   OH228101   5.062   1.305  16.660  0.4956 -0.0270  0.2003
 2229TIP3    H128102   5.053   1.257  16.743  1.5707  0.0005  0.3505
 2229TIP3    H228103   5.093   1.240  16.598 -2.3504 -0.5754 -0.7816
 2230TIP3   OH228104   2.444   4.249  10.877 -0.1958 -0.1127 -0.1968
 2230TIP3    H128105   2.476   4.281  10.961  0.0934  0.8920 -0.6783
 2230TIP3    H228106   2.516   4.197  10.842 -0.2134 -0.3034  0.0489
 2231TIP3   OH228107   2.939   6.150   2.430 -0.1407 -0.2413 -0.0773
 2231TIP3    H128108   2.878   6.091   2.386 -0.0141 -0.8652  0.5752
 2231TIP3    H228109   2.908   6.154   2.520 -0.5441  1.2255 -0.2500
 2232TIP3   OH228110   4.857   5.317   3.003  0.6165 -0.4551 -0.0777
 2232TIP3    H128111   4.857   5.224   3.025 -0.9043 -0.4913 -0.1488
 2232TIP3    H228112   4.874   5.319   2.909 -0.9274 -0.7732 -0.3832
 2233TIP3   OH228113   6.112   1.051  11.413  0.1863  0.0402  0.2763
 2233TIP3    H128114   6.050   1.120  11.435  0.3309  0.3662 -0.3371
 2233TIP3    H228115   6.180   1.094  11.362 -0.5739 -0.8415 -1.5535
 2234TIP3   OH228116   5.959   4.410  15.961  0.5206 -0.1642  0.3938
 2234TIP3    H128117   5.967   4.346  16.031 -1.6176 -0.5429  0.3591
 2234TIP3    H228118   5.868   4.438  15.964  0.7714  1.0073 -1.2289
 2235TIP3   OH228119   4.415   1.039  10.523 -0.3726  0.0698 -0.3709
 2235TIP3    H128120   4.478   1.097  10.566 -1.3129  1.5002 -0.8676
 2235TIP3    H228121   4.454   0.952  10.531  1.1157  0.7624  0.3339
 2236TIP3   OH228122   2.003   5.966   0.182  0.1782 -0.3832  0.2789
 2236TIP3    H128123   2.005   5.912   0.103  1.1985 -0.4850  0.3602
 2236TIP3    H228124   2.030   5.908   0.253 -0.7043 -0.2863  0.7149
 2237TIP3   OH228125   1.456   1.952  11.002 -0.4653  0.5932  0.9047
 2237TIP3    H128126   1.377   1.988  10.964  0.6594  0.2756 -1.9703
 2237TIP3    H228127   1.528   1.993  10.954  0.9622 -2.5324  0.0854
 2238TIP3   OH228128   4.985   0.483  11.657 -0.5964 -0.1302 -0.1649
 2238TIP3    H128129   5.045   0.550  11.690 -0.7212 -0.0455 -0.1104
 2238TIP3    H228130   4.978   0.500  11.563  1.9582 -2.0486 -0.8232
 2239TIP3   OH228131   3.377   5.652   5.330  0.7719 -0.2437  0.1143
 2239TIP3    H128132   3.411   5.734   5.294  1.0601  0.1217  1.1605
 2239TIP3    H228133   3.312   5.680   5.395 -0.1053 -0.8947 -0.4676
 2240TIP3   OH228134   6.150   0.803   0.975 -0.3053  0.0521 -0.1490
 2240TIP3    H128135   6.176   0.813   1.067  1.3401  0.1543 -0.5989
 2240TIP3    H228136   6.080   0.868   0.963  0.5709  1.1856  0.6261
 2241TIP3   OH228137   2.784   2.180  10.031 -0.5924 -0.6505  0.1407
 2241TIP3    H128138   2.737   2.263  10.034 -0.5229 -0.5748 -0.7202
 2241TIP3    H228139   2.753   2.137   9.952  2.3257  0.3712 -1.7341
 2242TIP3   OH228140   5.116   2.455  11.558 -0.1325 -0.0062  0.0306
 2242TIP3    H128141   5.042   2.412  11.601  1.0008 -0.7580  1.3188
 2242TIP3    H228142   5.093   2.456  11.465 -1.6504 -0.4181  0.3773
 2243TIP3   OH228143   2.684   1.319  13.976 -0.3634  0.5796 -0.2428
 2243TIP3    H128144   2.662   1.319  13.883 -1.1999 -2.0085 -0.1405
 2243TIP3    H228145   2.651   1.235  14.008  1.3825  0.6636  2.0437
 2244TIP3   OH228146   4.356   2.774   5.382 -0.5930  0.1647 -0.4790
 2244TIP3    H128147   4.431   2.790   5.325 -0.6044  1.3977 -0.1709
 2244TIP3    H228148   4.302   2.853   5.374  0.2766  1.1874  2.5740
 2245TIP3   OH228149   2.818   2.095  10.945  0.0592 -0.8712 -0.4485
 2245TIP3    H128150   2.867   2.175  10.924 -0.8045 -0.2635 -0.1834
 2245TIP3    H228151   2.867   2.025  10.901  1.5404 -0.3775  0.3232
 2246TIP3   OH228152   5.551   3.468  15.817 -0.2997  0.5348 -0.0759
 2246TIP3    H128153   5.588   3.510  15.895  0.6168 -1.9882  0.9491
 2246TIP3    H228154   5.467   3.432  15.846 -0.1030 -0.1447 -0.3304
 2247TIP3   OH228155   5.374   1.527  16.165  0.9646  0.1554  0.6791
 2247TIP3    H128156   5.331   1.536  16.250 -0.3749  0.7133 -0.0384
 2247TIP3    H228157   5.333   1.593  16.109  1.5210 -0.4808 -0.5319
 2248TIP3   OH228158   6.134   2.084  16.431  0.0113 -0.3175 -0.4035
 2248TIP3    H128159   6.206   2.102  16.371  0.7017  1.5204  0.8941
 2248TIP3    H228160   6.067   2.149  16.409 -0.6437 -1.0428 -0.5973
 2249TIP3   OH228161   4.599   2.995  14.664  0.3132  0.4678  0.1000
 2249TIP3    H128162   4.583   3.088  14.681  1.0654  0.4520  0.9665
 2249TIP3    H228163   4.533   2.972  14.598 -1.4441  1.0592  1.5372
 2250TIP3   OH228164   5.881   2.957  16.466 -0.0903  0.1371 -0.0615
 2250TIP3    H128165   5.845   3.028  16.413 -1.5275 -1.0095 -0.6836
 2250TIP3    H228166   5.807   2.923  16.515  1.1237  0.8864  2.4386
 2251TIP3   OH228167   0.378   0.125  12.916  0.2368  0.0526  0.0870
 2251TIP3    H128168   0.327   0.048  12.940  1.4530 -1.4566 -1.9036
 2251TIP3    H228169   0.469   0.100  12.932  0.7529  0.5540 -1.8274
 2252TIP3   OH228170   3.335   2.462   0.392 -0.2540 -0.4407  0.4861
 2252TIP3    H128171   3.287   2.436   0.470 -0.8022 -1.4235 -0.1584
 2252TIP3    H228172   3.280   2.527   0.350 -1.0812 -1.5973 -0.2740
 2253TIP3   OH228173   6.627   1.957  11.940 -0.0810  0.4912 -0.0365
 2253TIP3    H128174   6.715   1.919  11.945 -0.1697  0.4503  1.5074
 2253TIP3    H228175   6.641   2.051  11.947 -0.1365  0.5114 -0.1901
 2254TIP3   OH228176   4.447   2.195   2.804 -0.2239  0.6000 -0.2321
 2254TIP3    H128177   4.392   2.118   2.820 -0.4250  0.3499 -1.8855
 2254TIP3    H228178   4.422   2.223   2.716  1.1667  1.4454 -0.3740
 2255TIP3   OH228179   2.168   3.237  12.497  0.0171 -0.0119  0.0921
 2255TIP3    H128180   2.228   3.230  12.423  0.5533 -1.1743  0.6145
 2255TIP3    H228181   2.200   3.172  12.560  0.0458  1.4848  1.6828
 2256TIP3   OH228182   4.995   4.312  15.422  0.1970  0.0790  0.0769
 2256TIP3    H128183   4.904   4.336  15.405  0.5794  1.2478 -0.3910
 2256TIP3    H228184   5.012   4.346  15.510  0.3444  0.3826 -0.0660
 2257TIP3   OH228185   4.676   4.383   4.297  0.1802 -0.0402 -0.2547
 2257TIP3    H128186   4.698   4.451   4.233 -0.5769 -1.2180 -1.8089
 2257TIP3    H228187   4.750   4.322   4.293  1.0719  0.8488  1.4593
 2258TIP3   OH228188   3.238   0.895  14.713 -0.1718  0.0607 -0.2818
 2258TIP3    H128189   3.170   0.834  14.741 -0.4877  0.5588  0.0625
 2258TIP3    H228190   3.313   0.839  14.692 -0.0961 -0.3914  1.0511
 2259TIP3   OH228191   2.334   0.514   4.764 -0.1991  0.4299  0.2711
 2259TIP3    H128192   2.267   0.499   4.831  0.5070  0.6079  1.0377
 2259TIP3    H228193   2.322   0.605   4.738  1.1045  1.1790  2.0178
 2260TIP3   OH228194   0.817   3.208  13.149  0.3929  0.1070  0.4029
 2260TIP3    H128195   0.851   3.296  13.164  1.5077 -0.3707  0.7918
 2260TIP3    H228196   0.894   3.157  13.123 -0.4215 -0.5188 -0.8700
 2261TIP3   OH228197   6.547   2.667  11.482 -0.2716  0.2610 -0.9561
 2261TIP3    H128198   6.533   2.688  11.389  0.5150  0.3349 -1.0602
 2261TIP3    H228199   6.605   2.736  11.514 -0.4096  0.1434 -0.4415
 2262TIP3   OH228200   3.275   4.608   2.940  0.3677 -1.0939 -0.2518
 2262TIP3    H128201   3.355   4.558   2.958  0.4087 -0.7110  0.6692
 2262TIP3    H228202   3.301   4.699   2.947 -0.6312 -0.9370  2.4813
 2263TIP3   OH228203   2.912   5.965  16.010 -0.1290 -0.2937 -0.1154
 2263TIP3    H128204   2.821   5.985  16.030  0.0528  0.4282  0.0191
 2263TIP3    H228205   2.935   5.894  16.070 -0.3525  0.0979  0.4384
 2264TIP3   OH228206   3.485   3.492   4.303 -0.0966 -0.2233  0.0957
 2264TIP3    H128207   3.431   3.460   4.375 -0.0908 -0.5280 -0.0346
 2264TIP3    H228208   3.436   3.468   4.224  1.4276 -2.8857 -0.1704
 2265TIP3   OH228209   1.944   4.370  15.522  0.2901 -0.4835 -0.4437
 2265TIP3    H128210   1.970   4.340  15.610  2.2796  0.4096 -0.6840
 2265TIP3    H228211   1.900   4.294  15.484 -1.3427 -0.6451  1.5723
 2266TIP3   OH228212   0.221   5.114  11.689 -0.2145  0.0996 -0.4713
 2266TIP3    H128213   0.218   5.049  11.759 -1.6993 -0.6026 -1.1302
 2266TIP3    H228214   0.149   5.173  11.707  0.4241  0.9141 -0.5134
 2267TIP3   OH228215   2.892   2.486  10.877  0.1038 -0.0682 -0.3765
 2267TIP3    H128216   2.872   2.442  10.794 -0.4984  1.7796 -1.2601
 2267TIP3    H228217   2.810   2.481  10.926  0.8021 -2.2501  0.6939
 2268TIP3   OH228218   4.724   2.494   6.198  0.5980 -0.2581 -0.8198
 2268TIP3    H128219   4.667   2.536   6.262  1.2052  2.0766 -1.7152
 2268TIP3    H228220   4.682   2.410   6.179  0.2808 -0.9727  2.4172
 2269TIP3   OH228221   5.121   6.757  13.657  0.6030 -0.5673  0.2516
 2269TIP3    H128222   5.064   6.680  13.655  0.9184 -0.7894 -0.7365
 2269TIP3    H228223   5.106   6.800  13.573 -0.1333  0.8889  1.0844
 2270TIP3   OH228224   1.224   1.985  15.721 -0.6529  0.4174  0.1057
 2270TIP3    H128225   1.295   2.045  15.696 -0.0857  0.0050  0.6821
 2270TIP3    H228226   1.158   1.996  15.653  0.3605  0.1372 -0.9515
 2271TIP3   OH228227   6.088   5.396   3.925  0.3394  0.6193 -0.3023
 2271TIP3    H128228   6.089   5.468   3.861  0.3871 -0.8850 -2.0605
 2271TIP3    H228229   6.002   5.356   3.914  0.3798  0.2857  0.5392
 2272TIP3   OH228230   3.041   6.331   5.637 -0.1188 -0.3187  0.1895
 2272TIP3    H128231   3.084   6.411   5.606 -0.2690 -0.3715 -0.1630
 2272TIP3    H228232   3.096   6.300   5.708  1.1432 -1.0644 -1.0510
 2273TIP3   OH228233   4.810   1.827  16.129  0.1082  0.0077  0.3060
 2273TIP3    H128234   4.885   1.770  16.144 -0.4710 -0.9788 -0.4515
 2273TIP3    H228235   4.747   1.773  16.082 -0.2176  1.4323 -1.0107
 2274TIP3   OH228236   1.708   6.426   5.623 -0.3037 -0.3204 -0.2166
 2274TIP3    H128237   1.759   6.466   5.552 -0.7977  0.5175 -0.1103
 2274TIP3    H228238   1.773   6.379   5.675 -0.1200 -2.3874 -2.1436
 2275TIP3   OH228239   6.082   6.371  16.707 -0.1466 -0.2125  0.4437
 2275TIP3    H128240   6.040   6.436  16.651 -0.4862  0.4046  1.3893
 2275TIP3    H228241   6.139   6.322  16.648 -1.4483 -0.4404 -0.7007
 2276TIP3   OH228242   0.481   4.562   6.184 -0.0029  0.1075 -0.4343
 2276TIP3    H128243   0.391   4.536   6.204  0.3958  0.4763  2.2167
 2276TIP3    H228244   0.533   4.524   6.255  1.5128  2.4376 -0.2021
 2277TIP3   OH228245   4.438   5.721  11.537  0.2056 -0.6032 -0.5347
 2277TIP3    H128246   4.351   5.745  11.570  0.0727 -1.0801 -0.5243
 2277TIP3    H228247   4.420   5.664  11.462  0.5055  0.7225 -1.6352
 2278TIP3   OH228248   5.753   5.270  15.030  0.8525 -0.0193 -0.1701
 2278TIP3    H128249   5.662   5.242  15.040  0.5395  1.1044  0.3210
 2278TIP3    H228250   5.804   5.190  15.037 -0.0535 -0.5640  0.3365
 2279TIP3   OH228251   4.341   1.319   3.835  0.1150 -0.0163 -0.2124
 2279TIP3    H128252   4.378   1.233   3.855  1.3598  0.9533  2.0136
 2279TIP3    H228253   4.412   1.369   3.796  0.6733  1.1796  2.1257
 2280TIP3   OH228254   2.927   2.781   1.242  0.6788  0.4019 -0.0132
 2280TIP3    H128255   2.981   2.753   1.315  1.0035 -0.5482 -0.5956
 2280TIP3    H228256   2.844   2.809   1.281  0.4458 -1.1071  0.6404
 2281TIP3   OH228257   4.677   2.784  16.412 -0.1473  0.3281 -0.5457
 2281TIP3    H128258   4.602   2.736  16.376  0.4578 -0.7677 -0.3952
 2281TIP3    H228259   4.639   2.843  16.478 -0.9439  0.3106 -0.9814
 2282TIP3   OH228260   5.281   5.716  12.350 -1.1567 -0.0741  0.5104
 2282TIP3    H128261   5.312   5.696  12.438 -0.8218  0.0336  0.4193
 2282TIP3    H228262   5.199   5.668  12.341  0.4034 -2.8095 -0.2899
 2283TIP3   OH228263   2.848   4.978  16.773  0.7194 -0.0325 -0.1653
 2283TIP3    H128264   2.921   5.007  16.827  1.6701  0.3562 -1.6095
 2283TIP3    H228265   2.811   4.903  16.820  2.1108 -0.2965  0.5427
 2284TIP3   OH228266   3.631   2.425  13.391  0.0639 -0.1980  0.6077
 2284TIP3    H128267   3.699   2.391  13.449  0.5781  0.1427  0.2125
 2284TIP3    H228268   3.553   2.431  13.446 -0.2399 -2.5930  0.5765
 2285TIP3   OH228269   3.008   5.443   0.290  0.0073  0.2483  0.3966
 2285TIP3    H128270   3.016   5.506   0.218 -0.4232  1.5990  1.4939
 2285TIP3    H228271   3.093   5.398   0.292  0.6885  1.4869  0.1996
 2286TIP3   OH228272   6.390   4.468   3.585  0.4137 -0.1025 -0.0444
 2286TIP3    H128273   6.422   4.380   3.567  0.6282  0.4347 -2.7278
 2286TIP3    H228274   6.440   4.497   3.661  1.0930 -1.8806  0.2376
 2287TIP3   OH228275   1.033   5.730   2.191 -0.1655  0.3418  0.1821
 2287TIP3    H128276   1.095   5.682   2.246 -0.8057  0.9186  1.4375
 2287TIP3    H228277   1.032   5.682   2.108  1.7473  0.1639  0.2256
 2288TIP3   OH228278   5.503   1.800  15.163  0.5254  0.3595  0.1105
 2288TIP3    H128279   5.535   1.766  15.080 -1.2036 -0.9065 -0.0858
 2288TIP3    H228280   5.557   1.758  15.229  1.5858  0.9998 -0.3306
 2289TIP3   OH228281   3.749   0.171  13.468  0.6621  0.4720 -0.2296
 2289TIP3    H128282   3.809   0.140  13.535  0.5604  0.6288 -0.0653
 2289TIP3    H228283   3.762   0.112  13.394  0.0477 -0.3290  0.2880
 2290TIP3   OH228284   3.414   6.739   0.202 -0.0711  0.6223 -0.3077
 2290TIP3    H128285   3.434   6.809   0.265  0.9897  1.2088 -1.2551
 2290TIP3    H228286   3.406   6.661   0.256  0.9834  1.0826  0.5638
 2291TIP3   OH228287   6.645   4.442  13.887  0.3515 -0.0932 -0.3480
 2291TIP3    H128288   6.731   4.430  13.927  0.3609 -0.8956 -0.5785
 2291TIP3    H228289   6.664   4.462  13.795  0.2977 -0.0739 -0.3545
 2292TIP3   OH228290   3.494   3.637   6.812 -0.3983 -0.0817 -0.6355
 2292TIP3    H128291   3.482   3.672   6.724  2.4334 -2.4399 -2.1387
 2292TIP3    H228292   3.580   3.669   6.839 -0.1016 -1.4270  0.1385
 2293TIP3   OH228293   0.218   1.024   2.927 -0.1077 -0.4163 -0.0903
 2293TIP3    H128294   0.304   1.008   2.966 -0.5269  3.2478  3.0393
 2293TIP3    H228295   0.161   1.037   3.003 -2.4807  1.1846 -2.0322
 2294TIP3   OH228296   0.927   5.115  14.115 -0.5506 -0.1717  0.1710
 2294TIP3    H128297   0.855   5.150  14.168 -0.9225  1.3906 -1.2504
 2294TIP3    H228298   0.903   5.024  14.099  0.0675 -1.0169  3.4106
 2295TIP3   OH228299   3.533   4.455  12.931  0.3228  0.0142 -0.5890
 2295TIP3    H128300   3.500   4.544  12.939 -1.0148 -0.5984  1.4337
 2295TIP3    H228301   3.567   4.433  13.018  0.7531 -1.4083 -1.0791
 2296TIP3   OH228302   6.634   6.641   5.646 -0.0299 -0.4642 -0.3026
 2296TIP3    H128303   6.670   6.560   5.683 -2.4487 -0.5494  2.1742
 2296TIP3    H228304   6.633   6.702   5.720 -2.3049  0.3818 -0.9638
 2297TIP3   OH228305   5.265   3.737  11.548  0.3556  0.1020 -0.1214
 2297TIP3    H128306   5.192   3.782  11.506  0.5888  1.3165  0.7055
 2297TIP3    H228307   5.290   3.668  11.486 -0.7542  0.3836 -0.9179
 2298TIP3   OH228308   3.196   0.975  11.269 -0.2078 -0.4953 -0.1612
 2298TIP3    H128309   3.244   0.972  11.186 -1.1451 -1.6562 -0.6971
 2298TIP3    H228310   3.105   0.982  11.243 -0.4487  0.1055  0.8124
 2299TIP3   OH228311   3.313   4.938   5.450 -0.0983  0.0850 -0.5784
 2299TIP3    H128312   3.258   4.993   5.506 -0.5362  1.1447 -1.9941
 2299TIP3    H228313   3.276   4.850   5.460  1.3481 -0.2711  2.6378
 2300TIP3   OH228314   4.270   0.920   0.496 -0.3084  0.4548 -0.0976
 2300TIP3    H128315   4.195   0.980   0.497  0.3211  1.3128 -1.3153
 2300TIP3    H228316   4.277   0.889   0.586 -0.5288  2.3998  0.6421
 2301TIP3   OH228317   0.258   2.948  16.919  0.0335  0.0041  0.5720
 2301TIP3    H128318   0.266   2.959  16.824 -0.2030 -2.1172  0.2544
 2301TIP3    H228319   0.217   3.029  16.949  1.3183  1.2752 -0.9276
 2302TIP3   OH228320   6.666   6.139  15.094  0.1448 -0.2138 -0.2952
 2302TIP3    H128321   6.636   6.057  15.133  2.1075 -0.3440  1.1066
 2302TIP3    H228322   6.708   6.113  15.012 -2.0832 -0.1805 -1.5312
 2303TIP3   OH228323   2.657   6.021   2.434  0.0692 -0.6680 -0.2643
 2303TIP3    H128324   2.639   5.930   2.411  1.4661 -1.1788  0.4956
 2303TIP3    H228325   2.692   6.016   2.523 -1.0775  0.7661  0.3022
 2304TIP3   OH228326   6.591   3.693   3.902  0.1735  0.0739 -0.0632
 2304TIP3    H128327   6.627   3.605   3.913 -0.1803 -0.0756 -0.0790
 2304TIP3    H228328   6.613   3.738   3.984  1.7495  0.4857 -0.6748
 2305TIP3   OH228329   1.968   1.297   3.040 -0.0121  0.4567 -0.3304
 2305TIP3    H128330   2.034   1.277   3.106  0.3099  1.7195 -0.2551
 2305TIP3    H228331   1.899   1.343   3.089  0.0356  1.0236 -0.7973
 2306TIP3   OH228332   6.207   3.075  12.174  0.0622 -0.3416  0.4074
 2306TIP3    H128333   6.205   3.152  12.118  1.6164  0.5224  1.4575
 2306TIP3    H228334   6.284   3.026  12.145 -0.4497 -1.0883  0.2819
 2307TIP3   OH228335   3.171   2.339   5.383  0.3925 -0.0995 -0.0714
 2307TIP3    H128336   3.213   2.254   5.395  0.9725  0.2658  0.6167
 2307TIP3    H228337   3.234   2.390   5.331 -0.9741 -0.8207 -2.5575
 2308TIP3   OH228338   5.079   3.527   4.315 -0.3444  0.1533 -0.4078
 2308TIP3    H128339   5.079   3.567   4.228 -0.0458  2.1966  0.4546
 2308TIP3    H228340   5.141   3.581   4.365 -1.2386 -0.3663  1.3257
 2309TIP3   OH228341   1.849   5.237   0.318 -0.1014  0.2860  0.3252
 2309TIP3    H128342   1.777   5.295   0.342  1.1240  2.0350 -0.1103
 2309TIP3    H228343   1.916   5.252   0.384  0.7913  0.4216 -0.5888
 2310TIP3   OH228344   5.571   6.198   0.765  0.4669  0.1825  0.8114
 2310TIP3    H128345   5.475   6.197   0.767  0.2366  1.1216 -2.6097
 2310TIP3    H228346   5.595   6.284   0.797 -0.2600  1.6844 -2.2420
 2311TIP3   OH228347   4.693   3.797   5.141 -0.2614  0.0263  0.2592
 2311TIP3    H128348   4.767   3.843   5.180 -1.0202  2.1167 -0.6174
 2311TIP3    H228349   4.731   3.751   5.066  0.2575  0.6047  0.1568
 2312TIP3   OH228350   1.941   5.070  15.084 -0.6104 -0.1659 -0.1307
 2312TIP3    H128351   2.037   5.067  15.088 -0.5225  2.0932  0.5056
 2312TIP3    H228352   1.914   5.058  15.175 -0.9504 -0.7439 -0.3030
 2313TIP3   OH228353   5.960   4.980   4.964 -0.4800  0.1723  0.2350
 2313TIP3    H128354   5.968   5.047   4.896  0.4326  0.1587  0.3166
 2313TIP3    H228355   5.893   4.920   4.932 -1.7715  1.4529  0.4398
 2314TIP3   OH228356   5.204   3.909  15.231  0.7254  0.9720 -0.0445
 2314TIP3    H128357   5.219   3.836  15.291 -2.0678 -0.2388 -0.6418
 2314TIP3    H228358   5.171   3.979  15.287 -1.2805  0.0493  0.0530
 2315TIP3   OH228359   0.296   3.959  13.147  0.3423  0.4269 -0.3050
 2315TIP3    H128360   0.263   4.044  13.176 -1.9314 -0.4025 -0.2049
 2315TIP3    H228361   0.226   3.924  13.092  1.0297 -1.5286 -0.0353
 2316TIP3   OH228362   5.832   5.352  15.544 -1.1627 -0.4045  0.3953
 2316TIP3    H128363   5.894   5.425  15.549 -1.1578 -0.1563 -2.1539
 2316TIP3    H228364   5.770   5.368  15.615 -0.2775  1.2106  0.8481
 2317TIP3   OH228365   4.055   2.701   0.982 -0.1773  0.3154  0.3159
 2317TIP3    H128366   4.099   2.786   0.974 -0.9116  0.5848 -1.0656
 2317TIP3    H228367   4.116   2.639   0.943  0.0318  0.3153  0.6387
 2318TIP3   OH228368   5.323   0.445   6.774 -0.1407  0.4435  0.7479
 2318TIP3    H128369   5.318   0.373   6.711  0.1351  2.0813 -1.2586
 2318TIP3    H228370   5.415   0.452   6.795 -0.1328  0.3626  0.7406
 2319TIP3   OH228371   3.231   0.749  16.447 -0.2717 -0.3959  0.1211
 2319TIP3    H128372   3.178   0.689  16.393  0.1949 -1.1086  0.4343
 2319TIP3    H228373   3.173   0.773  16.519 -0.1480 -1.2667  0.5236
 2320TIP3   OH228374   4.335   3.973  11.926 -0.0239  0.1205 -0.3631
 2320TIP3    H128375   4.322   3.893  11.977 -1.1868  1.0462  0.8921
 2320TIP3    H228376   4.273   4.035  11.964  1.0364  1.7071 -1.1116
 2321TIP3   OH228377   6.091   1.352   3.306 -0.2052 -0.4098 -0.7889
 2321TIP3    H128378   6.163   1.415   3.303  1.3906 -2.1245  0.0091
 2321TIP3    H228379   6.115   1.285   3.242  0.5794 -2.6581  1.7132
 2322TIP3   OH228380   2.326   0.376  12.548 -0.0081  0.0837 -0.6522
 2322TIP3    H128381   2.244   0.327  12.546 -0.0088 -0.1909  1.9516
 2322TIP3    H228382   2.334   0.405  12.639  1.7635  1.9048 -1.3058
 2323TIP3   OH228383   2.071   6.584   4.522  0.5520  0.1797 -0.0318
 2323TIP3    H128384   2.114   6.579   4.608 -0.7905 -1.0659  0.6067
 2323TIP3    H228385   2.143   6.576   4.459  1.3770 -1.0554  1.0060
 2324TIP3   OH228386   4.515   1.853  10.429 -0.0313 -0.1343  0.3287
 2324TIP3    H128387   4.571   1.793  10.479  0.7415  0.3980  0.1252
 2324TIP3    H228388   4.513   1.816  10.341  1.0413  0.5182  0.0204
 2325TIP3   OH228389   3.358   0.043   0.479 -0.7643  0.1299 -0.0955
 2325TIP3    H128390   3.421   0.095   0.529 -0.9871  0.4196 -0.1105
 2325TIP3    H228391   3.344  -0.036   0.531  0.4348 -0.4505 -0.6176
 2326TIP3   OH228392   4.212   5.284   1.148 -0.3319  0.0341  0.1961
 2326TIP3    H128393   4.303   5.307   1.130 -0.4284  0.2296 -0.0740
 2326TIP3    H228394   4.167   5.299   1.064 -0.3767 -1.3151 -0.0336
 2327TIP3   OH228395   4.941   5.493  13.280 -0.3101  0.2057 -0.2670
 2327TIP3    H128396   4.911   5.584  13.288 -0.5374 -0.0118  1.8820
 2327TIP3    H228397   4.863   5.440  13.297  0.0873 -0.3805 -0.2521
 2328TIP3   OH228398   4.203   2.299  15.846  0.6260  0.5347  0.0473
 2328TIP3    H128399   4.201   2.330  15.937  0.7328 -1.8560  0.9618
 2328TIP3    H228400   4.132   2.346  15.803 -1.3477 -0.3078  2.1601
 2329TIP3   OH228401   6.542   4.170  13.990 -0.6176 -0.3834 -0.3715
 2329TIP3    H128402   6.570   4.246  13.940 -0.6569  1.3234  2.0358
 2329TIP3    H228403   6.623   4.127  14.017 -0.4192  0.9520  1.3099
 2330TIP3   OH228404   2.165   4.182  11.910 -0.5689  0.1762  0.1496
 2330TIP3    H128405   2.101   4.228  11.965 -2.9211  0.3549 -2.4715
 2330TIP3    H228406   2.114   4.111  11.869  0.6580  0.7428 -2.6066
 2331TIP3   OH228407   2.094   4.139  15.890 -0.5090  0.3836 -0.2606
 2331TIP3    H128408   2.112   4.126  15.984  1.6353 -1.7269 -0.8430
 2331TIP3    H228409   2.029   4.072  15.869  2.2165 -2.2416 -1.0216
 2332TIP3   OH228410   3.366   4.750  14.156 -0.5021 -0.1279 -0.1492
 2332TIP3    H128411   3.435   4.813  14.176 -2.0884  1.3941  0.7238
 2332TIP3    H228412   3.407   4.664  14.171  0.6682  0.7658  2.2279
 2333TIP3   OH228413   3.440   3.668   0.422  0.1197 -0.1840 -0.2591
 2333TIP3    H128414   3.470   3.602   0.359  0.0794  1.1038 -1.6961
 2333TIP3    H228415   3.485   3.646   0.503 -1.5260 -3.2588 -0.0114
 2334TIP3   OH228416   5.446   1.418   3.995 -0.0064 -0.0686  0.4634
 2334TIP3    H128417   5.518   1.360   4.021 -0.6954 -0.7975  0.7523
 2334TIP3    H228418   5.392   1.426   4.073 -0.2077  0.5572  0.2715
 2335TIP3   OH228419   0.338   1.669  14.103 -0.3037  0.0465 -0.0945
 2335TIP3    H128420   0.266   1.606  14.102 -1.0005  0.8146 -0.0020
 2335TIP3    H228421   0.294   1.754  14.103  0.6148  0.5271 -0.1049
 2336TIP3   OH228422   2.897   0.566  14.019 -0.2423 -0.2710 -0.1617
 2336TIP3    H128423   2.963   0.622  14.059  0.2705 -0.4742 -0.7050
 2336TIP3    H228424   2.814   0.611  14.034 -0.0611 -0.3477  1.1139
 2337TIP3   OH228425   3.891   4.915   5.295  0.5315 -0.3514 -0.1904
 2337TIP3    H128426   3.977   4.948   5.269  0.7428  0.4311  1.4040
 2337TIP3    H228427   3.829   4.959   5.236  1.0113  1.2006  0.4344
 2338TIP3   OH228428   5.198   2.452   0.183  0.6330  0.3311 -0.7069
 2338TIP3    H128429   5.232   2.535   0.150  0.4576 -0.0030 -1.7871
 2338TIP3    H228430   5.108   2.471   0.210  0.4411  0.4144 -1.3736
 2339TIP3   OH228431   0.715   3.884   4.286  0.0479 -0.6400  0.6508
 2339TIP3    H128432   0.700   3.809   4.343 -1.1981 -1.0875 -0.2488
 2339TIP3    H228433   0.708   3.960   4.345 -0.2331 -1.1430  1.2743
 2340TIP3   OH228434   4.882   1.371   4.406  0.7872  0.2838 -0.0040
 2340TIP3    H128435   4.969   1.404   4.383  0.4864 -0.4117 -2.4866
 2340TIP3    H228436   4.877   1.286   4.362 -1.2338  0.4308 -0.1512
 2341TIP3   OH228437   0.195   2.480  12.434  0.3452  0.1580 -0.3854
 2341TIP3    H128438   0.193   2.527  12.351  0.5371  0.1835 -0.3753
 2341TIP3    H228439   0.277   2.508  12.476 -0.2963  1.0562  0.3322
 2342TIP3   OH228440   2.454   5.369   0.075  0.1276 -0.3442 -0.1516
 2342TIP3    H128441   2.360   5.378   0.085  0.3710  0.5911  1.4554
 2342TIP3    H228442   2.490   5.378   0.163  1.7641 -0.2470 -0.7811
 2343TIP3   OH228443   0.060   5.930   6.715  0.4796 -0.1491  0.4065
 2343TIP3    H128444   0.003   5.984   6.660  0.6998  0.4876  0.7959
 2343TIP3    H228445   0.065   5.977   6.798  0.1894 -1.0750  0.9664
 2344TIP3   OH228446   3.990   6.437  13.332 -0.0075 -0.4697 -0.4607
 2344TIP3    H128447   4.030   6.421  13.247 -0.6601  0.3688 -0.9414
 2344TIP3    H228448   4.050   6.498  13.376  0.6055 -1.3176 -0.0851
 2345TIP3   OH228449   1.689   5.381  12.766  0.1897 -0.2845 -0.5546
 2345TIP3    H128450   1.690   5.476  12.780 -1.8653 -0.3629  0.5863
 2345TIP3    H228451   1.781   5.357  12.755  0.8844  1.6527  0.4864
 2346TIP3   OH228452   1.277   6.297  13.720 -0.0879  0.1353  0.6021
 2346TIP3    H128453   1.354   6.348  13.746 -0.8427  1.1086  1.0009
 2346TIP3    H228454   1.205   6.361  13.718 -1.0440 -0.8901  0.9942
 2347TIP3   OH228455   1.419   0.094  14.264 -0.8031 -0.1307  0.0376
 2347TIP3    H128456   1.446   0.092  14.172  0.7203  2.0157  0.3729
 2347TIP3    H228457   1.368   0.175  14.272 -0.1570  0.1808  1.2591
 2348TIP3   OH228458   3.307   1.919   0.559  0.4149  0.2035 -0.1359
 2348TIP3    H128459   3.274   1.957   0.477  0.4411 -2.2029 -1.3568
 2348TIP3    H228460   3.387   1.873   0.533  0.2604 -0.8687  1.1561
 2349TIP3   OH228461   3.440   5.130  12.940  0.3063 -0.5724 -0.5488
 2349TIP3    H128462   3.514   5.076  12.913  1.7294  1.1912 -0.3226
 2349TIP3    H228463   3.390   5.073  12.999  1.9155 -1.5465 -0.0663
 2350TIP3   OH228464   1.990   3.108  14.094 -0.1023 -0.3186 -0.0090
 2350TIP3    H128465   2.002   3.087  14.001  1.1577 -0.2407  0.1191
 2350TIP3    H228466   1.909   3.158  14.097  0.3819  0.5995 -1.2220
 2351TIP3   OH228467   2.446   0.777  14.441  0.0874  0.3386  0.1285
 2351TIP3    H128468   2.463   0.683  14.454 -0.9622  0.2875  1.3581
 2351TIP3    H228469   2.415   0.808  14.526 -0.6061  1.5696 -0.5375
 2352TIP3   OH228470   4.274   5.337   2.527 -0.2337 -0.6471 -0.2115
 2352TIP3    H128471   4.209   5.407   2.530 -0.3593 -0.7672 -0.0801
 2352TIP3    H228472   4.301   5.326   2.618  0.6484  0.0263 -0.3795
 2353TIP3   OH228473   0.590   0.091   2.461 -0.4127 -0.0442 -0.1445
 2353TIP3    H128474   0.540   0.130   2.533 -0.6114  1.5297 -1.0840
 2353TIP3    H228475   0.602   0.163   2.399 -0.2533 -1.3576 -1.6954
 2354TIP3   OH228476   2.482   4.440   3.616 -0.4031  0.3272  0.0161
 2354TIP3    H128477   2.527   4.402   3.692 -2.4192  1.5974  1.9418
 2354TIP3    H228478   2.452   4.364   3.565  2.0506 -0.5471 -0.2901
 2355TIP3   OH228479   3.643   4.567   5.994 -0.0223 -0.6349 -0.3857
 2355TIP3    H128480   3.690   4.561   6.078 -0.5086  1.0899  0.0689
 2355TIP3    H228481   3.704   4.611   5.936 -0.9996  1.7373  0.2443
 2356TIP3   OH228482   2.163   1.592  11.536  0.7216 -0.3351  0.1937
 2356TIP3    H128483   2.232   1.652  11.509 -0.0298  1.5641  2.1601
 2356TIP3    H228484   2.084   1.646  11.537 -0.3308 -1.8231  0.3772
 2357TIP3   OH228485   5.432   5.599  15.758 -0.0799  0.0300 -0.0653
 2357TIP3    H128486   5.410   5.660  15.829 -1.1095 -1.1216  0.6497
 2357TIP3    H228487   5.387   5.634  15.681 -2.9964 -1.2296  0.9442
 2358TIP3   OH228488   6.496   1.434   2.031  0.1246  0.2065  0.1142
 2358TIP3    H128489   6.579   1.460   1.990 -0.6197  0.7610 -1.1041
 2358TIP3    H228490   6.432   1.439   1.960 -0.8301 -0.9156  0.8542
 2359TIP3   OH228491   6.020   3.085   4.884  0.2012 -0.1537 -0.0513
 2359TIP3    H128492   5.925   3.095   4.879  0.0746 -0.0577  1.7761
 2359TIP3    H228493   6.052   3.170   4.915  0.8069 -0.3678 -0.0775
 2360TIP3   OH228494   3.819   4.324   1.691 -0.0635 -0.2459 -0.2070
 2360TIP3    H128495   3.904   4.339   1.733 -0.2595  0.1596  0.0574
 2360TIP3    H228496   3.839   4.271   1.614  0.5950  0.8590 -0.8281
 2361TIP3   OH228497   1.882   4.141   0.655 -0.2594 -0.1315  0.0236
 2361TIP3    H128498   1.879   4.140   0.751  0.6683  0.9051  0.0738
 2361TIP3    H228499   1.964   4.185   0.634  0.4413 -1.9418 -1.2608
 2362TIP3   OH228500   5.577   5.218   2.096 -0.1226  0.0822 -0.5377
 2362TIP3    H128501   5.620   5.132   2.096 -0.3424 -0.0391 -1.2772
 2362TIP3    H228502   5.640   5.277   2.055 -0.4770 -0.0079 -1.2325
 2363TIP3   OH228503   2.468   0.344   5.503 -0.1072  0.3814 -0.4009
 2363TIP3    H128504   2.539   0.293   5.541  0.0506  0.8413 -0.0754
 2363TIP3    H228505   2.390   0.290   5.518 -0.0507  0.5495  0.5911
 2364TIP3   OH228506   4.978   4.382   0.679  0.0781  0.2002 -0.3997
 2364TIP3    H128507   4.894   4.427   0.680 -0.4366 -0.7311  1.0989
 2364TIP3    H228508   4.955   4.290   0.665  0.8528 -0.0633  0.0485
 2365TIP3   OH228509   2.397   1.721  13.744 -0.4650  0.0624 -0.2125
 2365TIP3    H128510   2.414   1.762  13.660  2.5352  0.7426  0.6239
 2365TIP3    H228511   2.424   1.786  13.809  0.7126 -1.7466  1.1978
 2366TIP3   OH228512   0.788   1.181   0.576 -0.0338  0.2052 -0.1289
 2366TIP3    H128513   0.755   1.271   0.579  1.3953  0.7327  1.5219
 2366TIP3    H228514   0.799   1.157   0.668  0.0998 -1.4921 -0.5656
 2367TIP3   OH228515   3.936   6.272   3.359  0.3401 -0.4150  0.2990
 2367TIP3    H128516   3.875   6.305   3.293  0.4273  0.1950  0.5201
 2367TIP3    H228517   3.966   6.350   3.406  1.4423 -0.6886  0.0765
 2368TIP3   OH228518   5.169   2.746  13.579 -0.2205 -0.0943  0.1317
 2368TIP3    H128519   5.125   2.830  13.589  0.0219  0.0693 -0.1940
 2368TIP3    H228520   5.128   2.706  13.502 -1.7541 -1.1563  1.4230
 2369TIP3   OH228521   0.739   6.033  16.544  0.4453 -0.1900  0.2930
 2369TIP3    H128522   0.656   6.056  16.584  1.2575  1.5057  1.0766
 2369TIP3    H228523   0.742   6.084  16.463  0.6581 -0.3793  0.1804
 2370TIP3   OH228524   3.598   4.866  11.912  0.1618  0.3173 -0.7214
 2370TIP3    H128525   3.658   4.900  11.978 -1.0537  2.0600 -0.4402
 2370TIP3    H228526   3.621   4.774  11.903  2.1384  0.6859  0.1451
 2371TIP3   OH228527   5.767   5.085   3.602  0.5785 -0.2744 -0.3194
 2371TIP3    H128528   5.778   5.123   3.690 -1.6257  0.2406 -0.2275
 2371TIP3    H228529   5.770   4.991   3.616 -2.2392 -0.2888  0.7685
 2372TIP3   OH228530   2.758   4.471   4.509  0.1980  0.3370 -0.6339
 2372TIP3    H128531   2.791   4.394   4.553 -0.9322 -1.0151 -2.0411
 2372TIP3    H228532   2.728   4.529   4.580 -1.6710 -1.7829  0.4102
 2373TIP3   OH228533   2.146   1.144   4.187  0.3516 -0.5684  0.4263
 2373TIP3    H128534   2.156   1.122   4.094 -0.9442  0.5660 -0.0099
 2373TIP3    H228535   2.193   1.074   4.233  0.8487 -1.2595 -1.0629
 2374TIP3   OH228536   2.153   0.007  13.705  0.3119  0.4389 -0.0542
 2374TIP3    H128537   2.139   0.062  13.781 -0.1717  0.4144 -0.1276
 2374TIP3    H228538   2.067  -0.005  13.666  0.5810  0.6330 -0.7369
 2375TIP3   OH228539   6.029   0.100  16.616 -0.1330 -0.0099 -0.0896
 2375TIP3    H128540   5.961   0.060  16.670 -0.1107  0.7745  0.5421
 2375TIP3    H228541   6.111   0.073  16.656  0.0426 -2.4082 -1.8771
 2376TIP3   OH228542   0.731   3.443  13.487  0.7027  0.3868 -0.4594
 2376TIP3    H128543   0.654   3.432  13.431 -1.5729  1.8393  2.1307
 2376TIP3    H228544   0.773   3.358  13.487  0.3889  0.1020 -3.6451
 2377TIP3   OH228545   1.758   4.466  12.823 -0.4466  0.3580 -0.4717
 2377TIP3    H128546   1.679   4.501  12.865  1.1472  2.2704  1.1407
 2377TIP3    H228547   1.815   4.440  12.896  1.3218  1.1904 -1.4935
 2378TIP3   OH228548   5.847   1.449  15.454  0.4843  0.1127  0.4890
 2378TIP3    H128549   5.907   1.509  15.409  0.3176 -0.7361 -0.9292
 2378TIP3    H228550   5.851   1.368  15.403 -1.9416  0.0567  0.2423
 2379TIP3   OH228551   1.017   4.853  17.127  0.0914  0.0186  0.0436
 2379TIP3    H128552   1.011   4.851  17.223 -0.4431 -0.4519  0.0063
 2379TIP3    H228553   0.928   4.835  17.097  0.4515 -0.8883 -0.5335
 2380TIP3   OH228554   3.189   5.547   0.525  0.1466  0.0103 -0.1476
 2380TIP3    H128555   3.195   5.453   0.540  2.1441  0.2622  0.8994
 2380TIP3    H228556   3.096   5.567   0.536 -0.0704 -1.5771  1.3137
 2381TIP3   OH228557   0.576   2.397   5.572  0.1616  0.1549 -0.6695
 2381TIP3    H128558   0.667   2.407   5.602 -0.1738  0.4630  0.2812
 2381TIP3    H228559   0.535   2.342   5.638 -0.8397  1.5932 -0.0475
 2382TIP3   OH228560   1.733   3.334   3.274 -0.2887  0.0073  0.2317
 2382TIP3    H128561   1.777   3.379   3.346  2.1007 -1.6868 -0.0658
 2382TIP3    H228562   1.645   3.317   3.307 -0.1590  1.7676  1.6384
 2383TIP3   OH228563   4.007   1.982   1.660 -0.8731 -0.0048  0.1918
 2383TIP3    H128564   4.025   1.888   1.660  0.3968  0.2072 -0.8132
 2383TIP3    H228565   4.029   2.011   1.748  2.4579 -0.0664 -0.4921
 2384TIP3   OH228566   5.630   0.278   1.999  0.1684 -0.1450 -0.1497
 2384TIP3    H128567   5.674   0.246   1.921  2.1614 -1.3154  1.3410
 2384TIP3    H228568   5.683   0.352   2.028 -1.4179  1.2531 -0.6819
 2385TIP3   OH228569   5.632   4.169  14.587 -0.1098 -0.4660 -0.4134
 2385TIP3    H128570   5.612   4.106  14.517  1.3811 -0.0556 -1.2353
 2385TIP3    H228571   5.550   4.216  14.600 -0.5657 -0.9169 -1.5160
 2386TIP3   OH228572   1.173   5.756  16.781 -0.5152  0.0669  0.3738
 2386TIP3    H128573   1.176   5.746  16.876  1.4293  3.0954  0.7795
 2386TIP3    H228574   1.247   5.703  16.750 -0.8567 -0.5413  0.5778
 2387TIP3   OH228575   5.905   6.283   4.602  0.8178 -0.6128 -0.3422
 2387TIP3    H128576   5.832   6.280   4.664 -0.1145 -0.2804 -1.3912
 2387TIP3    H228577   5.981   6.258   4.654  0.3908  1.4155  1.4103
 2388TIP3   OH228578   1.494   0.413   1.271  0.8466  0.0138 -0.8034
 2388TIP3    H128579   1.442   0.356   1.216  0.8550 -0.4879 -0.3007
 2388TIP3    H228580   1.518   0.359   1.346 -0.5949  1.1580  0.5533
 2389TIP3   OH228581   0.235   1.466   5.109  0.6614  0.8257 -0.7166
 2389TIP3    H128582   0.185   1.510   5.040 -1.3774 -1.4825 -0.8830
 2389TIP3    H228583   0.307   1.423   5.064 -0.5142 -0.4544 -1.4517
 2390TIP3   OH228584   6.628   4.710   1.980  0.4329 -0.0502  0.3267
 2390TIP3    H128585   6.702   4.651   1.966 -0.7208 -1.4504 -0.2037
 2390TIP3    H228586   6.628   4.726   2.074  0.0998 -1.9255  0.6961
 2391TIP3   OH228587   5.593   3.572  17.132 -0.4298 -0.5234  0.2676
 2391TIP3    H128588   5.573   3.479  17.127 -1.8960 -0.4248  2.3992
 2391TIP3    H228589   5.667   3.578  17.192  0.3236 -0.3562 -0.6641
 2392TIP3   OH228590   6.692   6.520  15.105 -0.0008 -0.2947 -0.3282
 2392TIP3    H128591   6.777   6.479  15.118  0.2291  0.7744  2.0022
 2392TIP3    H228592   6.631   6.447  15.095  0.8628 -1.1151  0.3151
 2393TIP3   OH228593   1.798   3.379   0.947  0.2313 -0.6850  0.1076
 2393TIP3    H128594   1.837   3.465   0.936  1.1347 -1.0749  0.1994
 2393TIP3    H228595   1.706   3.397   0.967  0.4352  0.2559  0.2462
 2394TIP3   OH228596   1.306   5.264  16.625 -0.1312  0.1094  0.4702
 2394TIP3    H128597   1.241   5.333  16.610 -1.5772 -1.2906  0.0970
 2394TIP3    H228598   1.346   5.250  16.539  2.8433  2.9377  1.1802
 2395TIP3   OH228599   1.983   4.775  16.375  0.6813  0.4732 -0.1200
 2395TIP3    H128600   1.940   4.696  16.344 -1.7524  1.5188  0.3472
 2395TIP3    H228601   1.997   4.827  16.296  0.2735  0.4807 -0.1911
 2396TIP3   OH228602   6.365   0.733  16.857 -0.2186 -0.1192 -0.3843
 2396TIP3    H128603   6.328   0.736  16.768  0.1446  0.1415 -0.5340
 2396TIP3    H228604   6.373   0.640  16.877  2.2137 -0.3013 -1.7216
 2397TIP3   OH228605   6.773   4.617  16.603 -0.5044 -0.1046  0.3183
 2397TIP3    H128606   6.855   4.611  16.555 -1.1704 -0.4500 -0.8158
 2397TIP3    H228607   6.779   4.549  16.670  1.3888  1.8780  2.2887
 2398TIP3   OH228608   5.969   3.650   3.999 -0.0043 -0.7150 -0.6611
 2398TIP3    H128609   6.064   3.661   4.004 -0.1268  0.6027 -0.7021
 2398TIP3    H228610   5.956   3.569   3.949  1.0846 -1.6786  0.5678
 2399TIP3   OH228611   2.944   2.799  15.244 -0.1885  0.4422  0.1341
 2399TIP3    H128612   2.882   2.782  15.315 -0.1426  0.6465  0.2249
 2399TIP3    H228613   2.939   2.722  15.188 -0.2914  0.3203  0.3119
 2400TIP3   OH228614   6.237   3.962  13.227  0.0283  0.2404 -0.1539
 2400TIP3    H128615   6.331   3.977  13.211  0.5199 -1.3839  0.9365
 2400TIP3    H228616   6.234   3.877  13.271 -1.8816  0.7911  0.8710
 2401TIP3   OH228617   2.992   5.067   2.673  0.2217  0.4135 -0.4607
 2401TIP3    H128618   3.076   5.083   2.630 -0.3294  0.9650 -1.3388
 2401TIP3    H228619   2.968   4.978   2.646  0.0924  0.5913 -0.9286
 2402TIP3   OH228620   1.432   4.754  15.737  0.1782  0.1059 -0.0511
 2402TIP3    H128621   1.507   4.807  15.764 -0.2649 -0.0442  1.5823
 2402TIP3    H228622   1.358   4.790  15.786 -0.2916 -1.4269  0.4440
 2403TIP3   OH228623   0.449   5.567  16.827  0.0861 -0.0850 -0.1574
 2403TIP3    H128624   0.451   5.519  16.910  0.3460 -0.5010 -0.3999
 2403TIP3    H228625   0.506   5.517  16.769  0.2935  0.4671 -0.4457
 2404TIP3   OH228626   6.717   3.879   5.176  0.7651 -0.3860  0.5250
 2404TIP3    H128627   6.725   3.974   5.187 -3.0774 -0.0015  1.7402
 2404TIP3    H228628   6.749   3.842   5.259  1.7581 -0.1122  0.2648
 2405TIP3   OH228629   6.668   3.378   6.516  0.0189  0.0232 -0.6956
 2405TIP3    H128630   6.672   3.362   6.421  1.4566 -0.8920 -0.5261
 2405TIP3    H228631   6.624   3.301   6.551  1.1090 -0.5263 -0.4780
 2406TIP3   OH228632   4.479   6.001  12.211  0.3378  0.3263 -0.2562
 2406TIP3    H128633   4.486   5.906  12.198 -0.3582  0.0779  0.9592
 2406TIP3    H228634   4.508   6.014  12.302 -0.8865  1.0825  0.0469
 2407TIP3   OH228635   1.407   3.314  15.990  0.7333  0.0913  0.0369
 2407TIP3    H128636   1.381   3.281  16.076  1.3445 -5.1556 -1.4458
 2407TIP3    H228637   1.502   3.323  15.994  0.6971  0.5265  0.0456
 2408TIP3   OH228638   1.698   5.746   2.599 -0.0419 -0.3111  0.1862
 2408TIP3    H128639   1.605   5.758   2.580  0.0537  0.4516  0.1863
 2408TIP3    H228640   1.700   5.724   2.693 -0.2491 -0.7920  0.0849
 2409TIP3   OH228641   4.394   3.685   0.251  0.0952  0.1239  0.3624
 2409TIP3    H128642   4.438   3.704   0.334 -1.6692  1.7582  0.9894
 2409TIP3    H228643   4.324   3.623   0.275 -0.1215  0.2331  0.0161
 2410TIP3   OH228644   4.405   4.346   3.509  0.0263  0.2563  0.1079
 2410TIP3    H128645   4.465   4.355   3.435  0.3933  0.3955  0.4187
 2410TIP3    H228646   4.457   4.304   3.578 -0.5497 -0.6533  0.0072
 2411TIP3   OH228647   4.817   3.662   1.726  1.0952  0.1318  0.0576
 2411TIP3    H128648   4.729   3.693   1.747  1.4364 -0.3527  2.5068
 2411TIP3    H228649   4.809   3.625   1.639 -1.0849  0.2965  0.1306
 2412TIP3   OH228650   3.705   4.316   1.298  0.1442  0.4955 -0.9450
 2412TIP3    H128651   3.665   4.229   1.302 -0.9518  0.8789 -2.6480
 2412TIP3    H228652   3.634   4.377   1.319  0.5708  1.0504 -1.0855
 2413TIP3   OH228653   3.906   0.077  12.669  0.5428 -0.1423  0.2058
 2413TIP3    H128654   3.924   0.150  12.728  1.5792 -0.7701  0.7052
 2413TIP3    H228655   3.826   0.037  12.702  0.2579  0.4505  0.2362
 2414TIP3   OH228656   2.319   6.738  15.040  0.4132  0.6558 -0.0343
 2414TIP3    H128657   2.324   6.659  15.093  0.2335  1.1888  0.7967
 2414TIP3    H228658   2.257   6.717  14.971 -1.1403  0.7047  1.3031
 2415TIP3   OH228659   2.042   2.812  14.184 -0.7981  0.3971 -0.6129
 2415TIP3    H128660   2.016   2.799  14.093  0.6347 -0.1475 -0.9687
 2415TIP3    H228661   2.052   2.907  14.192 -1.1969  0.4707 -0.9369
 2416TIP3   OH228662   5.248   1.358   0.444 -0.3958 -0.5100  0.1611
 2416TIP3    H128663   5.321   1.302   0.471 -0.7137 -0.5029  1.0570
 2416TIP3    H228664   5.185   1.352   0.516  0.4350  2.5874  1.2888
 2417TIP3   OH228665   1.384   5.459   3.977 -0.2993 -0.2490 -0.2542
 2417TIP3    H128666   1.398   5.397   4.049  0.5182 -0.0565 -0.2455
 2417TIP3    H228667   1.310   5.512   4.006  1.4946  1.4242  1.5823
 2418TIP3   OH228668   3.942   2.166  10.571 -0.2145 -0.1658 -0.2009
 2418TIP3    H128669   4.021   2.214  10.550 -1.1626  1.0363 -1.1707
 2418TIP3    H228670   3.936   2.169  10.666  0.8527 -0.2310 -0.1206
 2419TIP3   OH228671   0.412   4.624  11.519  0.3961 -0.0617 -0.0668
 2419TIP3    H128672   0.341   4.572  11.556 -0.0372  1.4916  1.4398
 2419TIP3    H228673   0.386   4.715  11.535  1.6277  0.6085 -1.6138
 2420TIP3   OH228674   4.069   2.517   2.030  0.2525 -0.2209 -0.2428
 2420TIP3    H128675   4.060   2.611   2.013  0.3057  0.2389  1.9900
 2420TIP3    H228676   4.065   2.509   2.125 -0.3137 -2.5630 -0.3971
 2421TIP3   OH228677   3.564   4.953   1.172 -0.5294 -0.2628 -0.2813
 2421TIP3    H128678   3.499   4.891   1.141  0.9517 -1.5834 -0.8401
 2421TIP3    H228679   3.518   5.038   1.171 -2.0048 -1.0311 -1.3173
 2422TIP3   OH228680   3.270   3.829   0.738 -0.4285  0.5372 -0.2461
 2422TIP3    H128681   3.232   3.741   0.743 -1.6114  1.0941  2.3512
 2422TIP3    H228682   3.358   3.816   0.703 -1.2336 -1.4299 -1.6939
 2423TIP3   OH228683   2.103   2.031   5.532  0.2757 -0.1123 -0.2062
 2423TIP3    H128684   2.195   2.042   5.509 -0.1485 -0.0888 -2.0707
 2423TIP3    H228685   2.056   2.050   5.450 -1.4173  0.5060  0.8654
 2424TIP3   OH228686   1.350   5.965  16.293  0.4276 -0.4005  0.2225
 2424TIP3    H128687   1.403   5.891  16.265 -0.1765 -1.2375  1.2283
 2424TIP3    H228688   1.372   6.035  16.231  2.9825 -0.5732  0.8358
 2425TIP3   OH228689   3.260   0.161   2.168  0.5197  0.2469 -0.6512
 2425TIP3    H128690   3.303   0.110   2.099  0.3697 -2.0629  0.8236
 2425TIP3    H228691   3.277   0.111   2.248 -2.5004  0.7387  0.4301
 2426TIP3   OH228692   0.084   5.657   4.361  0.1069  0.5192  0.0865
 2426TIP3    H128693   0.024   5.588   4.390  2.1831 -1.6910 -0.4587
 2426TIP3    H228694   0.070   5.662   4.266  0.9915 -0.2997 -0.1066
 2427TIP3   OH228695   1.729   5.435  11.680 -0.3275 -0.1081 -0.3271
 2427TIP3    H128696   1.733   5.460  11.773 -1.0577 -0.1172 -0.2832
 2427TIP3    H228697   1.636   5.444  11.658  0.0811  1.5269 -1.5153
 2428TIP3   OH228698   6.632   1.069  16.161  0.5589  0.1131 -0.0007
 2428TIP3    H128699   6.635   1.114  16.077  1.5416  0.6067  0.2869
 2428TIP3    H228700   6.687   0.992  16.149  1.0049  0.3791  0.2899
 2429TIP3   OH228701   3.497   1.744   0.449 -0.2828 -0.5016  0.1324
 2429TIP3    H128702   3.578   1.707   0.484  0.2243  0.6496  0.2114
 2429TIP3    H228703   3.451   1.669   0.411 -0.3756 -1.6280  2.2923
 2430TIP3   OH228704   5.458   3.206  12.278 -0.3770 -0.1463 -0.0762
 2430TIP3    H128705   5.495   3.133  12.228 -0.1851  0.7256 -1.2272
 2430TIP3    H228706   5.430   3.165  12.361  1.3682 -1.1992  0.0691
 2431TIP3   OH228707   4.811   0.454   5.361 -0.1166  0.3987  0.1199
 2431TIP3    H128708   4.745   0.418   5.421  0.0574  0.6224  0.4488
 2431TIP3    H228709   4.763   0.469   5.280 -0.5254  0.7367  0.4129
 2432TIP3   OH228710   3.296   1.225   3.811  0.0269  0.4095  0.4042
 2432TIP3    H128711   3.301   1.185   3.898 -0.8159  1.5984  1.0317
 2432TIP3    H228712   3.273   1.152   3.753  0.2311 -0.3321  1.2278
 2433TIP3   OH228713   0.013   5.012  13.132  0.4332  0.2900  0.3129
 2433TIP3    H128714   0.014   5.088  13.191  0.2679 -0.2350  1.0140
 2433TIP3    H228715  -0.045   4.949  13.176  1.9177 -0.9131  0.6172
 2434TIP3   OH228716   1.533   5.140   4.673 -0.1934  0.0954  0.1529
 2434TIP3    H128717   1.589   5.099   4.607 -0.1075 -1.8542  1.3403
 2434TIP3    H228718   1.589   5.148   4.751  0.1349  3.6422 -0.3068
 2435TIP3   OH228719   5.335   0.646  14.296 -0.2360 -0.0137  0.2327
 2435TIP3    H128720   5.399   0.577  14.286 -1.2641 -1.1582  1.2262
 2435TIP3    H228721   5.383   0.718  14.337 -0.0498 -1.7034  3.2441
 2436TIP3   OH228722   5.653   2.580   4.238  0.2467 -0.3837 -0.2097
 2436TIP3    H128723   5.644   2.638   4.314  0.8441  0.4096 -0.7237
 2436TIP3    H228724   5.735   2.608   4.197 -0.5540 -0.1319 -1.6932
 2437TIP3   OH228725   2.164   5.879  13.914  0.5585  0.4646  0.4288
 2437TIP3    H128726   2.243   5.826  13.904  0.2445  0.0599  0.0701
 2437TIP3    H228727   2.194   5.970  13.903  0.8413  0.2650 -0.4787
 2438TIP3   OH228728   0.498   0.591  14.158 -0.2200 -0.1849  0.3108
 2438TIP3    H128729   0.592   0.597  14.141 -0.5558  0.9171 -1.4798
 2438TIP3    H228730   0.484   0.500  14.185  1.1474 -0.8065 -0.9358
 2439TIP3   OH228731   5.911   5.691   3.137 -0.5666 -0.4918  0.0078
 2439TIP3    H128732   5.917   5.768   3.193  0.3614 -0.4525 -0.1340
 2439TIP3    H228733   5.974   5.708   3.066 -0.9047 -1.0412 -0.4301
 2440TIP3   OH228734   4.891   5.770   4.428 -0.5165  0.8596  0.1772
 2440TIP3    H128735   4.897   5.756   4.333  3.4395  0.0558  0.3714
 2440TIP3    H228736   4.865   5.685   4.463 -0.9802  0.8794 -0.1084
 2441TIP3   OH228737   5.183   6.730   4.314 -0.1517  0.2038 -0.9321
 2441TIP3    H128738   5.152   6.769   4.232 -1.1662  2.6999  0.5141
 2441TIP3    H228739   5.269   6.694   4.292  0.0822  1.7344 -2.8649
 2442TIP3   OH228740   5.872   0.568  16.229 -0.3959 -0.0815  0.8062
 2442TIP3    H128741   5.887   0.643  16.287 -0.0624 -0.9699  1.8817
 2442TIP3    H228742   5.799   0.521  16.270  2.0660 -2.6722  2.5382
 2443TIP3   OH228743   3.464   4.325   3.957 -0.6157 -0.2622  0.3575
 2443TIP3    H128744   3.536   4.265   3.937 -1.3912 -0.6425 -1.4999
 2443TIP3    H228745   3.398   4.271   4.000  0.5505  0.2970  3.0197
 2444TIP3   OH228746   0.896   5.859   3.025 -0.3677  1.0746  0.2813
 2444TIP3    H128747   0.983   5.875   2.988 -0.0270 -2.1142 -0.5706
 2444TIP3    H228748   0.836   5.869   2.951 -0.3277  0.2068  0.1178
 2445TIP3   OH228749   6.395   2.710  13.954 -0.2680 -0.1271  0.2992
 2445TIP3    H128750   6.478   2.690  13.996 -0.2589 -1.0606 -0.1547
 2445TIP3    H228751   6.336   2.641  13.982 -1.0085  0.7217  0.9023
 2446TIP3   OH228752   1.255   2.770   4.010 -0.3518  0.3811 -0.0432
 2446TIP3    H128753   1.208   2.815   3.940  0.2305 -0.3880 -0.9636
 2446TIP3    H228754   1.277   2.838   4.073 -0.7238  1.1221 -0.7033
 2447TIP3   OH228755   2.730   4.344  14.948 -0.2834 -0.6251  0.5495
 2447TIP3    H128756   2.749   4.293  14.870  1.4752 -1.5235  1.5111
 2447TIP3    H228757   2.641   4.318  14.973  0.3005 -2.7237  0.6123
 2448TIP3   OH228758   5.111   6.075   5.385  0.1709  0.1523  0.0807
 2448TIP3    H128759   5.162   6.114   5.456 -1.5769  1.8649  0.4638
 2448TIP3    H228760   5.033   6.129   5.378 -1.1106 -1.7312 -1.2119
 2449TIP3   OH228761   4.538   5.667   0.290  0.2443 -0.5956  0.2617
 2449TIP3    H128762   4.482   5.631   0.221  2.1034 -2.1643 -0.5046
 2449TIP3    H228763   4.588   5.736   0.246 -0.7617  0.5708  0.8660
 2450TIP3   OH228764   1.728   6.246  11.639  0.2931  0.1614 -0.6480
 2450TIP3    H128765   1.705   6.308  11.708 -2.1770 -1.4374  0.1411
 2450TIP3    H228766   1.823   6.237  11.644  0.2046 -0.0454  2.7347
 2451TIP3   OH228767   5.662   3.805   1.703 -0.2092  0.4861  0.1088
 2451TIP3    H128768   5.660   3.897   1.731 -0.6679  0.1106  1.3827
 2451TIP3    H228769   5.585   3.795   1.647 -0.3787  0.7779  0.2898
 2452TIP3   OH228770   6.235   1.025   3.715  0.6316 -0.1220  0.1508
 2452TIP3    H128771   6.192   1.109   3.731  3.0698  0.8288  2.4027
 2452TIP3    H228772   6.302   1.046   3.650  0.8883 -0.4391  0.3135
 2453TIP3   OH228773   0.073   2.724  11.870 -0.1525  0.3014 -0.0492
 2453TIP3    H128774   0.168   2.731  11.859 -0.1853 -1.0480 -1.4300
 2453TIP3    H228775   0.039   2.804  11.829  0.3313  0.2842 -0.5022
 2454TIP3   OH228776   3.312   4.896   0.002 -0.4998  0.4493 -0.4878
 2454TIP3    H128777   3.288   4.946   0.080 -0.5677  1.8877 -1.3829
 2454TIP3    H228778   3.303   4.804   0.028  1.8391  0.7869  1.9226
 2455TIP3   OH228779   2.578   5.552  11.680 -0.0324 -0.1173 -0.7535
 2455TIP3    H128780   2.580   5.462  11.712  2.1506  0.6044  1.4727
 2455TIP3    H228781   2.663   5.565  11.638 -0.1451  1.0273 -0.6690
 2456TIP3   OH228782   6.734   4.531  14.163 -0.0097  0.0090 -0.4429
 2456TIP3    H128783   6.798   4.502  14.098 -0.0518  2.0922 -1.5103
 2456TIP3    H228784   6.709   4.619  14.134 -1.4220  0.2745  1.3938
 2457TIP3   OH228785   3.409   0.850   5.567  0.9607  0.4059 -0.0573
 2457TIP3    H128786   3.490   0.807   5.593  0.4952 -0.2635  0.2918
 2457TIP3    H228787   3.342   0.816   5.627  0.3895  0.8328 -0.4363
 2458TIP3   OH228788   0.564   5.996   4.977 -0.4218 -0.0232 -0.4332
 2458TIP3    H128789   0.556   5.905   4.949  2.7715  0.0126 -1.9278
 2458TIP3    H228790   0.657   6.016   4.966 -0.8307  3.1253  0.8546
 2459TIP3   OH228791   1.191   1.949  11.226 -0.4259 -0.0472 -0.6047
 2459TIP3    H128792   1.187   1.880  11.160  0.6878  0.7575 -1.5647
 2459TIP3    H228793   1.207   1.903  11.308  1.8754 -0.8776 -1.4379
 2460TIP3   OH228794   0.913   4.743   4.875 -0.1628 -0.0089  0.7093
 2460TIP3    H128795   0.934   4.836   4.878  2.0215 -0.3852 -0.9372
 2460TIP3    H228796   0.958   4.706   4.951 -0.4820  0.1433  0.9804
 2461TIP3   OH228797   5.990   0.245  14.371  0.5644  0.1458  0.0898
 2461TIP3    H128798   6.034   0.317  14.327  0.7171  0.9140  1.4356
 2461TIP3    H228799   6.057   0.177  14.378  0.5101 -0.0258 -0.9018
 2462TIP3   OH228800   5.831   4.722   4.812  0.1247  0.3100  0.0827
 2462TIP3    H128801   5.769   4.755   4.747 -0.3183 -1.7170 -0.6050
 2462TIP3    H228802   5.786   4.649   4.854  1.9926 -1.2733 -0.4782
 2463TIP3   OH228803   6.447   0.985  14.571  0.0833 -0.1442  0.5448
 2463TIP3    H128804   6.538   1.010  14.554  0.1045  0.6041  1.6818
 2463TIP3    H228805   6.395   1.055  14.532  0.0233 -0.0886  0.7262
 2464TIP3   OH228806   2.513   4.560   2.267 -0.0714 -0.4136 -0.1141
 2464TIP3    H128807   2.603   4.561   2.233 -0.8092 -0.2433 -2.1910
 2464TIP3    H228808   2.458   4.574   2.190 -1.8272  1.3829  1.3740
 2465TIP3   OH228809   0.785   4.132  14.014  0.2592 -0.0006 -0.4021
 2465TIP3    H128810   0.703   4.088  13.993 -0.4325  0.3896  1.2956
 2465TIP3    H228811   0.784   4.141  14.109  0.7457  2.8870 -0.5774
 2466TIP3   OH228812   2.829   0.876  15.069  0.5587  0.2724  0.4772
 2466TIP3    H128813   2.804   0.785  15.053  1.0128  0.2950 -0.4057
 2466TIP3    H228814   2.924   0.872  15.083  1.2754  0.9932 -3.1821
 2467TIP3   OH228815   5.001   6.526  13.400  0.0773 -0.3544  0.1548
 2467TIP3    H128816   5.080   6.496  13.355 -0.2230 -0.5502 -0.2500
 2467TIP3    H228817   5.004   6.483  13.486 -0.1918 -1.3138 -0.3009
 2468TIP3   OH228818   0.920   5.479   4.987 -0.3947 -0.4624  0.1848
 2468TIP3    H128819   0.918   5.526   4.903  0.1988 -3.7115 -1.8401
 2468TIP3    H228820   0.828   5.461   5.006 -0.5989  1.0469  0.7745
 2469TIP3   OH228821   5.276   3.458  16.666  0.0968 -0.7161  0.4855
 2469TIP3    H128822   5.263   3.443  16.572  1.1489 -1.8897  0.4928
 2469TIP3    H228823   5.340   3.392  16.692  0.2349 -0.0590  1.9294
 2470TIP3   OH228824   3.682   3.970  15.425 -0.3381 -0.5301 -1.0139
 2470TIP3    H128825   3.751   3.921  15.468  0.2754  1.5155  0.4887
 2470TIP3    H228826   3.709   4.062  15.433 -2.0987  0.1812 -2.4393
 2471TIP3   OH228827   5.351   2.016  16.825 -0.1483 -0.6267 -0.4051
 2471TIP3    H128828   5.306   1.956  16.766 -0.2758 -1.5284  0.5803
 2471TIP3    H228829   5.289   2.031  16.896  1.0959 -1.9809  1.0381
 2472TIP3   OH228830   2.154   1.254   0.885  0.5192 -0.5354  0.0271
 2472TIP3    H128831   2.200   1.208   0.815  1.4219  0.5790 -0.1533
 2472TIP3    H228832   2.170   1.347   0.867 -0.1623 -0.1934  1.0916
 2473TIP3   OH228833   1.756   3.455  14.011 -0.2952  0.0192  0.5233
 2473TIP3    H128834   1.722   3.458  14.100 -1.5587  0.2286  0.0495
 2473TIP3    H228835   1.724   3.536  13.970 -0.3007 -0.4017 -0.3268
 2474TIP3   OH228836   1.700   3.163  10.638  0.1573 -0.3264  0.1591
 2474TIP3    H128837   1.692   3.098  10.569  2.3031  0.2690 -0.7171
 2474TIP3    H228838   1.711   3.246  10.591  1.1019  0.1584  1.1980
 2475TIP3   OH228839   5.294   2.234  15.549  0.0990  0.6858  0.1487
 2475TIP3    H128840   5.263   2.217  15.460  0.6515 -0.8961  0.2287
 2475TIP3    H228841   5.372   2.289  15.536  0.7541 -0.3422 -0.4364
 2476TIP3   OH228842   4.403   3.280  16.302  0.2602 -0.3843 -0.1449
 2476TIP3    H128843   4.351   3.357  16.278 -0.2695  0.1814  2.4272
 2476TIP3    H228844   4.354   3.206  16.266 -0.4781  0.3529 -0.6973
 2477TIP3   OH228845   6.749   4.610  14.960  0.1415  0.5493 -0.1009
 2477TIP3    H128846   6.819   4.668  14.991 -0.3212  0.9601  0.2052
 2477TIP3    H228847   6.719   4.565  15.039 -0.3474  0.8291 -0.1252
 2478TIP3   OH228848   6.662   6.187  12.991  0.2903  0.0087  0.2562
 2478TIP3    H128849   6.601   6.180  12.917 -0.9312 -0.6479  1.2865
 2478TIP3    H228850   6.653   6.105  13.038 -1.4114  1.5476  2.9263
 2479TIP3   OH228851   2.382   6.697   2.072 -0.1828 -0.7210  0.2691
 2479TIP3    H128852   2.327   6.764   2.032 -0.4032 -0.5944  0.7798
 2479TIP3    H228853   2.320   6.635   2.111  0.0288 -0.8884  0.3440
 2480TIP3   OH228854   5.305   1.455   0.719 -0.0545 -0.3764  0.1105
 2480TIP3    H128855   5.298   1.375   0.771  0.3385 -1.2190 -1.1051
 2480TIP3    H228856   5.397   1.460   0.693  0.1679  1.0494  1.0267
 2481TIP3   OH228857   5.072   5.278  13.123  0.0399 -0.0786 -0.2427
 2481TIP3    H128858   5.164   5.298  13.106  0.5520 -2.9357 -1.4557
 2481TIP3    H228859   5.038   5.356  13.165  2.3162  2.1555 -2.2406
 2482TIP3   OH228860   6.503   1.454   4.631  0.8680  0.7377 -1.0696
 2482TIP3    H128861   6.447   1.530   4.614 -2.3044 -1.1089  0.3761
 2482TIP3    H228862   6.474   1.388   4.567  1.5888 -0.1750 -0.4789
 2483TIP3   OH228863   5.039   5.790  12.600  0.3154 -0.3646  0.1133
 2483TIP3    H128864   5.027   5.700  12.631  0.5805 -0.2700  0.5001
 2483TIP3    H228865   5.076   5.837  12.675  0.2597  0.0485 -0.1118
 2484TIP3   OH228866   0.159   0.875  12.224 -0.2405 -0.0769 -0.1261
 2484TIP3    H128867   0.145   0.908  12.312 -0.4450 -1.7177  0.4925
 2484TIP3    H228868   0.244   0.911  12.198 -0.2674  0.5792  0.6610
 2485TIP3   OH228869   3.467   3.132   5.086 -0.0313 -0.8882 -0.3325
 2485TIP3    H128870   3.394   3.193   5.099  0.8021  0.0643 -0.0284
 2485TIP3    H228871   3.447   3.058   5.144  0.4619  0.4668  1.6103
 2486TIP3   OH228872   1.733   0.441   0.322  0.0373 -0.3627  0.0787
 2486TIP3    H128873   1.689   0.434   0.238 -0.3717 -0.2136  0.2791
 2486TIP3    H228874   1.668   0.479   0.381  0.3963 -0.2375  0.4033
 2487TIP3   OH228875   0.757   6.412  16.673  0.2520 -0.7444  0.2916
 2487TIP3    H128876   0.667   6.379  16.674 -0.2254  0.4899 -0.4049
 2487TIP3    H228877   0.810   6.338  16.704 -1.0300 -1.3648  1.0889
 2488TIP3   OH228878   3.487   5.662   2.123  0.5843 -0.5876  0.4049
 2488TIP3    H128879   3.424   5.724   2.086  1.6971  0.0239 -0.5758
 2488TIP3    H228880   3.449   5.635   2.206  0.1944  1.6977  1.0593
 2489TIP3   OH228881   4.097   5.445  17.064 -0.8674  0.4005  0.2546
 2489TIP3    H128882   4.015   5.395  17.067 -0.0714 -0.9974 -0.3079
 2489TIP3    H228883   4.097   5.497  17.144 -0.5650 -2.4114  2.1994
 2490TIP3   OH228884   3.597   3.873   4.663  0.3137  0.4080 -0.3152
 2490TIP3    H128885   3.561   3.959   4.642 -2.9236 -0.6532  0.2424
 2490TIP3    H228886   3.530   3.811   4.634  1.5647 -1.8038  1.1773
 2491TIP3   OH228887   3.104   0.686   0.443  0.3507 -0.5187  0.3918
 2491TIP3    H128888   3.039   0.622   0.473 -1.0791  0.5728 -0.2665
 2491TIP3    H228889   3.189   0.645   0.462 -0.4530 -1.0086  3.4746
 2492TIP3   OH228890   0.979   2.452  12.459  0.0291  0.1196  0.0748
 2492TIP3    H128891   1.064   2.482  12.490  0.0683  0.7118 -0.5801
 2492TIP3    H228892   0.966   2.497  12.375 -0.1547 -1.2836 -0.6926
 2493TIP3   OH228893   0.701   6.477  14.246  0.1378 -0.4139  0.1839
 2493TIP3    H128894   0.715   6.483  14.151  1.3887 -1.3367  0.2816
 2493TIP3    H228895   0.672   6.387  14.260 -0.0312 -0.2824  0.6793
 2494TIP3   OH228896   6.306   2.812   5.127 -0.2137 -0.3723  0.3665
 2494TIP3    H128897   6.362   2.875   5.083  0.6486 -2.2982 -1.4479
 2494TIP3    H228898   6.347   2.799   5.213  0.2819  0.6063  0.2840
 2495TIP3   OH228899   6.123   4.499   6.325 -0.1402 -0.2149  0.0403
 2495TIP3    H128900   6.208   4.516   6.367  0.3245  0.7238 -1.2006
 2495TIP3    H228901   6.121   4.404   6.312 -0.1062 -0.4748  1.7233
 2496TIP3   OH228902   0.445   3.392  16.166  0.5304 -0.1823 -0.3303
 2496TIP3    H128903   0.423   3.338  16.090 -1.3734 -1.3988  0.9993
 2496TIP3    H228904   0.444   3.331  16.240 -1.4800  1.5717  1.1979
 2497TIP3   OH228905   1.389   0.359   3.614 -0.1392  0.1937 -0.1919
 2497TIP3    H128906   1.355   0.449   3.609  0.0683  0.2388 -1.0249
 2497TIP3    H228907   1.423   0.351   3.703  0.3160  1.1199 -0.2667
 2498TIP3   OH228908   6.019   4.455  12.601  0.3820 -0.4674  0.0113
 2498TIP3    H128909   6.008   4.400  12.523  0.2649 -0.5097  0.0575
 2498TIP3    H228910   5.944   4.432  12.656 -1.9078  2.4670 -1.5957
 2499TIP3   OH228911   3.681   0.543  11.191  0.3132 -0.4841 -0.2924
 2499TIP3    H128912   3.730   0.466  11.221  0.5132 -0.0377  0.5742
 2499TIP3    H228913   3.662   0.525  11.099  0.0239 -1.7356 -0.0068
 2500TIP3   OH228914   0.552   0.131  15.195  0.2320 -0.2286 -0.2345
 2500TIP3    H128915   0.630   0.186  15.208  1.2639 -1.5895 -0.4964
 2500TIP3    H228916   0.522   0.112  15.284  0.8487 -0.5854 -0.0970
 2501TIP3   OH228917   4.832   0.910   0.661 -0.2098  0.4504  0.1005
 2501TIP3    H128918   4.899   0.973   0.635 -0.1633  0.7848  1.0105
 2501TIP3    H228919   4.752   0.962   0.670 -0.6161  0.0487 -1.0094
 2502TIP3   OH228920   1.985   5.133   6.516 -0.3480  0.2665  0.6688
 2502TIP3    H128921   1.895   5.125   6.550 -0.0187 -1.9190  1.1674
 2502TIP3    H228922   2.024   5.048   6.533  0.9935  0.2605 -2.0140
 2503TIP3   OH228923   0.750   6.276   6.338  0.4493 -0.1544 -0.0043
 2503TIP3    H128924   0.831   6.254   6.385  1.3496  0.0962 -1.3466
 2503TIP3    H228925   0.772   6.356   6.290 -1.3149  1.1391  1.2408
 2504TIP3   OH228926   1.996   6.655  14.672 -0.2398 -0.0866  0.3130
 2504TIP3    H128927   2.026   6.676  14.761 -1.2679  1.1361  0.3920
 2504TIP3    H228928   1.988   6.559  14.672 -1.3656 -0.0347  1.9248
 2505TIP3   OH228929   4.433   5.004  12.369 -0.5679  0.3493 -0.3974
 2505TIP3    H128930   4.354   5.023  12.317  0.9658  2.1333 -2.2934
 2505TIP3    H228931   4.460   4.917  12.340 -1.2798  0.1449 -0.4829
 2506TIP3   OH228932   4.035   1.568  15.835  0.0787  0.5753 -0.2682
 2506TIP3    H128933   4.069   1.655  15.819 -1.6677  1.2698 -0.4603
 2506TIP3    H228934   4.022   1.530  15.748 -0.3137  0.6051 -0.2256
 2507TIP3   OH228935   4.405   2.111  15.752 -0.9579 -0.2561 -0.2318
 2507TIP3    H128936   4.476   2.129  15.690 -0.1563  0.3209  0.8295
 2507TIP3    H228937   4.376   2.197  15.781 -3.5425 -0.3403 -2.1547
 2508TIP3   OH228938   4.170   2.160  13.117  0.1634 -0.2076 -0.2777
 2508TIP3    H128939   4.146   2.229  13.179  0.1327 -0.2457 -0.2466
 2508TIP3    H228940   4.100   2.096  13.124  0.1012 -0.1587 -0.4353
 2509TIP3   OH228941   1.983   3.433  15.918 -0.3209  0.3711 -0.2809
 2509TIP3    H128942   2.053   3.392  15.968  0.2041 -0.4535 -1.6512
 2509TIP3    H228943   2.024   3.510  15.878 -0.2437 -0.0157 -0.9464
 2510TIP3   OH228944   2.674   1.349  12.298  0.8789  0.4750  0.3450
 2510TIP3    H128945   2.592   1.334  12.251  0.6109 -1.1799  1.2382
 2510TIP3    H228946   2.742   1.329  12.234  0.5397 -0.2007  0.1822
 2511TIP3   OH228947   6.750   1.067  14.523 -0.2799 -0.1062 -0.1823
 2511TIP3    H128948   6.758   1.161  14.506 -1.3880  0.0450  0.1006
 2511TIP3    H228949   6.840   1.034  14.515  0.5827  1.3804  2.1881
 2512TIP3   OH228950   2.722   6.556   3.649  0.3751 -0.6169 -0.1439
 2512TIP3    H128951   2.740   6.465   3.674  1.5412  0.1092  1.8894
 2512TIP3    H228952   2.630   6.569   3.672 -0.3916 -1.7753 -2.2549
 2513TIP3   OH228953   2.294   6.185  12.567  0.0455  0.5696 -0.0453
 2513TIP3    H128954   2.375   6.134  12.562  0.3227  0.7837  1.7441
 2513TIP3    H228955   2.232   6.127  12.611 -0.5012  0.7711 -0.5304
 2514TIP3   OH228956   6.111   1.497  13.375 -0.0668  0.3642  0.2512
 2514TIP3    H128957   6.155   1.427  13.326  0.7288  1.2763 -0.3777
 2514TIP3    H228958   6.021   1.496  13.343  0.3703  0.7642 -1.0696
 2515TIP3   OH228959   0.672   1.030  15.627 -0.2738 -0.9845  0.5192
 2515TIP3    H128960   0.757   0.991  15.648  0.1267 -0.5711 -0.2831
 2515TIP3    H228961   0.671   1.036  15.531 -0.3620  0.8851  0.6070
 2516TIP3   OH228962   5.685   3.269  10.815  0.6589 -0.2146 -0.0159
 2516TIP3    H128963   5.702   3.188  10.864  1.7436  0.2248  0.3639
 2516TIP3    H228964   5.718   3.252  10.727  0.5716 -0.2983 -0.0332
 2517TIP3   OH228965   2.953   6.539  15.081 -0.1367 -0.8567  0.2688
 2517TIP3    H128966   2.912   6.613  15.125  0.8864 -0.5425  0.7252
 2517TIP3    H228967   2.881   6.480  15.061 -1.2819  1.1247 -1.9250
 2518TIP3   OH228968   2.296   5.648  13.468 -0.3168  0.2851  0.1274
 2518TIP3    H128969   2.247   5.712  13.519  0.6131 -0.2787  1.8108
 2518TIP3    H228970   2.387   5.676  13.475 -0.1629  0.1547 -1.1976
 2519TIP3   OH228971   1.124   2.863  15.006 -0.4292  0.0682 -0.1865
 2519TIP3    H128972   1.111   2.865  15.100 -1.0423 -1.7124 -0.1850
 2519TIP3    H228973   1.091   2.947  14.974 -1.4038  0.1713  1.0411
 2520TIP3   OH228974   4.328   3.063  14.205  0.0747  0.1500  0.3296
 2520TIP3    H128975   4.401   3.040  14.263 -0.9668 -1.5299  1.0620
 2520TIP3    H228976   4.360   3.137  14.154  1.7312  0.4391  1.6956
 2521TIP3   OH228977   3.282   3.580  15.115  0.2404 -0.0737  0.5064
 2521TIP3    H128978   3.301   3.488  15.095  3.4482  0.6368 -0.3354
 2521TIP3    H228979   3.259   3.618  15.030  1.5124  0.3994  0.3583
 2522TIP3   OH228980   3.243   0.909  15.717  0.5417  0.0400  0.0884
 2522TIP3    H128981   3.155   0.945  15.724  0.0818 -0.1187 -3.1229
 2522TIP3    H228982   3.300   0.985  15.709  0.6382  0.1277  1.4253
 2523TIP3   OH228983   1.876   3.990  15.556  0.2070  0.3917  0.0551
 2523TIP3    H128984   1.943   4.054  15.583 -0.9978  0.5711  3.0301
 2523TIP3    H228985   1.924   3.908  15.546  0.9161  0.4174  2.5455
 2524TIP3   OH228986   2.943   5.325   3.745 -0.0272  0.1049  0.5356
 2524TIP3    H128987   2.937   5.382   3.669  1.0957  0.2975  0.5837
 2524TIP3    H228988   2.885   5.365   3.810 -0.5132  0.2727  0.0063
 2525TIP3   OH228989   3.970   5.954   2.628  0.8156 -0.2372  0.2579
 2525TIP3    H128990   4.024   6.025   2.595  1.8336  0.1418  2.5750
 2525TIP3    H228991   3.909   5.996   2.689 -2.2549 -0.6372 -2.2732
 2526TIP3   OH228992   1.045   0.341   5.212 -0.2034 -0.6182  0.4048
 2526TIP3    H128993   1.083   0.428   5.219 -0.7845 -0.1671 -1.4262
 2526TIP3    H228994   0.955   0.352   5.242  0.2060 -1.0238  1.8791
 2527TIP3   OH228995   6.554   5.390   1.390  0.0981 -0.0522 -0.2534
 2527TIP3    H128996   6.647   5.395   1.368  0.4249 -0.7735  0.8663
 2527TIP3    H228997   6.553   5.389   1.486 -1.2528  3.3216 -0.1194
 2528TIP3   OH228998   0.079   3.499  14.344 -0.5058  0.9334  0.0170
 2528TIP3    H128999   0.027   3.492  14.265 -1.3470 -1.5599  0.7209
 2528TIP3    H229000   0.127   3.416  14.350 -0.7718  0.8791  2.3031
 2529TIP3   OH229001   4.085   5.733   2.767 -0.4335 -0.0252  0.2533
 2529TIP3    H129002   4.061   5.815   2.725 -0.3417  0.7015  1.5913
 2529TIP3    H229003   4.007   5.706   2.815  0.1223  0.2504  1.3266
 2530TIP3   OH229004   5.062   6.377  11.966 -0.7312  0.0773  0.2774
 2530TIP3    H129005   5.037   6.438  11.896 -1.3954  0.3241  0.7253
 2530TIP3    H229006   4.995   6.388  12.033 -1.3323 -1.7540  0.0180
 2531TIP3   OH229007   6.078   1.238  16.259  0.1911 -0.3891  0.2120
 2531TIP3    H129008   6.094   1.314  16.203  0.5586  0.2590  1.1698
 2531TIP3    H229009   6.043   1.172  16.200  2.1138 -0.3091 -1.1279
 2532TIP3   OH229010   1.976   2.024   4.736  0.0011 -0.4498 -0.4659
 2532TIP3    H129011   2.050   1.981   4.694  0.2669 -2.5615  1.9086
 2532TIP3    H229012   2.013   2.063   4.815 -0.6044  2.7226 -1.6030
 2533TIP3   OH229013   1.012   2.733   3.747 -0.6432 -0.2323 -0.3156
 2533TIP3    H129014   1.006   2.642   3.718 -1.4466 -0.4601  0.5047
 2533TIP3    H229015   0.948   2.739   3.819 -0.5014  0.9424 -0.2739
 2534TIP3   OH229016   4.797   0.861  12.657  0.1582 -0.0324 -0.3026
 2534TIP3    H129017   4.745   0.788  12.622 -0.5228  0.9261 -1.3358
 2534TIP3    H229018   4.873   0.865  12.599  0.7490 -0.5970  0.4151
 2535TIP3   OH229019   2.441   1.487  14.729  0.3971  0.0356 -0.1189
 2535TIP3    H129020   2.382   1.439  14.787 -0.7474  0.7528 -0.6633
 2535TIP3    H229021   2.488   1.418  14.681  0.5048 -0.5461  0.7957
 2536TIP3   OH229022   4.979   0.317   3.083  0.7055 -0.5839 -1.0222
 2536TIP3    H129023   4.918   0.246   3.104  1.4394 -0.5707  1.5236
 2536TIP3    H229024   5.044   0.277   3.025  1.0353 -1.9830  0.2601
 2537TIP3   OH229025   1.003   2.436   3.207  0.1765  0.2711 -0.2452
 2537TIP3    H129026   1.076   2.374   3.198 -1.0773 -1.3091  0.1298
 2537TIP3    H229027   1.039   2.506   3.263  1.5593 -0.1982 -0.4935
 2538TIP3   OH229028   0.841   5.820  15.760  0.0833  0.7495  0.2862
 2538TIP3    H129029   0.849   5.874  15.681  0.5643 -0.9318 -0.8768
 2538TIP3    H229030   0.800   5.878  15.824  0.5193  2.4595 -0.8947
 2539TIP3   OH229031   0.290   5.762  14.648 -0.2833 -0.0813  0.3951
 2539TIP3    H129032   0.274   5.685  14.593  1.2176 -0.6460  0.7148
 2539TIP3    H229033   0.349   5.817  14.596 -1.5886  1.0519  0.0304
 2540TIP3   OH229034   4.884   3.035   5.215 -0.1899 -0.2507 -0.0033
 2540TIP3    H129035   4.859   3.003   5.302 -3.3624 -0.9038 -1.0247
 2540TIP3    H229036   4.901   2.956   5.164  2.5065  0.1430  0.1455
 2541TIP3   OH229037   6.197   4.868   2.740 -0.9214  0.1227  0.0360
 2541TIP3    H129038   6.149   4.846   2.819  0.0082 -0.4430  0.4580
 2541TIP3    H229039   6.191   4.963   2.733  1.6018  0.5801  2.5457
 2542TIP3   OH229040   3.966   2.457   5.894 -0.6362 -0.0625  0.3497
 2542TIP3    H129041   3.927   2.454   5.806 -0.5739 -1.1711  0.3459
 2542TIP3    H229042   3.904   2.410   5.949 -0.8064  0.8636  0.9634
 2543TIP3   OH229043   6.554   1.781   1.790 -0.4046  0.6626 -0.2203
 2543TIP3    H129044   6.622   1.730   1.746 -0.5115  1.3809 -1.2624
 2543TIP3    H229045   6.537   1.735   1.872  1.6260  0.6926  0.2524
 2544TIP3   OH229046   4.143   1.248  16.670 -0.1278  0.2291  0.1073
 2544TIP3    H129047   4.190   1.208  16.743 -0.2340  0.0318  0.0664
 2544TIP3    H229048   4.176   1.203  16.592 -1.6800 -1.1874  0.2162
 2545TIP3   OH229049   0.938   0.687  10.754 -0.1321 -0.2288 -0.0754
 2545TIP3    H129050   0.991   0.720  10.827 -2.1038  0.8679  0.9239
 2545TIP3    H229051   0.921   0.595  10.777  0.0766 -0.1619  0.3556
 2546TIP3   OH229052   6.359   3.125   4.820  0.4971 -0.3547  0.8420
 2546TIP3    H129053   6.404   3.115   4.904 -0.5107 -1.3271  1.2855
 2546TIP3    H229054   6.299   3.050   4.815  0.9916 -0.6874 -1.0412
 2547TIP3   OH229055   5.431   6.717   5.372  0.2412 -0.9209  0.5707
 2547TIP3    H129056   5.355   6.729   5.316  2.3763 -1.1372 -2.5882
 2547TIP3    H229057   5.410   6.639   5.424 -1.6535 -0.9720 -0.1931
 2548TIP3   OH229058   3.078   1.255  14.566  0.1268 -0.0328 -0.1172
 2548TIP3    H129059   3.148   1.211  14.517 -0.5094 -0.8536 -0.3165
 2548TIP3    H229060   3.010   1.188  14.576  0.3520 -0.0000  2.1481
 2549TIP3   OH229061   6.380   1.885  14.263 -0.0177  0.7967 -0.4742
 2549TIP3    H129062   6.402   1.975  14.239 -1.5492  1.6321  1.0385
 2549TIP3    H229063   6.450   1.833  14.224  0.6314  2.5654 -1.8521
 2550TIP3   OH229064   2.647   1.191   3.687 -0.3234 -0.0209  0.8716
 2550TIP3    H129065   2.670   1.156   3.772  2.3179  1.1460  0.7621
 2550TIP3    H229066   2.691   1.133   3.624 -0.1374  0.5542  0.4566
 2551TIP3   OH229067   3.090   2.967   2.913 -0.4684 -0.0477 -0.2159
 2551TIP3    H129068   3.095   2.912   2.835  0.5683  1.5903 -1.3535
 2551TIP3    H229069   3.157   2.932   2.972 -0.9387 -1.0010 -0.2306
 2552TIP3   OH229070   5.923   1.615  13.686 -0.4910 -0.8064  0.4015
 2552TIP3    H129071   5.953   1.527  13.710  0.0389 -0.5724  0.6072
 2552TIP3    H229072   5.851   1.634  13.746 -0.8950 -1.2650  0.0778
 2553TIP3   OH229073   1.051   6.164  16.496  0.1572  0.2254  0.0901
 2553TIP3    H129074   1.029   6.211  16.576 -0.5177 -0.4093  0.2868
 2553TIP3    H229075   0.985   6.191  16.433 -0.0669 -0.2315  0.1230
 2554TIP3   OH229076   0.315   4.812  15.601  0.3018  0.0692 -0.3674
 2554TIP3    H129077   0.381   4.743  15.600 -0.6532 -0.8595 -0.3963
 2554TIP3    H229078   0.317   4.848  15.512  1.7536  1.0340  0.0214
 2555TIP3   OH229079   6.642   3.520   1.554  0.0704  0.3934  0.0764
 2555TIP3    H129080   6.732   3.538   1.579  0.2692 -0.9994  0.4391
 2555TIP3    H229081   6.593   3.524   1.636 -0.1934  1.0064 -0.0999
 2556TIP3   OH229082   3.126   3.437   4.895 -0.0992  0.0406 -0.3792
 2556TIP3    H129083   3.157   3.368   4.836 -0.8573 -0.3010 -0.3967
 2556TIP3    H229084   3.153   3.408   4.982 -2.0808 -1.2947 -0.1470
 2557TIP3   OH229085   4.913   6.268   4.703  0.3815 -0.0565  0.2442
 2557TIP3    H129086   4.956   6.238   4.784 -0.7734 -3.3318 -0.1687
 2557TIP3    H229087   4.820   6.273   4.727 -0.0526 -1.6204 -0.9197
 2558TIP3   OH229088   0.833   0.321  13.238  0.2494  0.2310  0.6093
 2558TIP3    H129089   0.739   0.319  13.258  0.3579 -0.5593  1.0990
 2558TIP3    H229090   0.870   0.250  13.291  1.0598  0.2524  0.0866
 2559TIP3   OH229091   1.530   0.003   5.074  0.3905  0.0588 -0.0025
 2559TIP3    H129092   1.596  -0.047   5.123  2.8729  0.7036 -2.4249
 2559TIP3    H229093   1.506   0.074   5.133  1.7451 -0.3027  1.0553
 2560TIP3   OH229094   3.008   4.438  11.111  0.1332 -0.7624  0.4804
 2560TIP3    H129095   3.032   4.415  11.022  0.9470  0.1442  0.4525
 2560TIP3    H229096   3.076   4.497  11.140 -1.8737  1.7025  0.5107
 2561TIP3   OH229097   4.049   5.314  11.540 -0.0999  0.6598  0.1195
 2561TIP3    H129098   4.067   5.403  11.572 -1.3881  0.9307  0.1398
 2561TIP3    H229099   3.963   5.320  11.499  0.4913 -0.2190 -1.3411
 2562TIP3   OH229100   6.469   4.814  17.051  0.3065 -0.3781  0.4953
 2562TIP3    H129101   6.422   4.886  17.009  0.7189 -0.6433 -0.4425
 2562TIP3    H229102   6.458   4.740  16.991  1.8671 -0.4593  0.2732
 2563TIP3   OH229103   5.492   3.603   4.698 -0.0246  0.3844 -0.2423
 2563TIP3    H129104   5.403   3.567   4.693 -1.3475  3.0061  1.9011
 2563TIP3    H229105   5.525   3.574   4.783 -0.0850  1.8892  0.3290
 2564TIP3   OH229106   3.513   4.916   4.982 -0.6172  0.2711 -0.1933
 2564TIP3    H129107   3.554   4.997   4.952 -2.0106  0.8409 -0.6934
 2564TIP3    H229108   3.503   4.864   4.902 -0.1145 -0.2228  0.0593
 2565TIP3   OH229109   1.199   3.583  10.794  0.8067  0.0451  0.1415
 2565TIP3    H129110   1.183   3.678  10.788 -0.4032 -0.2071 -0.8162
 2565TIP3    H229111   1.225   3.558  10.706  1.1315 -0.5371  0.3995
 2566TIP3   OH229112   4.596   5.655  15.952  0.0007 -0.1764 -0.3770
 2566TIP3    H129113   4.611   5.658  16.047  0.6661 -0.7290 -0.4632
 2566TIP3    H229114   4.513   5.702  15.940  1.2503  2.3343  0.1986
 2567TIP3   OH229115   3.700   2.942   0.678  0.3692  0.8453  0.1342
 2567TIP3    H129116   3.708   3.005   0.749  1.6185  1.1930 -0.2875
 2567TIP3    H229117   3.779   2.955   0.625 -1.0013  1.3359 -1.9379
 2568TIP3   OH229118   1.591   0.616   2.068  0.0862 -0.0340  0.3652
 2568TIP3    H129119   1.515   0.588   2.017  1.2372 -1.4129 -0.6832
 2568TIP3    H229120   1.565   0.604   2.159 -0.9372 -0.5157  0.0156
 2569TIP3   OH229121   6.404   1.333   3.293  0.0387  0.1980  0.2156
 2569TIP3    H129122   6.387   1.263   3.356 -1.3433  0.3437  0.0456
 2569TIP3    H229123   6.343   1.315   3.221  0.5577  0.8615 -0.4056
 2570TIP3   OH229124   4.378   4.786  13.239 -0.0447 -0.6228 -0.5256
 2570TIP3    H129125   4.317   4.720  13.205 -1.0920  0.1276 -0.1602
 2570TIP3    H229126   4.465   4.751  13.219 -0.5770 -2.0293 -0.4745
 2571TIP3   OH229127   5.682   0.384  14.359 -0.5855  0.0700  0.3231
 2571TIP3    H129128   5.664   0.372  14.452  0.7932 -0.4425  0.5481
 2571TIP3    H229129   5.600   0.419  14.323 -1.0499  0.5324  1.7647
 2572TIP3   OH229130   2.317   0.927   2.115 -0.6182 -0.7866 -0.4528
 2572TIP3    H129131   2.395   0.980   2.101 -1.1905  0.3471  0.4509
 2572TIP3    H229132   2.249   0.971   2.065 -1.2526 -0.2368  0.8314
 2573TIP3   OH229133   1.218   6.312   3.379  0.3180  0.2992  0.1142
 2573TIP3    H129134   1.146   6.251   3.395  0.9589 -0.5462 -0.1559
 2573TIP3    H229135   1.225   6.318   3.284  1.8824 -1.2381  0.0648
 2574TIP3   OH229136   6.079   3.903  14.790  0.3268 -0.1454 -0.3471
 2574TIP3    H129137   6.007   3.964  14.801  1.3001  0.8258  0.9535
 2574TIP3    H229138   6.052   3.824  14.837 -1.0822 -0.9209 -2.3221
 2575TIP3   OH229139   1.729   4.436   0.789  0.4627 -0.1609  0.1944
 2575TIP3    H129140   1.807   4.390   0.822  0.2393  0.7000  2.0731
 2575TIP3    H229141   1.755   4.528   0.785  0.7302 -0.2563 -3.0147
 2576TIP3   OH229142   1.968   3.527   5.261 -0.4294 -0.7910 -0.1600
 2576TIP3    H129143   2.046   3.542   5.315 -0.2997 -1.7400 -0.0539
 2576TIP3    H229144   1.987   3.572   5.179  0.1527 -0.8357 -0.0594
 2577TIP3   OH229145   5.628   4.637  14.490 -0.5394 -0.2699 -0.1540
 2577TIP3    H129146   5.647   4.547  14.517  1.9168 -0.0982 -1.1268
 2577TIP3    H229147   5.546   4.630  14.440 -0.2925 -1.9880 -0.3744
 2578TIP3   OH229148   5.684   1.286   2.289  0.2210  0.6065  0.1897
 2578TIP3    H129149   5.597   1.324   2.273  0.2159  0.3718 -0.3641
 2578TIP3    H229150   5.665   1.197   2.319  0.2486  0.8561  0.9719
 2579TIP3   OH229151   3.877   5.057  12.565 -0.4470  0.4911  0.0015
 2579TIP3    H129152   3.875   5.122  12.635 -1.9563 -0.6759  1.1018
 2579TIP3    H229153   3.787   5.025  12.559  0.1538 -1.1686 -0.8106
 2580TIP3   OH229154   2.260   5.352   2.311 -0.3910  0.0327 -0.4046
 2580TIP3    H129155   2.206   5.369   2.388 -0.8253  0.8156 -0.8728
 2580TIP3    H229156   2.306   5.271   2.332 -1.3797 -0.3963  0.2039
 2581TIP3   OH229157   0.490   1.699   4.374  0.3481 -0.4543  0.4580
 2581TIP3    H129158   0.520   1.698   4.465 -1.0992  0.2613  0.9746
 2581TIP3    H229159   0.490   1.791   4.350  0.3287 -0.6052 -0.1351
 2582TIP3   OH229160   3.422   5.965   3.328 -0.7935  0.4994 -0.1839
 2582TIP3    H129161   3.396   6.008   3.246  3.2138  1.1930 -1.2878
 2582TIP3    H229162   3.444   5.876   3.303  1.1144  0.9025 -0.0937
 2583TIP3   OH229163   6.349   0.099  15.458 -0.3972  0.4402  0.0526
 2583TIP3    H129164   6.303   0.142  15.530  1.8149  0.5665  1.4917
 2583TIP3    H229165   6.305   0.130  15.379 -0.7950  2.9703  1.1774
 2584TIP3   OH229166   2.111   5.803   0.374  0.3130  0.2086 -0.1785
 2584TIP3    H129167   2.079   5.830   0.460  2.1705 -1.0228  0.9498
 2584TIP3    H229168   2.204   5.823   0.375  0.3564  0.3011 -1.9837
 2585TIP3   OH229169   1.320   1.564  11.227 -0.5491 -0.2806 -0.0869
 2585TIP3    H129170   1.329   1.628  11.298  1.1770  0.3332 -0.8220
 2585TIP3    H229171   1.260   1.606  11.165  0.2348  0.4640 -0.3624
 2586TIP3   OH229172   0.954   3.197   4.769 -0.2545  0.0681  0.6183
 2586TIP3    H129173   0.896   3.148   4.711 -1.5601  0.7908  1.2638
 2586TIP3    H229174   0.895   3.240   4.831  1.0725 -0.5082  2.3600
 2587TIP3   OH229175   1.576   6.343   5.182  0.2811  0.5058  0.3207
 2587TIP3    H129176   1.529   6.334   5.265  1.9148 -0.4673  1.2046
 2587TIP3    H229177   1.508   6.344   5.115 -1.0451  0.6413  1.6359
 2588TIP3   OH229178   2.664   3.845   1.232  0.1681  0.3992  0.4293
 2588TIP3    H129179   2.753   3.810   1.224 -0.2658 -1.4425  2.6047
 2588TIP3    H229180   2.613   3.793   1.169  0.3877  0.5570  0.1172
 2589TIP3   OH229181   2.911   0.253  11.744  0.5101  0.0937  0.6750
 2589TIP3    H129182   2.980   0.193  11.771  1.3423  0.8601  0.3263
 2589TIP3    H229183   2.951   0.306  11.675 -0.4272  0.5559  0.4667
 2590TIP3   OH229184   0.689   4.116  15.691  0.0752 -0.0768 -0.0607
 2590TIP3    H129185   0.599   4.138  15.668  0.0662 -0.8901 -0.8371
 2590TIP3    H229186   0.733   4.201  15.699 -0.3308  0.2854 -1.4420
 2591TIP3   OH229187   0.666   2.573   5.047  0.3659  0.2593 -0.2043
 2591TIP3    H129188   0.591   2.539   5.095 -1.2953  0.6963 -2.2856
 2591TIP3    H229189   0.706   2.496   5.006 -1.6370  0.3179 -2.5509
 2592TIP3   OH229190   5.056   2.282  17.213 -0.2197  0.0826  0.3743
 2592TIP3    H129191   5.063   2.209  17.274 -0.1631 -0.8668 -0.7242
 2592TIP3    H229192   5.145   2.316  17.206 -0.2083  0.1273  0.7382
 2593TIP3   OH229193   1.034   1.185   5.833 -0.3251  0.0917 -0.5680
 2593TIP3    H129194   0.988   1.125   5.775 -0.9337  1.2993 -1.3858
 2593TIP3    H229195   1.125   1.183   5.803 -0.0806 -1.2988  0.1920
 2594TIP3   OH229196   5.178   5.844   0.651 -0.0716  0.4584 -0.4694
 2594TIP3    H129197   5.142   5.755   0.650  1.3535 -0.2683  2.4910
 2594TIP3    H229198   5.100   5.900   0.647 -1.2270 -0.9788  0.5910
 2595TIP3   OH229199   2.341   5.401  15.846  0.2586  0.0150 -0.0274
 2595TIP3    H129200   2.341   5.485  15.892 -0.0405  0.2457 -0.4398
 2595TIP3    H229201   2.332   5.424  15.753  1.5788 -0.4114 -0.2761
 2596TIP3   OH229202   3.532   4.428   3.218 -0.4347  0.5544  0.1834
 2596TIP3    H129203   3.572   4.342   3.224 -1.1692  0.1748 -0.2453
 2596TIP3    H229204   3.468   4.430   3.289  0.1935  1.0922  0.7554
 2597TIP3   OH229205   6.170   6.690   1.069  0.5402  0.0252 -0.2221
 2597TIP3    H129206   6.187   6.672   1.161 -0.9324 -1.1126 -0.1325
 2597TIP3    H229207   6.074   6.690   1.061  0.6104  1.4085 -1.5159
 2598TIP3   OH229208   2.273   3.403  17.161  0.4770 -0.1190 -0.0673
 2598TIP3    H129209   2.321   3.320  17.163  0.4870 -0.1195 -0.2993
 2598TIP3    H229210   2.305   3.450  17.238  1.4068  0.1880 -0.6211
 2599TIP3   OH229211   4.790   6.377   6.406 -0.3074 -0.0235 -0.0646
 2599TIP3    H129212   4.848   6.435   6.455 -0.8803 -0.8497  1.6764
 2599TIP3    H229213   4.707   6.425   6.401 -0.4642 -0.2369  0.4345
 2600TIP3   OH229214   5.922   6.022   0.127  0.5485 -0.4790  0.1752
 2600TIP3    H129215   5.877   6.023   0.211  0.5452 -1.9960  0.2249
 2600TIP3    H229216   6.010   5.988   0.147  0.5062 -0.9705 -0.4368
 2601TIP3   OH229217   4.902   1.157  15.239  0.1825  0.6008  0.0294
 2601TIP3    H129218   4.944   1.073  15.217 -2.7472 -1.1771  0.6696
 2601TIP3    H229219   4.972   1.222  15.230  2.5109 -1.8404 -0.8378
 2602TIP3   OH229220   1.587   3.550  12.499  0.0525 -0.4026  0.1137
 2602TIP3    H129221   1.526   3.521  12.567  0.0642  0.9101  0.7038
 2602TIP3    H229222   1.541   3.536  12.417 -0.9741  0.4009  0.5427
 2603TIP3   OH229223   6.670   4.304   4.730 -0.2063 -0.0072 -0.1562
 2603TIP3    H129224   6.595   4.336   4.680 -0.5749  0.1751  0.5002
 2603TIP3    H229225   6.655   4.336   4.819  1.3946  1.2856 -0.2998
 2604TIP3   OH229226   4.267   3.953   1.264  0.4619 -0.5679 -0.9668
 2604TIP3    H129227   4.273   4.048   1.280 -0.1476 -0.6547 -0.1918
 2604TIP3    H229228   4.177   3.939   1.235  0.9081 -0.7470 -2.3522
 2605TIP3   OH229229   1.227   3.395   6.800  0.1058 -0.0961 -0.2864
 2605TIP3    H129230   1.251   3.350   6.719 -0.3176 -1.1657  0.1625
 2605TIP3    H229231   1.306   3.441   6.826  0.5155 -0.4786 -0.8291
 2606TIP3   OH229232   4.378   1.203  11.638 -0.9618  0.4293  0.1570
 2606TIP3    H129233   4.300   1.200  11.583 -0.0329  0.7859 -1.2488
 2606TIP3    H229234   4.450   1.184  11.577  0.2305  2.0114  1.0092
 2607TIP3   OH229235   1.122   4.923  13.142 -0.7920 -0.1400  0.3023
 2607TIP3    H129236   1.194   4.861  13.132  0.1617  0.9924  0.0961
 2607TIP3    H229237   1.111   4.962  13.056  1.4787  3.0689  1.2939
 2608TIP3   OH229238   3.157   4.168  12.368  0.1345 -0.4077  0.1116
 2608TIP3    H129239   3.159   4.086  12.318 -0.0320 -0.6723  0.5434
 2608TIP3    H229240   3.161   4.236  12.300 -1.0319 -0.7454 -0.3301
 2609TIP3   OH229241   1.355   5.115  11.440 -0.0723 -0.1513  0.4581
 2609TIP3    H129242   1.396   5.177  11.379  0.6148 -0.4166  0.6467
 2609TIP3    H229243   1.423   5.051  11.459 -1.0093 -1.4285 -0.3491
 2610TIP3   OH229244   0.250   3.773  11.051  0.2157  0.4757  0.0312
 2610TIP3    H129245   0.232   3.774  10.957 -0.8506  0.0882  0.2153
 2610TIP3    H229246   0.343   3.795  11.058  0.7524 -1.2361 -1.2143
 2611TIP3   OH229247   4.039   3.520   6.155  0.3462 -0.1130 -0.0879
 2611TIP3    H129248   4.000   3.434   6.166  1.5131 -0.4174  2.2926
 2611TIP3    H229249   4.134   3.505   6.158  0.5791  1.2953  1.1964
 2612TIP3   OH229250   6.021   1.517  15.250  0.8113 -0.1410  0.2457
 2612TIP3    H129251   6.053   1.603  15.221 -0.0147 -0.3777 -1.4815
 2612TIP3    H229252   6.083   1.455  15.211 -0.3231 -0.4657 -1.1150
 2613TIP3   OH229253   5.346   0.138  16.185 -0.2150  0.6195 -0.4207
 2613TIP3    H129254   5.325   0.089  16.106 -1.4893 -1.0548  0.8778
 2613TIP3    H229255   5.301   0.221  16.175 -1.0674  0.0925 -1.0989
 2614TIP3   OH229256   3.335   5.474  11.461 -0.4637 -0.0955 -0.0005
 2614TIP3    H129257   3.252   5.430  11.482  0.3837 -1.4623  0.6148
 2614TIP3    H229258   3.314   5.567  11.464 -2.2587 -0.4187 -1.0697
 2615TIP3   OH229259   6.290   5.714   2.783 -0.1033 -0.5428  0.2353
 2615TIP3    H129260   6.384   5.729   2.775 -0.1391 -0.6154 -0.4064
 2615TIP3    H229261   6.269   5.657   2.708 -0.8788  0.5092 -0.3744
 2616TIP3   OH229262   2.989   1.150  16.902  0.1378 -0.1302 -0.4292
 2616TIP3    H129263   2.980   1.076  16.963 -0.0693  1.4562  1.5739
 2616TIP3    H229264   2.902   1.162  16.865 -1.0134  1.7046  2.5229
 2617TIP3   OH229265   4.071   6.542  16.959  0.2220 -0.2811 -0.2010
 2617TIP3    H129266   4.022   6.488  16.898 -0.2682  0.8108 -0.8022
 2617TIP3    H229267   4.014   6.548  17.037 -0.9960  1.5618 -1.1570
 2618TIP3   OH229268   6.074   1.397  11.864 -0.7680 -0.0469 -0.4649
 2618TIP3    H129269   6.024   1.478  11.851 -1.5327 -0.3957  0.2568
 2618TIP3    H229270   6.071   1.354  11.778 -1.5509  0.0328 -0.4923
 2619TIP3   OH229271   6.154   1.972  14.757  0.1012  1.0716 -0.3781
 2619TIP3    H129272   6.249   1.973  14.744  0.1498  0.7285 -0.0543
 2619TIP3    H229273   6.119   1.932  14.678  0.2703  0.6527 -0.2437
 2620TIP3   OH229274   4.459   5.708   4.080 -0.3640 -0.1892 -0.3695
 2620TIP3    H129275   4.495   5.697   4.168  2.3359 -0.7903 -1.4727
 2620TIP3    H229276   4.485   5.628   4.033 -3.1328 -0.6324 -1.3348
 2621TIP3   OH229277   1.719   6.414   3.504  0.0578 -0.4265  0.0924
 2621TIP3    H129278   1.735   6.368   3.587 -0.0724 -0.7001 -0.0296
 2621TIP3    H229279   1.625   6.434   3.506  0.2919  0.6547  0.5505
 2622TIP3   OH229280   6.399   4.726  14.514  0.4826 -0.7211  0.3090
 2622TIP3    H129281   6.342   4.654  14.490  0.0275 -0.4289  0.5125
 2622TIP3    H229282   6.347   4.805  14.499 -0.7807 -0.5153  4.4944
 2623TIP3   OH229283   5.693   0.720   5.908 -0.5811  0.3031 -0.6936
 2623TIP3    H129284   5.722   0.766   5.986  1.7112  0.0521 -1.3330
 2623TIP3    H229285   5.741   0.637   5.909 -1.8828 -0.5044 -1.4543
 2624TIP3   OH229286   5.694   2.831   5.513 -0.0607 -0.2780 -0.3668
 2624TIP3    H129287   5.739   2.816   5.597 -0.6966  1.7375  0.3837
 2624TIP3    H229288   5.609   2.788   5.524  0.1739 -0.7365 -0.3077
 2625TIP3   OH229289   1.227   1.114   2.478  0.4012 -0.0286 -0.5186
 2625TIP3    H129290   1.150   1.171   2.477 -0.1218 -0.6844  0.6356
 2625TIP3    H229291   1.297   1.168   2.514 -0.1858 -0.1881  0.9317
 2626TIP3   OH229292   3.513   5.837   2.509  0.0022  0.1858  0.0002
 2626TIP3    H129293   3.601   5.822   2.477 -0.3960  0.4277 -1.2783
 2626TIP3    H229294   3.459   5.772   2.465 -0.5884  0.5676  0.1304
 2627TIP3   OH229295   3.541   2.000   3.631 -0.2717  0.1128 -0.0437
 2627TIP3    H129296   3.506   2.068   3.573  0.3866 -0.2644 -0.8924
 2627TIP3    H229297   3.547   1.922   3.577  2.4609  0.2976 -0.1518
 2628TIP3   OH229298   5.804   1.801  14.318  0.4431 -0.4911 -0.5498
 2628TIP3    H129299   5.721   1.838  14.289  0.6294  0.2289 -0.1763
 2628TIP3    H229300   5.845   1.768  14.238  0.2078 -0.0231 -0.8658
 2629TIP3   OH229301   3.337   5.017   5.195 -0.3417 -0.3593 -0.1364
 2629TIP3    H129302   3.388   4.951   5.148 -0.2034 -0.2203 -0.1817
 2629TIP3    H229303   3.345   4.993   5.287  0.7004  0.2774 -0.0464
 2630TIP3   OH229304   2.768   0.281   1.986  0.1338 -0.8477 -0.1823
 2630TIP3    H129305   2.703   0.238   2.043  1.8954 -2.6133  0.6106
 2630TIP3    H229306   2.764   0.232   1.904  0.4126 -0.9027 -0.1628
 2631TIP3   OH229307   2.228   5.680  11.642 -0.1217  0.2867 -0.4243
 2631TIP3    H129308   2.227   5.759  11.697 -2.0295 -1.8655  3.0034
 2631TIP3    H229309   2.139   5.674  11.607  0.4066  0.3300 -1.8268
 2632TIP3   OH229310   6.523   1.428  14.668  0.2421 -0.1750 -0.2410
 2632TIP3    H129311   6.553   1.482  14.594  0.2554 -0.3144 -0.3374
 2632TIP3    H229312   6.447   1.381  14.634  1.5654 -1.9639 -0.8937
 2633TIP3   OH229313   5.948   5.419   5.814  0.2322  0.4197 -0.0806
 2633TIP3    H129314   5.980   5.332   5.835  0.0393  0.4086  0.1650
 2633TIP3    H229315   5.925   5.458   5.898  0.4105  0.7448 -0.1794
 2634TIP3   OH229316   2.990   2.137  14.746  0.1991  0.0551  0.2437
 2634TIP3    H129317   2.895   2.126  14.755 -0.3503  1.4875 -2.6654
 2634TIP3    H229318   3.012   2.087  14.668  1.8742 -0.2480  0.8806
 2635TIP3   OH229319   0.296   6.203  14.264  0.2586  0.3622  0.7174
 2635TIP3    H129320   0.201   6.206  14.262  0.2003 -0.1256  2.0394
 2635TIP3    H229321   0.321   6.162  14.181 -0.7499 -0.7822  0.9542
 2636TIP3   OH229322   3.527   4.603  12.603  0.2062  0.0818 -0.1548
 2636TIP3    H129323   3.497   4.527  12.553 -0.9536  0.1227  0.4456
 2636TIP3    H229324   3.615   4.620  12.570  0.3715 -1.3286 -0.5158
 2637TIP3   OH229325   5.917   3.485  15.940 -0.1824 -0.0137 -0.1636
 2637TIP3    H129326   5.924   3.576  15.911  0.3322 -0.4444 -1.4547
 2637TIP3    H229327   5.919   3.434  15.859  1.6383 -1.2892  0.6173
 2638TIP3   OH229328   4.707   2.465  11.444 -0.0645  0.0891  0.2037
 2638TIP3    H129329   4.640   2.398  11.455  0.3305 -0.4953 -0.8358
 2638TIP3    H229330   4.666   2.531  11.388  0.1415 -0.1532 -0.2362
 2639TIP3   OH229331   0.063   1.772  13.302  0.2703 -0.1827  0.2901
 2639TIP3    H129332   0.133   1.712  13.325  1.1333 -0.0735 -1.8416
 2639TIP3    H229333   0.106   1.855  13.285 -0.5160  0.1814  0.0077
 2640TIP3   OH229334   1.481   4.349   1.062 -0.0189 -0.0805  0.1420
 2640TIP3    H129335   1.432   4.284   1.112  0.3566 -0.5734 -0.1267
 2640TIP3    H229336   1.500   4.307   0.979  0.3581  0.3165  0.0225
 2641TIP3   OH229337   2.337   2.007  12.118 -0.5427  0.8122  0.1759
 2641TIP3    H129338   2.292   1.950  12.181 -0.0329  1.1491  0.8604
 2641TIP3    H229339   2.326   2.095  12.154 -1.9336  1.2597 -1.2351
 2642TIP3   OH229340   0.333   1.303  13.310  0.4013  0.0964 -0.3501
 2642TIP3    H129341   0.312   1.335  13.222 -0.8252  0.9360  0.2153
 2642TIP3    H229342   0.381   1.221  13.295  1.3219  0.8565 -1.8079
 2643TIP3   OH229343   0.799   2.827   2.286 -0.3200  0.6993 -0.6548
 2643TIP3    H129344   0.764   2.869   2.365 -0.0570  1.1455 -0.7752
 2643TIP3    H229345   0.789   2.733   2.303 -1.1014  0.8026 -0.4664
 2644TIP3   OH229346   4.249   4.304   0.658 -0.3231 -0.0816  0.3075
 2644TIP3    H129347   4.283   4.308   0.747  3.4951  2.0096 -1.0184
 2644TIP3    H229348   4.285   4.222   0.622  1.3432  0.8562 -0.2995
 2645TIP3   OH229349   4.564   4.137   0.916  0.2109  0.4003  0.1909
 2645TIP3    H129350   4.592   4.153   1.006  5.4076 -0.5799 -0.9678
 2645TIP3    H229351   4.629   4.181   0.862 -0.7271 -1.8643 -3.0751
 2646TIP3   OH229352   2.976   5.260  16.542  0.1433 -0.6961  0.5110
 2646TIP3    H129353   2.965   5.295  16.630  2.5714 -2.6289  1.6930
 2646TIP3    H229354   2.888   5.232  16.517 -0.8216  1.0307  1.7455
 2647TIP3   OH229355   1.424   5.109   1.188  0.2435 -0.2850 -1.1303
 2647TIP3    H129356   1.376   5.049   1.131  1.1531 -0.5421 -1.6369
 2647TIP3    H229357   1.415   5.195   1.146  0.2147 -0.3259 -1.2084
 2648TIP3   OH229358   4.359   1.110  13.907  0.2689 -0.2311  0.2299
 2648TIP3    H129359   4.305   1.189  13.901 -0.0261 -0.5299 -2.6910
 2648TIP3    H229360   4.326   1.064  13.984 -0.0258  2.1285  1.5999
 2649TIP3   OH229361   0.502   5.393   0.442 -1.1780 -0.6284  0.3077
 2649TIP3    H129362   0.452   5.334   0.387 -1.5024  0.7707 -0.9674
 2649TIP3    H229363   0.594   5.378   0.418 -1.3507  0.3751 -1.0942
 2650TIP3   OH229364   1.226   0.195  11.593 -0.2313  0.2213 -0.2525
 2650TIP3    H129365   1.305   0.141  11.588 -0.4623 -0.1236 -0.1697
 2650TIP3    H229366   1.165   0.145  11.647 -0.3837  0.6456 -0.0202
 2651TIP3   OH229367   0.981   0.062  14.961 -0.3039 -0.8216  0.3353
 2651TIP3    H129368   0.988  -0.015  15.018  1.4686 -0.5912  0.5074
 2651TIP3    H229369   0.936   0.030  14.883 -1.1260 -1.5904  1.1030
 2652TIP3   OH229370   1.682   2.695   3.483  0.3045 -0.4612 -0.1262
 2652TIP3    H129371   1.661   2.703   3.576  0.0402  0.3098 -0.2433
 2652TIP3    H229372   1.654   2.607   3.459 -1.6914  0.0863  0.0218
 2653TIP3   OH229373   4.714   3.263   4.367 -0.6510  0.1450 -0.5591
 2653TIP3    H129374   4.674   3.201   4.428 -1.5248  1.1006 -0.1192
 2653TIP3    H229375   4.791   3.297   4.413  0.0770 -0.9036 -0.9728
 2654TIP3   OH229376   1.141   1.232   3.496 -0.1303  0.7666 -0.5105
 2654TIP3    H129377   1.200   1.188   3.556 -0.6769  0.2648 -0.3314
 2654TIP3    H229378   1.159   1.192   3.411  0.2724  1.1067 -0.5891
 2655TIP3   OH229379   4.102   6.577  11.330  0.2453  0.1139  0.0751
 2655TIP3    H129380   4.161   6.530  11.390 -1.2709 -1.0421  0.7467
 2655TIP3    H229381   4.059   6.642  11.385  0.5385  0.6177 -0.2937
 2656TIP3   OH229382   2.970   0.427  13.803  0.4537 -0.6103 -0.0730
 2656TIP3    H129383   2.907   0.365  13.837 -0.2375 -0.2241 -0.6208
 2656TIP3    H229384   2.975   0.496  13.870 -1.7724  0.7399 -1.1745
 2657TIP3   OH229385   6.395   5.927  11.305  0.0471  0.5630  0.2073
 2657TIP3    H129386   6.301   5.913  11.296 -0.0244  0.8084  0.5641
 2657TIP3    H229387   6.425   5.940  11.215 -0.4545  1.6582  0.1803
 2658TIP3   OH229388   2.659   2.635   6.616 -0.1640 -0.4519 -0.2347
 2658TIP3    H129389   2.638   2.709   6.674 -3.0957 -2.3673  1.4104
 2658TIP3    H229390   2.700   2.570   6.673  1.3055 -0.5898 -1.3993
 2659TIP3   OH229391   4.491   6.013   0.515 -0.3236 -0.2971 -0.1162
 2659TIP3    H129392   4.510   5.919   0.516  1.4065  0.0122  1.8460
 2659TIP3    H229393   4.459   6.030   0.426  0.2093 -2.5581 -0.8004
 2660TIP3   OH229394   3.742   1.813  13.936 -0.4301  0.1423  0.2603
 2660TIP3    H129395   3.699   1.840  14.017 -0.6290 -1.9639  0.9294
 2660TIP3    H229396   3.751   1.718  13.945 -2.4109 -0.5203 -3.0832
 2661TIP3   OH229397   1.829   3.026   4.514  0.6733  0.1252 -0.3149
 2661TIP3    H129398   1.733   3.028   4.511  0.5752  2.1662  1.6245
 2661TIP3    H229399   1.855   3.117   4.502  2.2982 -0.1740  0.7164
 2662TIP3   OH229400   0.863   3.540  12.641 -0.4568  0.1817 -0.6634
 2662TIP3    H129401   0.788   3.582  12.599  0.4858  2.5526 -0.1366
 2662TIP3    H229402   0.939   3.583  12.603  0.5480 -0.4189  0.5922
 2663TIP3   OH229403   2.840   4.889  11.636 -0.1011 -0.0051  0.0181
 2663TIP3    H129404   2.763   4.921  11.588 -0.2406 -0.3263  0.0208
 2663TIP3    H229405   2.874   4.965  11.682  0.4530  0.4790 -1.1476
 2664TIP3   OH229406   0.853   5.420   1.315 -0.0003  0.2224 -0.5449
 2664TIP3    H129407   0.776   5.462   1.276 -0.9530 -0.9771 -0.0154
 2664TIP3    H229408   0.885   5.361   1.247 -2.8197 -3.3703  0.8593
 2665TIP3   OH229409   5.734   2.244  12.262 -0.5098 -0.1980  0.1201
 2665TIP3    H129410   5.802   2.310  12.275 -0.1843 -0.5412  0.1702
 2665TIP3    H229411   5.735   2.193  12.343 -0.9550 -0.0891  0.1970
 2666TIP3   OH229412   1.446   1.378   4.450  1.0453 -0.0520  0.7476
 2666TIP3    H129413   1.389   1.439   4.496  0.3008  0.1315 -0.3678
 2666TIP3    H229414   1.438   1.296   4.499 -2.0395 -0.7236 -0.6353
 2667TIP3   OH229415   0.061   4.459   2.866  0.1649  0.1731 -0.1896
 2667TIP3    H129416   0.089   4.381   2.913  1.4648  0.6326 -0.1742
 2667TIP3    H229417   0.002   4.504   2.927  0.3365 -0.1973  0.2530
 2668TIP3   OH229418   6.101   2.039  12.506 -0.1666  0.7952  0.1074
 2668TIP3    H129419   6.021   2.089  12.522 -1.8858 -0.8976 -2.3218
 2668TIP3    H229420   6.069   1.952  12.481  2.5890 -0.8487  1.8447
 2669TIP3   OH229421   4.543   2.706   3.827  0.5590 -0.1769 -0.7613
 2669TIP3    H129422   4.603   2.780   3.835  2.0509 -0.9287 -3.7330
 2669TIP3    H229423   4.598   2.628   3.836 -0.3208 -0.9149 -1.5230
 2670TIP3   OH229424   5.546   5.711  14.570 -0.1792 -0.3793 -0.0582
 2670TIP3    H129425   5.502   5.626  14.569 -0.1685 -0.3895 -1.2760
 2670TIP3    H229426   5.574   5.723  14.661 -0.9122 -1.2915  0.3005
 2671TIP3   OH229427   3.733   6.535  16.957 -0.0213  0.0870  0.2156
 2671TIP3    H129428   3.732   6.444  16.987  0.8809 -0.5528 -1.6130
 2671TIP3    H229429   3.642   6.563  16.964 -0.3496 -1.0260  0.5838
 2672TIP3   OH229430   0.086   0.271   5.280 -0.4181 -0.0499 -0.1023
 2672TIP3    H129431   0.021   0.209   5.314 -0.8020  1.2579  1.7117
 2672TIP3    H229432   0.035   0.348   5.256  0.4027  0.9816  1.3162
 2673TIP3   OH229433   0.790   1.195  11.822  0.1696  0.2977 -0.4861
 2673TIP3    H129434   0.806   1.271  11.877  1.2221 -2.8341  4.0539
 2673TIP3    H229435   0.694   1.187  11.818  0.0714  1.2042 -0.0390
 2674TIP3   OH229436   2.148   4.968  11.272  0.6934  0.4623  0.1748
 2674TIP3    H129437   2.123   5.059  11.255 -0.3936  0.0626 -0.4886
 2674TIP3    H229438   2.066   4.924  11.294  0.9525 -0.6529 -0.9457
 2675TIP3   OH229439   6.651   6.192  12.417 -0.3576 -0.3005  0.1214
 2675TIP3    H129440   6.580   6.188  12.482  1.3485  0.2351  2.1110
 2675TIP3    H229441   6.722   6.140  12.456  0.5993 -0.2678 -1.5045
 2676TIP3   OH229442   4.848   5.281  11.611 -0.0551 -0.4974 -0.5070
 2676TIP3    H129443   4.757   5.251  11.603 -0.0120 -0.6665 -0.3828
 2676TIP3    H229444   4.857   5.303  11.704 -0.1002 -0.0512 -0.6072
 2677TIP3   OH229445   1.615   3.865   0.019  0.2991  0.3342 -0.2947
 2677TIP3    H129446   1.664   3.932   0.067  0.4571  0.4278 -0.5826
 2677TIP3    H229447   1.540   3.846   0.075  0.1352  0.9155 -0.3064
 2678TIP3   OH229448   4.201   1.989   1.051  0.4799 -0.0548  0.2831
 2678TIP3    H129449   4.283   1.997   1.001  1.4629  1.4883  2.0052
 2678TIP3    H229450   4.228   1.944   1.132 -0.7243 -0.9823  0.1842
 2679TIP3   OH229451   1.173   3.626   1.746 -0.3370  0.0606 -0.6595
 2679TIP3    H129452   1.189   3.531   1.744 -0.0845  0.0490  0.7656
 2679TIP3    H229453   1.232   3.658   1.814 -1.6566  0.9929  0.0663
 2680TIP3   OH229454   5.029   3.612   3.285  0.2492 -0.0533 -0.3767
 2680TIP3    H129455   5.098   3.657   3.235 -0.6475  1.0872 -0.6373
 2680TIP3    H229456   4.996   3.679   3.345  1.2393 -1.3543  1.7490
 2681TIP3   OH229457   2.968   3.792   0.023 -0.3636 -0.3109 -0.8193
 2681TIP3    H129458   3.041   3.731   0.017 -0.6640 -0.6153 -1.6845
 2681TIP3    H229459   2.940   3.803  -0.068 -1.8245 -0.7404 -0.4512
 2682TIP3   OH229460   2.372   3.941  14.839 -0.0624 -0.0436 -0.1033
 2682TIP3    H129461   2.459   3.909  14.866  0.1052  0.1514 -0.4046
 2682TIP3    H229462   2.383   4.035  14.830  0.5268 -0.2908 -3.0167
 2683TIP3   OH229463   2.858   6.272  12.110 -0.1145  0.2796  0.2274
 2683TIP3    H129464   2.889   6.356  12.075  0.9027  0.0973  0.6560
 2683TIP3    H229465   2.807   6.296  12.188 -1.1683  0.5888 -0.5349
 2684TIP3   OH229466   2.841   5.763   6.512 -0.1182 -0.3843 -0.3035
 2684TIP3    H129467   2.921   5.734   6.557  0.1112 -0.9853 -1.0720
 2684TIP3    H229468   2.773   5.759   6.578 -0.2402 -3.3638 -0.4926
 2685TIP3   OH229469   6.107   5.208   3.476  0.2261 -0.3696  0.3329
 2685TIP3    H129470   6.127   5.186   3.567  0.2331  1.7648  0.8899
 2685TIP3    H229471   6.192   5.225   3.436  0.5087 -3.8643 -0.8973
 2686TIP3   OH229472   2.845   3.786   1.477 -0.7033  0.1672  0.7597
 2686TIP3    H129473   2.768   3.803   1.531 -0.1925  1.7005  1.0538
 2686TIP3    H229474   2.860   3.868   1.431 -0.5769 -0.8239 -1.0471
 2687TIP3   OH229475   3.552   0.968  15.850  0.2065 -0.1682 -0.1314
 2687TIP3    H129476   3.606   0.890  15.843  1.8931  1.0252 -1.2076
 2687TIP3    H229477   3.474   0.940  15.898 -0.1124 -2.9315 -2.0563
 2688TIP3   OH229478   6.646   0.090   6.230  0.4311  0.0091 -0.3474
 2688TIP3    H129479   6.734   0.070   6.200  0.6559 -0.7784  0.7919
 2688TIP3    H229480   6.651   0.181   6.259  0.4101  0.5234 -1.8751
 2689TIP3   OH229481   4.145   2.888   4.740  0.2338 -0.5975 -0.0965
 2689TIP3    H129482   4.075   2.866   4.801  0.4426 -2.1041 -0.3622
 2689TIP3    H229483   4.187   2.804   4.720  1.8916  0.2155 -0.2132
 2690TIP3   OH229484   6.124   3.974   5.664 -0.5243 -0.2153  0.1096
 2690TIP3    H129485   6.100   3.914   5.594  2.4438 -2.1826  0.5795
 2690TIP3    H229486   6.042   3.992   5.710 -1.9668 -1.6588 -1.7511
 2691TIP3   OH229487   5.001   1.679  16.688 -0.2082  0.5859  0.3116
 2691TIP3    H129488   4.996   1.599  16.636  0.3233  0.6968  0.0741
 2691TIP3    H229489   5.094   1.689  16.707 -0.2345  1.2721  0.1253
 2692TIP3   OH229490   5.366   6.414   5.821  0.3445  0.4656  0.5877
 2692TIP3    H129491   5.407   6.328   5.816 -0.0715  0.2537  0.8341
 2692TIP3    H229492   5.419   6.469   5.763  0.2398 -0.1033 -0.0532
 2693TIP3   OH229493   0.257   4.114  13.880 -0.1027  0.0711 -0.7981
 2693TIP3    H129494   0.267   4.101  13.974 -0.5859  0.7950 -0.6437
 2693TIP3    H229495   0.343   4.091  13.844  0.3076  0.4876 -0.1056
 2694TIP3   OH229496   5.823   2.037   1.173  0.5460 -0.3035 -0.3662
 2694TIP3    H129497   5.861   2.045   1.085 -0.5707 -0.2688 -0.8665
 2694TIP3    H229498   5.830   2.125   1.210 -0.3282  0.0455 -1.0068
 2695TIP3   OH229499   4.017   2.158  11.316  0.5776  0.8158  0.5607
 2695TIP3    H129500   3.943   2.183  11.372  0.1164  0.2466  0.2271
 2695TIP3    H229501   4.060   2.088  11.364  1.3497  1.6405  1.0946
 2696TIP3   OH229502   2.034   6.564   2.199 -0.3787  0.5242 -0.7076
 2696TIP3    H129503   1.972   6.526   2.261  0.8058 -0.8507 -0.2923
 2696TIP3    H229504   2.069   6.641   2.244 -0.7591  0.5054 -0.3762
 2697TIP3   OH229505   6.668   0.664  11.585  0.0468 -0.4821  0.2360
 2697TIP3    H129506   6.751   0.679  11.540  0.9886 -0.1028  1.9716
 2697TIP3    H229507   6.605   0.643  11.516  1.6680 -1.1527 -1.0895
 2698TIP3   OH229508   1.246   4.729   3.050  0.0391  0.2381 -0.0660
 2698TIP3    H129509   1.323   4.697   3.004  0.6256 -0.1791  1.1592
 2698TIP3    H229510   1.260   4.703   3.141 -1.7078 -0.1280  0.1332
 2699TIP3   OH229511   3.355   6.681  14.526 -0.2829 -0.2595  0.2784
 2699TIP3    H129512   3.372   6.708  14.436  0.6451  1.9216  1.0500
 2699TIP3    H229513   3.285   6.616  14.518  0.6121 -1.0395 -2.0831
 2700TIP3   OH229514   0.186   6.529   3.559 -0.3179  0.2924 -0.0180
 2700TIP3    H129515   0.233   6.495   3.484 -0.3658  0.8856 -0.3158
 2700TIP3    H229516   0.242   6.508   3.634  0.1171  0.4395 -0.3014
 2701TIP3   OH229517   3.042   5.661   3.738  0.5161 -0.0466  0.0612
 2701TIP3    H129518   3.120   5.716   3.742 -0.5039  1.4315  0.3173
 2701TIP3    H229519   3.071   5.576   3.772  1.9466  0.5264  0.3484
 2702TIP3   OH229520   6.623   6.187   5.172 -0.3699 -0.1724  0.8254
 2702TIP3    H129521   6.716   6.211   5.165 -0.3738 -0.4088 -0.2170
 2702TIP3    H229522   6.576   6.268   5.152 -0.3800 -0.4917 -0.5124
 2703TIP3   OH229523   2.021   1.765   0.587 -0.0151  0.2289 -0.0729
 2703TIP3    H129524   2.054   1.736   0.502 -1.9973 -1.0363 -0.4944
 2703TIP3    H229525   1.927   1.743   0.585 -0.4544  1.6624  1.8198
 2704TIP3   OH229526   6.323   2.014  14.516 -0.0310  0.3005  0.4903
 2704TIP3    H129527   6.265   2.082  14.481  1.2752  0.7284 -0.9648
 2704TIP3    H229528   6.316   1.942  14.454  0.2049 -0.0566  0.8765
 2705TIP3   OH229529   5.762   2.101   3.315  0.2723  0.5437  0.3681
 2705TIP3    H129530   5.857   2.100   3.304  0.1547  0.7583 -0.7487
 2705TIP3    H229531   5.738   2.194   3.307 -0.2280  0.2969 -1.3108
 2706TIP3   OH229532   0.331   4.351  15.217  0.1910 -0.2375 -0.0665
 2706TIP3    H129533   0.416   4.338  15.175 -0.0637  0.0950 -0.7014
 2706TIP3    H229534   0.267   4.325  15.151 -0.2142  0.1392  0.1686
 2707TIP3   OH229535   4.664   0.863  16.719  0.2566  0.0041 -0.1065
 2707TIP3    H129536   4.726   0.933  16.700 -0.6922  0.7457 -0.5769
 2707TIP3    H229537   4.704   0.813  16.790  1.6128  0.1492 -0.7443
 2708TIP3   OH229538   3.055   1.926  11.509 -0.0760 -0.0513 -0.0599
 2708TIP3    H129539   3.089   1.839  11.530  2.5292 -0.1643 -3.7684
 2708TIP3    H229540   3.132   1.983  11.515 -1.3417  1.7121  0.4409
 2709TIP3   OH229541   5.999   0.797   3.892 -0.2424  0.2771 -0.6397
 2709TIP3    H129542   6.013   0.709   3.927 -3.0069 -0.2558 -0.6353
 2709TIP3    H229543   6.064   0.851   3.937  0.2460 -1.4182  0.8319
 2710TIP3   OH229544   6.246   6.727  15.935 -0.0498 -0.6116 -0.1527
 2710TIP3    H129545   6.167   6.775  15.960 -0.1026 -0.4745 -0.5806
 2710TIP3    H229546   6.240   6.645  15.985  0.4371  0.1428  1.1850
 2711TIP3   OH229547   1.097   0.384   3.414 -0.6641 -0.0005  0.7688
 2711TIP3    H129548   1.129   0.357   3.500  1.0492 -2.6428 -0.5374
 2711TIP3    H229549   1.035   0.315   3.390  0.7621 -0.7343 -1.0595
 2712TIP3   OH229550   5.580   4.834  13.124  0.3219 -0.0493  0.2858
 2712TIP3    H129551   5.589   4.832  13.220 -1.8718  1.2155  0.5837
 2712TIP3    H229552   5.532   4.754  13.103  2.1246 -1.1067  0.0143
 2713TIP3   OH229553   2.000   6.657  14.970 -0.1397  0.0014 -0.2429
 2713TIP3    H129554   2.005   6.704  15.053 -0.7075  0.0798 -0.2489
 2713TIP3    H229555   1.917   6.610  14.974 -0.3138  0.2459 -0.8954
 2714TIP3   OH229556   4.241   1.784  15.148  0.7084 -0.4637 -0.0043
 2714TIP3    H129557   4.261   1.874  15.122 -1.9230 -0.1961 -1.4493
 2714TIP3    H229558   4.217   1.740  15.066 -2.5411 -1.1438  1.1516
 2715TIP3   OH229559   2.848   0.443   5.649 -0.2567 -0.4544 -0.0418
 2715TIP3    H129560   2.822   0.351   5.658  0.8303 -0.7009  0.7918
 2715TIP3    H229561   2.937   0.446   5.683  1.1042  0.2467 -3.2912
 2716TIP3   OH229562   1.447   1.504   2.122  0.0111 -0.4691  0.2175
 2716TIP3    H129563   1.510   1.439   2.153  0.3310 -0.3217 -0.1161
 2716TIP3    H229564   1.367   1.485   2.171  0.5926 -0.0477  1.3625
 2717TIP3   OH229565   2.278   2.533  17.294  0.3252  0.5926 -0.0581
 2717TIP3    H129566   2.255   2.476  17.366  0.6114  1.1870  0.5167
 2717TIP3    H229567   2.205   2.526  17.233 -0.5834  1.1490  0.9387
 2718TIP3   OH229568   4.922   2.437   0.068 -1.0143  0.0863 -0.1404
 2718TIP3    H129569   4.944   2.529   0.081 -0.1524 -0.0488 -0.5840
 2718TIP3    H229570   4.989   2.404   0.008 -1.2991 -0.8328  0.0241
 2719TIP3   OH229571   1.488   2.011  14.053  0.0360  0.3488 -0.0345
 2719TIP3    H129572   1.582   1.990  14.048  0.6118  2.8255 -1.5711
 2719TIP3    H229573   1.449   1.966  13.978  0.4710  1.1981 -0.7948
 2720TIP3   OH229574   1.206   0.326  14.285  0.4335  0.1323  0.5755
 2720TIP3    H129575   1.163   0.249  14.247  0.5918 -0.9720  2.4787
 2720TIP3    H229576   1.135   0.379  14.320  0.4194 -0.2590  1.1673
 2721TIP3   OH229577   5.954   0.375   2.506 -0.0460 -0.9240  0.1044
 2721TIP3    H129578   5.886   0.314   2.535  0.1755 -1.4400 -0.4269
 2721TIP3    H229579   5.914   0.461   2.513 -0.7220 -1.2130 -0.1038
 2722TIP3   OH229580   0.111   3.034  14.848 -0.2870 -0.2865  0.0298
 2722TIP3    H129581   0.070   3.045  14.934 -0.6786 -1.6530  0.0356
 2722TIP3    H229582   0.192   3.084  14.853 -1.2858  1.3705  0.4774
 2723TIP3   OH229583   4.278   2.450  16.944  0.5517 -0.2652 -0.4362
 2723TIP3    H129584   4.288   2.544  16.960  1.5757 -0.1856 -1.4689
 2723TIP3    H229585   4.200   2.444  16.889  1.8124  0.2457 -2.3984
 2724TIP3   OH229586   6.356   5.354   5.752 -0.5312  0.0779 -0.3603
 2724TIP3    H129587   6.299   5.414   5.704 -1.2244 -0.5731 -0.3632
 2724TIP3    H229588   6.445   5.377   5.723 -0.8013  0.9371 -0.5355
 2725TIP3   OH229589   1.087   5.345  14.051 -0.4537 -0.2334  0.3446
 2725TIP3    H129590   1.044   5.267  14.086 -1.3355  0.2003  0.2684
 2725TIP3    H229591   1.117   5.319  13.964  0.7249 -0.9673  0.9464
 2726TIP3   OH229592   3.197   6.555  14.333 -0.3052  0.2050 -0.1123
 2726TIP3    H129593   3.151   6.496  14.273 -0.0611  0.8957 -0.9991
 2726TIP3    H229594   3.272   6.585  14.284  0.2281  0.3371  0.7645
 2727TIP3   OH229595   6.678   0.415  10.719 -0.3607  0.6067 -0.5505
 2727TIP3    H129596   6.612   0.474  10.682 -0.4678  0.0859 -1.2047
 2727TIP3    H229597   6.762   0.448  10.686 -0.3842  0.6444 -0.5720
 2728TIP3   OH229598   3.447   2.046  13.766  0.0173 -0.1572  0.5440
 2728TIP3    H129599   3.479   1.978  13.707  0.7354  1.3171 -0.8363
 2728TIP3    H229600   3.400   2.107  13.710 -0.9321  0.3249  1.8106
 2729TIP3   OH229601   2.821   4.402  14.564 -0.0736  0.0420  0.3071
 2729TIP3    H129602   2.899   4.418  14.617 -0.3141  1.2523  0.3272
 2729TIP3    H229603   2.854   4.357  14.487  0.0892 -3.1797  2.1041
 2730TIP3   OH229604   3.976   5.392   3.245  0.1915  0.7618  0.0215
 2730TIP3    H129605   4.042   5.394   3.176  1.5358  1.4323  1.2631
 2730TIP3    H229606   4.027   5.384   3.326 -1.2136  1.7665  1.0546
 2731TIP3   OH229607   3.636   0.126   1.210 -0.2539  0.5783  0.0824
 2731TIP3    H129608   3.671   0.166   1.130 -0.0710  1.1869  0.4630
 2731TIP3    H229609   3.699   0.151   1.278 -0.7695  0.6331  0.5391
 2732TIP3   OH229610   4.187   3.441  14.780  0.6986  0.7108  0.4400
 2732TIP3    H129611   4.121   3.414  14.716 -0.3771 -0.1202  1.8402
 2732TIP3    H229612   4.259   3.475  14.728  0.3115 -0.9357 -1.2529
 2733TIP3   OH229613   1.483   1.357  14.352  0.0552  0.3738  0.6770
 2733TIP3    H129614   1.411   1.418  14.369 -1.3650 -0.8303 -0.6427
 2733TIP3    H229615   1.477   1.339  14.258  1.5413 -0.4461  0.7140
 2734TIP3   OH229616   2.152   6.062   3.774 -0.2129 -0.1865 -0.1102
 2734TIP3    H129617   2.215   6.015   3.829  0.0893  1.6855  1.2547
 2734TIP3    H229618   2.187   6.151   3.770 -2.1715  0.6092 -0.2724
 2735TIP3   OH229619   2.825   4.446   4.245 -0.5440  1.2928  0.1407
 2735TIP3    H129620   2.802   4.472   4.334 -0.9060  1.6418 -0.0522
 2735TIP3    H229621   2.863   4.358   4.255  0.8359  1.9392  0.8073
 2736TIP3   OH229622   0.186   0.073  14.943 -0.4399 -0.2912  0.4613
 2736TIP3    H129623   0.183   0.026  15.027  1.3898 -1.4646 -0.0665
 2736TIP3    H229624   0.255   0.138  14.956  0.5528 -1.1373 -0.4115
 2737TIP3   OH229625   5.879   5.000   6.091 -0.0608  0.2063  0.1880
 2737TIP3    H129626   5.851   4.996   6.182  0.9267  1.7527  0.6034
 2737TIP3    H229627   5.831   5.074   6.054  0.1073  0.0574 -0.3474
 2738TIP3   OH229628   2.321   3.093  14.721 -0.1163  0.1871  0.4563
 2738TIP3    H129629   2.380   3.042  14.664 -0.7131 -2.2018  1.8354
 2738TIP3    H229630   2.234   3.060  14.700 -0.6215  1.2178  0.8872
 2739TIP3   OH229631   5.263   5.758   6.657  0.2052  0.0291  0.0687
 2739TIP3    H129632   5.188   5.713   6.697  0.5409 -0.0596  0.6057
 2739TIP3    H229633   5.245   5.851   6.671  0.2391  0.0046  0.2887
 2740TIP3   OH229634   4.196   4.708  13.794  0.8633 -0.4634  0.5050
 2740TIP3    H129635   4.244   4.641  13.746 -0.0149 -1.7209  1.3328
 2740TIP3    H229636   4.136   4.660  13.850  0.2647  1.0177  1.2026
 2741TIP3   OH229637   5.341   5.452  14.604  0.0506  0.4263  0.5882
 2741TIP3    H129638   5.289   5.383  14.562 -0.7101  1.3407  0.0058
 2741TIP3    H229639   5.379   5.409  14.681  0.3319 -0.8907 -0.2635
 2742TIP3   OH229640   5.765   2.487  12.557 -0.1572  0.1793 -0.0527
 2742TIP3    H129641   5.687   2.516  12.509  0.6535 -0.4256 -1.8128
 2742TIP3    H229642   5.796   2.566  12.601 -1.3028  0.5995  0.0525
 2743TIP3   OH229643   0.952   1.346  16.625  0.1232  0.0551  0.3554
 2743TIP3    H129644   0.887   1.280  16.649 -0.4209  0.5547  0.2916
 2743TIP3    H229645   0.936   1.418  16.686  0.6445  0.1714  0.3576
 2744TIP3   OH229646   2.225   3.047   3.445 -0.2823 -0.6255 -0.5743
 2744TIP3    H129647   2.282   3.059   3.369 -1.1045 -1.3806 -1.3338
 2744TIP3    H229648   2.265   3.101   3.513 -1.4934  3.1395 -2.5572
 2745TIP3   OH229649   2.610   1.860  11.089  0.1634  0.5802  0.1243
 2745TIP3    H129650   2.595   1.804  11.013 -0.4811 -1.2725  1.5464
 2745TIP3    H229651   2.602   1.801  11.164  0.1452  2.4674  1.6708
 2746TIP3   OH229652   0.615   6.730  12.935 -0.0478  0.0236  0.1233
 2746TIP3    H129653   0.710   6.725  12.945  0.1236  0.5525 -1.0782
 2746TIP3    H229654   0.592   6.650  12.886 -0.5054 -1.1155  2.1012
 2747TIP3   OH229655   0.045   0.388   4.032  0.3977 -0.2236  0.2137
 2747TIP3    H129656  -0.040   0.351   4.009 -1.1773  2.3990  1.2871
 2747TIP3    H229657   0.070   0.439   3.955 -0.7978  1.7877  1.0556
 2748TIP3   OH229658   6.304   5.348   6.025  0.2876  0.5852 -0.1371
 2748TIP3    H129659   6.212   5.331   6.046  0.8139 -1.5682  0.7746
 2748TIP3    H229660   6.311   5.331   5.932 -0.5229  2.4182 -0.5794
 2749TIP3   OH229661   3.375   5.612   1.067 -0.0228  0.2266  0.1329
 2749TIP3    H129662   3.457   5.592   1.021 -0.0557  2.3196 -0.9621
 2749TIP3    H229663   3.313   5.634   0.998 -0.4759  2.1428  1.0875
 2750TIP3   OH229664   1.012   3.185  15.259  0.0370  0.9530  0.8505
 2750TIP3    H129665   1.053   3.265  15.292  3.4871 -0.4424  0.3763
 2750TIP3    H229666   1.050   3.173  15.172  0.5429 -1.7483  1.3629
 2751TIP3   OH229667   2.527   4.187   4.354  0.2295  0.4042 -0.2668
 2751TIP3    H129668   2.484   4.167   4.271  0.6105 -1.2395 -0.1119
 2751TIP3    H229669   2.505   4.278   4.372 -0.7331  0.4672 -1.6411
 2752TIP3   OH229670   4.990   4.553   2.893 -0.2266  0.4844  0.2601
 2752TIP3    H129671   4.956   4.628   2.942 -0.9800 -0.4298  1.2039
 2752TIP3    H229672   4.937   4.550   2.813 -0.1388  1.0025  0.1799
 2753TIP3   OH229673   0.856   2.368   1.488  0.4665  0.2463 -0.6252
 2753TIP3    H129674   0.910   2.357   1.567  0.3969 -0.3111 -0.6548
 2753TIP3    H229675   0.818   2.456   1.497  3.5385  1.8704 -1.9187
 2754TIP3   OH229676   6.432   2.572  15.662 -0.1536  0.4157  0.5203
 2754TIP3    H129677   6.432   2.589  15.756  0.2480  0.3343  0.5366
 2754TIP3    H229678   6.512   2.522  15.647  0.5062  1.6116 -0.0770
 2755TIP3   OH229679   2.395   6.178  17.014  0.3591  0.6583  0.4558
 2755TIP3    H129680   2.370   6.176  16.922  3.9684  0.6557 -0.7031
 2755TIP3    H229681   2.352   6.102  17.053 -1.6727  0.9735 -1.0371
 2756TIP3   OH229682   4.137   6.470  16.045  0.3286  0.5702 -0.8182
 2756TIP3    H129683   4.060   6.442  16.094  0.7135  1.0512  0.0936
 2756TIP3    H229684   4.147   6.404  15.976 -0.6289  0.2554 -0.6729
 2757TIP3   OH229685   1.099   2.480   0.176  0.1709 -0.0158 -0.4371
 2757TIP3    H129686   1.065   2.394   0.151  0.6374  0.0133 -1.2137
 2757TIP3    H229687   1.032   2.542   0.148 -0.1044 -0.1184 -0.0027
 2758TIP3   OH229688   5.390   5.966  16.087 -0.0617 -0.4447  0.7776
 2758TIP3    H129689   5.427   6.054  16.097 -1.1717  0.1878 -0.4080
 2758TIP3    H229690   5.315   5.965  16.148  0.9546 -1.2085  2.0781
 2759TIP3   OH229691   0.740   5.771  16.551  0.5092  1.0991  0.0493
 2759TIP3    H129692   0.827   5.731  16.556  0.3537  0.6889 -0.4983
 2759TIP3    H229693   0.758   5.863  16.533  0.8084  0.6973 -1.9274
 2760TIP3   OH229694   5.236   6.172  11.620  0.0226  0.1912  0.4482
 2760TIP3    H129695   5.251   6.101  11.557  0.1016  0.9199 -0.3809
 2760TIP3    H229696   5.226   6.250  11.565  0.9339  0.9890  1.3814
 2761TIP3   OH229697   2.109   4.872  14.712 -0.3171  0.3871 -0.3332
 2761TIP3    H129698   2.202   4.869  14.734 -0.7697  1.6591  1.9785
 2761TIP3    H229699   2.081   4.960  14.736 -1.9634  0.3286 -1.8179
 2762TIP3   OH229700   1.528   5.836  16.565  0.3536 -0.3489  0.0056
 2762TIP3    H129701   1.462   5.773  16.595  0.1271  0.0685  0.3886
 2762TIP3    H229702   1.498   5.920  16.598  0.2668  0.0819 -1.1152
 2763TIP3   OH229703   0.127   2.297   4.778 -0.1156 -0.3123  0.3534
 2763TIP3    H129704   0.103   2.360   4.710  1.5019  2.1696  1.9177
 2763TIP3    H229705   0.043   2.269   4.815 -0.8952  0.9759 -0.3590
 2764TIP3   OH229706   6.181   2.621   5.417 -0.1780 -0.5780  0.2516
 2764TIP3    H129707   6.153   2.710   5.399  2.9258  0.3641 -0.3692
 2764TIP3    H229708   6.131   2.567   5.355 -1.1049  0.8369 -0.2807
 2765TIP3   OH229709   6.106   6.627  15.284 -0.1781  0.4582  0.2037
 2765TIP3    H129710   6.097   6.556  15.222  1.4587  1.4311 -1.2415
 2765TIP3    H229711   6.121   6.584  15.368  0.0777 -0.8954 -0.5109
 2766TIP3   OH229712   3.057   3.837  15.816  0.4675  0.3036 -0.3424
 2766TIP3    H129713   3.012   3.920  15.835 -2.0839 -0.8180 -1.1028
 2766TIP3    H229714   2.987   3.772  15.811  2.3398 -1.8359 -0.3204
 2767TIP3   OH229715   4.855   2.323   2.474 -0.0439 -0.0515 -0.0590
 2767TIP3    H129716   4.904   2.389   2.523 -1.3671  1.8601 -1.1956
 2767TIP3    H229717   4.858   2.354   2.383 -1.2102 -1.2482 -0.5327
 2768TIP3   OH229718   4.635   0.921   1.424 -0.4996 -0.0966 -0.5231
 2768TIP3    H129719   4.561   0.864   1.404 -0.1270 -0.5964 -0.4874
 2768TIP3    H229720   4.703   0.862   1.459  0.5529  0.0780 -2.1595
 2769TIP3   OH229721   0.733   2.587  12.507 -0.4058  0.2626 -0.0013
 2769TIP3    H129722   0.689   2.568  12.423  0.2982  0.8813 -0.5238
 2769TIP3    H229723   0.785   2.509  12.525  1.4783  1.1081 -1.4870
 2770TIP3   OH229724   6.492   3.086  12.675 -0.0229 -0.6233  0.0518
 2770TIP3    H129725   6.467   3.016  12.735 -0.5580 -1.0814 -0.6916
 2770TIP3    H229726   6.420   3.149  12.679  0.8769  0.3758  1.4223
 2771TIP3   OH229727   1.882   6.279   5.793 -0.4535  0.0961  0.1258
 2771TIP3    H129728   1.919   6.247   5.710 -0.8740 -1.5995  0.5718
 2771TIP3    H229729   1.910   6.215   5.858  1.5260  2.3918  1.7129
 2772TIP3   OH229730   1.421   3.240   5.874 -0.9495 -0.2596  0.7064
 2772TIP3    H129731   1.452   3.154   5.848 -2.0725 -0.4230 -0.1364
 2772TIP3    H229732   1.462   3.255   5.959  2.9052  0.2923 -1.0069
 2773TIP3   OH229733   3.750   4.556   5.143  0.4270  0.2859  0.5924
 2773TIP3    H129734   3.805   4.634   5.151  0.1835  0.5835 -0.4934
 2773TIP3    H229735   3.662   4.587   5.167  0.3175  0.3716  0.0949
 2774TIP3   OH229736   2.175   0.459   1.309 -0.3172  0.0296  0.4774
 2774TIP3    H129737   2.267   0.476   1.332 -0.4615 -0.0623  1.1305
 2774TIP3    H229738   2.152   0.381   1.358 -0.9547  0.4569  0.8736
 2775TIP3   OH229739   4.225   6.197  11.746  0.1434 -0.3978 -0.7597
 2775TIP3    H129740   4.168   6.121  11.756  2.3922 -2.4692 -2.2960
 2775TIP3    H229741   4.288   6.189  11.818 -0.7252  1.1887  0.2296
 2776TIP3   OH229742   2.961   3.783   0.496  0.1306  0.2373  0.0277
 2776TIP3    H129743   2.970   3.817   0.407 -1.8314 -0.1014 -0.3504
 2776TIP3    H229744   2.985   3.691   0.490 -0.8945 -0.0165 -0.3779
 2777TIP3   OH229745   5.864   2.981   3.736 -0.8450 -0.1589 -0.1701
 2777TIP3    H129746   5.872   3.010   3.645 -0.8822  0.1146 -0.0878
 2777TIP3    H229747   5.872   3.061   3.787 -0.3422 -0.3722  0.0929
 2778TIP3   OH229748   6.307   1.604   3.099  0.9971  0.6600  0.5708
 2778TIP3    H129749   6.326   1.587   3.191 -0.0188 -1.4168  0.4544
 2778TIP3    H229750   6.380   1.565   3.052  0.5745 -0.0080  0.4492
 2779TIP3   OH229751   3.512   1.319  14.057 -0.1264 -0.1666 -0.0256
 2779TIP3    H129752   3.517   1.270  13.974  0.9713 -0.3942  0.1686
 2779TIP3    H229753   3.437   1.377  14.045  0.4161  0.2872 -1.4431
 2780TIP3   OH229754   1.889   2.336   0.239 -0.0554 -0.1261  0.4090
 2780TIP3    H129755   1.834   2.262   0.213  0.1179 -0.2458  0.3771
 2780TIP3    H229756   1.879   2.342   0.334 -0.4425  0.1114  0.3531
 2781TIP3   OH229757   3.597   4.107   5.451  0.0914  0.8988  0.2705
 2781TIP3    H129758   3.561   4.080   5.535  1.4964 -0.9168  0.3544
 2781TIP3    H229759   3.540   4.068   5.386  1.3810 -1.3777  0.4059
 2782TIP3   OH229760   3.805   0.230   0.693 -0.4940 -0.2085  0.6377
 2782TIP3    H129761   3.877   0.287   0.720 -0.5471 -0.1990  0.7625
 2782TIP3    H229762   3.839   0.141   0.706 -0.6610 -0.2044  1.1271
 2783TIP3   OH229763   6.751   6.192   1.929  0.2632 -0.0697  0.0805
 2783TIP3    H129764   6.803   6.144   1.993  1.5007 -0.4025 -1.1434
 2783TIP3    H229765   6.812   6.256   1.891 -0.2389 -0.3704 -1.2820
 2784TIP3   OH229766   2.203   4.910  13.699  0.2623  0.2009  0.2580
 2784TIP3    H129767   2.127   4.856  13.677  0.4402  0.6604 -1.7202
 2784TIP3    H229768   2.169   4.979  13.755 -0.3733 -0.7365  1.0480
 2785TIP3   OH229769   2.253   5.234  11.407  0.2901 -0.0294  0.3489
 2785TIP3    H129770   2.217   5.225  11.495  2.1879  0.9408  1.2809
 2785TIP3    H229771   2.348   5.233  11.419  0.6057 -0.2755 -1.7429
 2786TIP3   OH229772   3.802   1.574   3.287 -0.1452 -0.1621 -0.3507
 2786TIP3    H129773   3.878   1.527   3.321 -0.5310  1.1130  2.6117
 2786TIP3    H229774   3.737   1.506   3.271  1.0506 -1.1102 -1.3919
 2787TIP3   OH229775   5.669   5.755   1.719 -0.2940 -0.1170 -0.2724
 2787TIP3    H129776   5.722   5.710   1.652 -0.2471 -1.3260  0.5549
 2787TIP3    H229777   5.579   5.744   1.688 -0.1084  3.3266 -2.5415
 2788TIP3   OH229778   6.161   1.345  12.282 -0.2680  0.4124  0.2491
 2788TIP3    H129779   6.246   1.390  12.277 -0.4661  1.0028  1.6645
 2788TIP3    H229780   6.121   1.380  12.361 -0.4638 -2.2473  1.4120
 2789TIP3   OH229781   0.546   2.974  11.608 -0.0429  0.3599 -0.3661
 2789TIP3    H129782   0.469   2.984  11.551 -1.2773 -0.8990  1.0075
 2789TIP3    H229783   0.601   2.911  11.562 -0.3400  0.4501 -0.8568
 2790TIP3   OH229784   4.752   6.316   2.040 -0.0401 -0.3128  0.3826
 2790TIP3    H129785   4.780   6.329   1.949 -0.6883  1.3782  0.3926
 2790TIP3    H229786   4.834   6.315   2.090  0.3055 -0.9844 -0.1833
 2791TIP3   OH229787   2.532   6.395  12.037 -0.1706 -0.2317  0.2834
 2791TIP3    H129788   2.452   6.356  12.073 -0.7903  1.6523  1.0791
 2791TIP3    H229789   2.598   6.381  12.105  0.2098 -1.7123 -0.3377
 2792TIP3   OH229790   5.499   1.177  14.897  0.1723 -0.5508 -0.0172
 2792TIP3    H129791   5.586   1.215  14.903 -0.5489  0.9659  2.2343
 2792TIP3    H229792   5.463   1.211  14.814  1.4509 -0.6797 -0.6409
 2793TIP3   OH229793   4.138   0.375   3.199 -0.1910  0.0094 -0.4643
 2793TIP3    H129794   4.232   0.358   3.200 -0.6008 -2.5449  0.4628
 2793TIP3    H229795   4.131   0.469   3.218  2.1437  0.2802 -0.6150
 2794TIP3   OH229796   1.109   4.407   0.138  0.3549  0.3218  0.2724
 2794TIP3    H129797   1.142   4.493   0.111  0.5993  0.2657  0.3917
 2794TIP3    H229798   1.122   4.405   0.233  5.4846 -1.9201 -0.1106
 2795TIP3   OH229799   5.621   0.514  16.463 -0.1938 -0.0872  0.4266
 2795TIP3    H129800   5.548   0.465  16.503 -0.6299 -0.3381 -0.6434
 2795TIP3    H229801   5.678   0.536  16.537 -1.0850 -0.3501  1.2158
 2796TIP3   OH229802   2.999   3.771  13.804 -0.7118  0.0148  0.3008
 2796TIP3    H129803   2.976   3.806  13.718  1.7082 -1.3233 -1.0187
 2796TIP3    H229804   2.968   3.681  13.802  2.0024 -1.0050 -0.5128
 2797TIP3   OH229805   5.966   4.928   3.362  0.3526 -0.2729 -0.2255
 2797TIP3    H129806   6.057   4.931   3.332  0.0439  1.8125 -1.1146
 2797TIP3    H229807   5.972   4.914   3.456  1.6446  0.8170 -0.1215
 2798TIP3   OH229808   1.520   1.241  14.088 -0.4542  0.2783 -0.0742
 2798TIP3    H129809   1.518   1.320  14.035 -0.2036 -0.3073 -0.9967
 2798TIP3    H229810   1.613   1.220  14.096 -0.5143  0.1293  0.2390
 2799TIP3   OH229811   4.365   2.174   3.877 -0.4260  0.1839 -0.5268
 2799TIP3    H129812   4.344   2.082   3.893  0.9981  0.0306  0.7022
 2799TIP3    H229813   4.360   2.184   3.782  0.0088 -1.3197 -0.7290
 2800TIP3   OH229814   0.731   0.910  10.444 -0.0718  0.3264 -0.4685
 2800TIP3    H129815   0.647   0.870  10.466 -0.3454  1.5493  0.7916
 2800TIP3    H229816   0.711   0.976  10.378 -0.2808  1.2903  0.5285
 2801TIP3   OH229817   0.257   3.095  13.460 -0.2251  0.1008  0.3608
 2801TIP3    H129818   0.324   3.092  13.392  0.1137 -1.9792  0.7057
 2801TIP3    H229819   0.214   3.009  13.455 -0.6514  0.1557  2.2985
 2802TIP3   OH229820   1.597   3.087  13.388 -0.3621 -0.4964 -0.1753
 2802TIP3    H129821   1.676   3.036  13.372 -0.3089 -0.0394 -1.5182
 2802TIP3    H229822   1.620   3.146  13.459  0.0520 -1.3206  0.3833
 2803TIP3   OH229823   3.376   6.670   3.862 -0.7208 -0.0162 -0.2954
 2803TIP3    H129824   3.374   6.575   3.869 -1.1821 -0.1013 -1.3398
 2803TIP3    H229825   3.425   6.687   3.782  1.4026  0.7258  1.1008
 2804TIP3   OH229826   0.899   3.718   2.380  0.2687  0.0579 -0.6878
 2804TIP3    H129827   0.827   3.747   2.325 -0.4646 -2.0459 -0.9399
 2804TIP3    H229828   0.857   3.673   2.453  1.2959 -0.6101 -0.4807
 2805TIP3   OH229829   1.226   6.179  12.833  0.0699  0.1945 -0.0081
 2805TIP3    H129830   1.216   6.091  12.798  0.5644  0.8083 -1.7917
 2805TIP3    H229831   1.143   6.197  12.876  0.1024 -1.2699  0.7324
 2806TIP3   OH229832   0.820   5.172   1.605 -0.5183 -0.1837 -0.0238
 2806TIP3    H129833   0.888   5.145   1.543 -1.3555 -0.3093 -0.9145
 2806TIP3    H229834   0.784   5.089   1.638  0.8724 -0.1259  1.7289
 2807TIP3   OH229835   2.097   2.343   4.696 -0.0342 -0.5091  0.6387
 2807TIP3    H129836   2.080   2.434   4.723  2.7071  1.0273 -2.1392
 2807TIP3    H229837   2.028   2.324   4.633  1.0772  0.9724 -1.1609
 2808TIP3   OH229838   5.230   6.044  15.456  0.0969  0.2356  0.1046
 2808TIP3    H129839   5.220   6.054  15.361 -2.1992  0.0345  0.2633
 2808TIP3    H229840   5.234   6.134  15.488 -1.5740  0.4013 -0.0326
 2809TIP3   OH229841   5.479   0.751   5.522  0.1548  0.4166 -0.1781
 2809TIP3    H129842   5.456   0.825   5.465 -1.6450  0.8742  1.0661
 2809TIP3    H229843   5.568   0.770   5.551  0.7881  0.6137 -2.0988
 2810TIP3   OH229844   2.179   3.578  10.763 -0.4110  0.5617  0.1544
 2810TIP3    H129845   2.260   3.579  10.712 -0.3944  0.7155  0.1813
 2810TIP3    H229846   2.110   3.571  10.697 -0.3034 -2.5767  0.2522
 2811TIP3   OH229847   2.755   4.495   2.720  0.2008  0.6202  0.3103
 2811TIP3    H129848   2.687   4.438   2.683  2.2586 -3.1070  1.6394
 2811TIP3    H229849   2.708   4.557   2.775 -2.1760 -1.1962  0.4978
 2812TIP3   OH229850   6.601   3.452   4.024 -0.3010  0.6679 -0.4719
 2812TIP3    H129851   6.610   3.357   4.021 -1.2053  0.5931 -1.9996
 2812TIP3    H229852   6.512   3.468   3.991  0.1624  2.0730 -1.0975
 2813TIP3   OH229853   0.665   6.611  15.122 -0.3163  0.0565  0.3029
 2813TIP3    H129854   0.665   6.706  15.138  2.1999  0.5015 -1.7397
 2813TIP3    H229855   0.676   6.602  15.028 -2.2187 -2.3502  0.1975
 2814TIP3   OH229856   5.633   3.349   2.143  0.1737 -0.4635  0.0440
 2814TIP3    H129857   5.622   3.265   2.098  0.0813  0.3860 -1.5778
 2814TIP3    H229858   5.544   3.378   2.162  0.2240 -1.2755  1.7456
 2815TIP3   OH229859   6.037   4.050   2.925  0.5162  0.5070 -0.0042
 2815TIP3    H129860   6.069   3.994   2.996  2.5490  1.3569 -0.1899
 2815TIP3    H229861   5.947   4.071   2.950  0.9656  0.2615  2.0068
 2816TIP3   OH229862   4.372   1.615   2.267  0.2883  0.0764 -0.0300
 2816TIP3    H129863   4.443   1.622   2.203 -0.2404 -0.1826 -0.6601
 2816TIP3    H229864   4.308   1.680   2.238  1.2733  2.0282  1.9020
 2817TIP3   OH229865   0.173   0.233  16.912 -0.0583 -0.0238  0.3737
 2817TIP3    H129866   0.150   0.315  16.955 -0.9868 -1.2721  2.4255
 2817TIP3    H229867   0.095   0.210  16.860 -0.9123 -0.8834  1.9486
 2818TIP3   OH229868   4.164   1.905   3.272  0.5468  0.0638 -0.3767
 2818TIP3    H129869   4.137   1.829   3.323  1.4209 -0.4032 -0.5808
 2818TIP3    H229870   4.104   1.907   3.197  0.4693 -0.3895 -0.3288
 2819TIP3   OH229871   3.826   5.271  15.999  0.0473  0.2303 -0.0590
 2819TIP3    H129872   3.873   5.203  16.048  0.3113  0.4881  0.0470
 2819TIP3    H229873   3.850   5.256  15.908 -0.7508 -0.4942 -0.1563
 2820TIP3   OH229874   3.102   6.635   3.939  0.2203 -0.7300  0.3849
 2820TIP3    H129875   3.088   6.545   3.910  0.5569 -0.3970 -0.8762
 2820TIP3    H229876   3.197   6.644   3.946  0.2901 -0.0686 -0.9692
 2821TIP3   OH229877   6.678   2.213  10.930  0.7117  0.0498 -0.6803
 2821TIP3    H129878   6.590   2.178  10.944  1.3680 -0.7684  2.1765
 2821TIP3    H229879   6.663   2.299  10.891 -1.5235  0.8474  1.6378
 2822TIP3   OH229880   1.916   4.688  14.056 -0.2740  0.0454  0.8655
 2822TIP3    H129881   2.007   4.709  14.077 -0.0479 -0.9185  0.8611
 2822TIP3    H229882   1.916   4.594  14.039 -0.7590  0.4397 -1.7646
 2823TIP3   OH229883   5.990   5.239   0.820  0.4526 -0.2602  0.6455
 2823TIP3    H129884   5.976   5.144   0.814  2.5973 -0.6007  0.3500
 2823TIP3    H229885   5.937   5.266   0.895 -0.4730 -1.6282  0.5108
 2824TIP3   OH229886   1.166   5.258   5.522 -0.3368  0.5318 -0.0709
 2824TIP3    H129887   1.149   5.334   5.467 -0.6556 -0.1343 -0.9146
 2824TIP3    H229888   1.119   5.186   5.480  1.8866 -0.6721 -0.6586
 2825TIP3   OH229889   2.766   3.754  15.872  0.2277  0.0345 -0.3098
 2825TIP3    H129890   2.671   3.757  15.865  0.3382  1.5189 -1.5271
 2825TIP3    H229891   2.783   3.749  15.966 -1.0350  1.2023  0.0052
 2826TIP3   OH229892   6.609   2.140   1.373  0.3203  0.4933 -0.2441
 2826TIP3    H129893   6.664   2.196   1.429 -0.4977  0.7276  0.3513
 2826TIP3    H229894   6.591   2.194   1.296  0.7620  0.4840 -0.3593
 2827TIP3   OH229895   0.474   5.796  16.648 -0.2805  0.0130  0.3671
 2827TIP3    H129896   0.563   5.786  16.612 -0.4221 -0.7394  0.1980
 2827TIP3    H229897   0.467   5.726  16.713  0.0285  1.4481  2.0178
 2828TIP3   OH229898   1.262   3.131   1.888 -0.0442  0.4307  0.4282
 2828TIP3    H129899   1.337   3.130   1.948 -0.9241  1.0649  1.5693
 2828TIP3    H229900   1.187   3.151   1.944 -1.1343 -0.5634 -0.6334
 2829TIP3   OH229901   2.647   0.556   2.192 -0.3295 -0.4640  0.3492
 2829TIP3    H129902   2.555   0.555   2.216  0.1249  0.5844  2.3521
 2829TIP3    H229903   2.673   0.648   2.201  1.3523 -1.0258  1.7496
 2830TIP3   OH229904   6.152   0.449  17.159 -0.4479 -0.0278 -0.1167
 2830TIP3    H129905   6.155   0.389  17.085 -1.0731 -0.2098 -0.0066
 2830TIP3    H229906   6.223   0.420  17.217  1.7549  1.7042 -1.7959
 2831TIP3   OH229907   1.804   2.894  11.627 -0.1917 -0.2922 -0.0574
 2831TIP3    H129908   1.812   2.987  11.604 -0.9755 -0.3204 -0.4820
 2831TIP3    H229909   1.712   2.873  11.610  0.1497 -1.3362 -0.6763
 2832TIP3   OH229910   0.292   1.407   3.092 -0.0113 -0.5495 -0.3667
 2832TIP3    H129911   0.382   1.387   3.065 -0.5533 -1.9782 -1.2308
 2832TIP3    H229912   0.291   1.386   3.186  0.5572 -0.4900 -0.3386
 2833TIP3   OH229913   3.792   1.561   0.842  0.2484 -0.3265  0.1762
 2833TIP3    H129914   3.731   1.572   0.914 -1.8301  1.5489 -1.7191
 2833TIP3    H229915   3.858   1.629   0.856  0.4196 -0.6167  0.8141
 2834TIP3   OH229916   6.360   3.198   6.400 -0.3693  0.0740 -0.3339
 2834TIP3    H129917   6.293   3.264   6.416  0.6625  1.4258 -1.3761
 2834TIP3    H229918   6.388   3.213   6.310  2.4440  0.6376  0.5283
 2835TIP3   OH229919   0.088   1.418  15.596  0.9111 -0.4123  0.3439
 2835TIP3    H129920   0.004   1.464  15.594  0.9025 -0.4614 -0.7783
 2835TIP3    H229921   0.065   1.329  15.622  0.6372 -0.3801  0.2207
 2836TIP3   OH229922   1.757   6.637  15.441  0.5442  0.0847 -0.8759
 2836TIP3    H129923   1.681   6.588  15.473  0.8160  0.3925  0.3028
 2836TIP3    H229924   1.725   6.727  15.431  0.8533  0.3011  0.0329
 2837TIP3   OH229925   0.425   2.855   2.355  0.5411 -0.5159 -0.0548
 2837TIP3    H129926   0.380   2.807   2.285 -0.6947  0.5196 -0.0058
 2837TIP3    H229927   0.360   2.862   2.424  1.1326  0.1133  0.4461
 2838TIP3   OH229928   1.703   6.591   5.229 -0.2575 -0.4183  0.3118
 2838TIP3    H129929   1.785   6.610   5.184 -0.1957 -1.1658  0.0979
 2838TIP3    H229930   1.685   6.499   5.210  0.7211 -1.3548  3.2779
 2839TIP3   OH229931   3.882   2.827   5.368  0.1631 -0.4792  0.4239
 2839TIP3    H129932   3.966   2.803   5.330 -0.5251  0.8375 -2.1594
 2839TIP3    H229933   3.820   2.764   5.331 -0.8154  1.8855 -2.3610
 2840TIP3   OH229934   3.773   0.737   6.168 -0.3530  0.4954  0.4550
 2840TIP3    H129935   3.834   0.694   6.109 -1.1758  0.3582 -0.3144
 2840TIP3    H229936   3.765   0.677   6.242 -1.6663 -0.8266 -0.7082
 2841TIP3   OH229937   5.993   6.694   2.604 -0.1285  0.0101  0.3591
 2841TIP3    H129938   5.993   6.603   2.634  0.7689  0.5903  2.2964
 2841TIP3    H229939   5.961   6.690   2.514 -0.0007 -2.2252  0.3636
 2842TIP3   OH229940   3.705   2.539  15.891  1.0907 -0.1013  0.1179
 2842TIP3    H129941   3.652   2.484  15.950  0.9776  0.8719  0.9438
 2842TIP3    H229942   3.654   2.542  15.810 -0.0590  0.6649  0.8349
 2843TIP3   OH229943   5.963   2.134  15.647 -0.0878 -0.0009  0.1362
 2843TIP3    H129944   5.930   2.079  15.577  2.6920 -0.4730 -0.9205
 2843TIP3    H229945   6.000   2.210  15.602 -1.3035  1.4099  1.3842
 2844TIP3   OH229946   5.638   4.663   2.715  0.3579 -0.8501 -0.1918
 2844TIP3    H129947   5.560   4.688   2.765  0.5116  0.4325 -0.5484
 2844TIP3    H229948   5.624   4.703   2.629  1.9350  0.3987  0.1001
 2845TIP3   OH229949   5.674   1.782   0.605 -0.5167 -0.1752 -0.0008
 2845TIP3    H129950   5.747   1.805   0.662  0.9169  0.3970 -1.9366
 2845TIP3    H229951   5.698   1.698   0.567 -1.1572 -0.2777 -0.2022
 2846TIP3   OH229952   4.367   5.245  13.548 -0.0203 -0.3814  0.5465
 2846TIP3    H129953   4.437   5.180  13.555  0.1881 -0.5169 -1.9261
 2846TIP3    H229954   4.411   5.325  13.520 -0.6723 -0.0789  0.3699
 2847TIP3   OH229955   4.321   6.510   2.977  0.2587 -0.3065 -0.4528
 2847TIP3    H129956   4.281   6.510   3.064  0.6130  0.5846 -0.2719
 2847TIP3    H229957   4.312   6.420   2.946 -1.2594 -0.2847 -0.1447
 2848TIP3   OH229958   4.700   5.715  11.366  0.3988  0.0717  0.1427
 2848TIP3    H129959   4.697   5.808  11.345 -1.2361 -0.4903 -2.6290
 2848TIP3    H229960   4.609   5.687  11.369  0.8609 -1.7141 -0.6207
 2849TIP3   OH229961   4.776   2.102   4.977  0.1887 -0.0957  0.1374
 2849TIP3    H129962   4.697   2.084   5.027 -0.0882  0.2821 -0.1559
 2849TIP3    H229963   4.758   2.185   4.932  0.9760  0.2997  0.5246
 2850TIP3   OH229964   5.282   1.730  16.799 -0.0285  0.3449  0.2945
 2850TIP3    H129965   5.353   1.747  16.737  1.5711 -2.2329  1.2865
 2850TIP3    H229966   5.314   1.659  16.854 -2.8784  0.0029  1.6899
 2851TIP3   OH229967   1.419   2.362  12.846 -0.4912  0.0714  0.7986
 2851TIP3    H129968   1.392   2.453  12.833 -0.1674  0.2472  1.2999
 2851TIP3    H229969   1.337   2.316  12.863 -0.8289 -0.0208 -0.9236
 2852TIP3   OH229970   3.865   0.257   5.636 -0.1694 -0.2883 -0.0382
 2852TIP3    H129971   3.791   0.200   5.615 -1.2791  0.7369  0.9526
 2852TIP3    H229972   3.937   0.196   5.657 -0.4377 -1.3020 -1.8385
 2853TIP3   OH229973   3.978   4.835  13.157 -0.2245  0.5811  0.0696
 2853TIP3    H129974   3.895   4.803  13.192  0.9981 -0.7902  1.9335
 2853TIP3    H229975   4.001   4.909  13.214 -0.1447  0.9446 -0.4266
 2854TIP3   OH229976   4.517   5.297   2.413 -0.2976 -0.5236 -1.1113
 2854TIP3    H129977   4.430   5.319   2.445 -0.0909  1.0847 -1.5278
 2854TIP3    H229978   4.534   5.361   2.344  1.3940 -0.4585 -0.6988
 2855TIP3   OH229979   5.717   1.527  12.366  0.3008 -0.1287  0.1506
 2855TIP3    H129980   5.755   1.446  12.400 -0.5245 -0.0796  1.2562
 2855TIP3    H229981   5.724   1.589  12.438 -0.7243  0.2388 -0.0461
 2856TIP3   OH229982   6.004   2.162  11.204  0.0869  0.4027 -0.2354
 2856TIP3    H129983   6.039   2.095  11.262 -1.6787 -1.6687 -1.4134
 2856TIP3    H229984   5.982   2.235  11.262 -2.6004 -1.9572  1.9873
 2857TIP3   OH229985   5.099   6.523  12.265 -0.0233  0.7745  0.4717
 2857TIP3    H129986   5.056   6.564  12.190  0.8351 -0.8254 -0.9656
 2857TIP3    H229987   5.044   6.446  12.284  0.8509  0.0574  0.1633
 2858TIP3   OH229988   3.265   6.641  13.321 -0.6644 -0.3300  0.8665
 2858TIP3    H129989   3.209   6.713  13.352  0.1187  0.3140  0.8314
 2858TIP3    H229990   3.354   6.672  13.338 -0.2826 -0.7655 -0.3087
 2859TIP3   OH229991   0.572   3.755  14.956  0.2122 -0.2735  0.2147
 2859TIP3    H129992   0.568   3.828  15.019 -0.1592  0.7242 -0.9120
 2859TIP3    H229993   0.531   3.790  14.877 -0.1371 -1.7882 -0.3078
 2860TIP3   OH229994   6.520   0.664   2.698 -0.2929 -0.1415  0.4248
 2860TIP3    H129995   6.607   0.678   2.736  1.1638  0.4447 -2.7349
 2860TIP3    H229996   6.477   0.749   2.706  0.4005  0.2748 -0.1203
 2861TIP3   OH229997   2.754   2.753  11.312  0.1519  0.1658 -0.3978
 2861TIP3    H129998   2.772   2.803  11.232  0.6708 -0.0719 -0.4327
 2861TIP3    H229999   2.795   2.805  11.381 -0.3031  0.3749 -0.2786
 2862TIP3   OH230000   6.147   0.168  16.275 -0.2711  0.1976 -0.0279
 2862TIP3    H130001   6.237   0.135  16.278 -0.3950 -0.1165  0.2606
 2862TIP3    H230002   6.098   0.110  16.334 -0.3792  1.2264  0.9198
 2863TIP3   OH230003   1.812   2.946  10.979  0.2912 -0.0353  0.1303
 2863TIP3    H130004   1.746   3.014  10.991 -1.0708 -1.1931 -0.6308
 2863TIP3    H230005   1.778   2.891  10.909  0.6422 -2.3834  1.6886
 2864TIP3   OH230006   3.370   0.353   1.051  0.2322  0.4526  0.5242
 2864TIP3    H130007   3.306   0.302   1.101  1.2097  1.1328  2.6024
 2864TIP3    H230008   3.317   0.414   1.000 -0.8652 -1.2307 -0.4586
 2865TIP3   OH230009   4.208   4.440  11.815 -0.0531 -0.4343 -0.7276
 2865TIP3    H130010   4.277   4.439  11.882 -0.4846  0.5322 -0.2400
 2865TIP3    H230011   4.254   4.457  11.733  0.1652  2.3329 -0.1439
 2866TIP3   OH230012   0.944   2.751   5.934 -0.2469  0.0706  0.4380
 2866TIP3    H130013   0.935   2.680   5.870  3.0348 -0.4235  0.3098
 2866TIP3    H230014   0.993   2.819   5.887 -1.4031  1.5148  1.2430
 2867TIP3   OH230015   2.287   2.321  13.196  0.3545 -0.6603  0.1538
 2867TIP3    H130016   2.359   2.374  13.162 -0.4182  1.5145  1.7455
 2867TIP3    H230017   2.214   2.382  13.204 -1.0429 -2.3226  0.6835
 2868TIP3   OH230018   1.545   2.283   2.737  0.1843  0.2956  0.2012
 2868TIP3    H130019   1.617   2.238   2.781  0.7040 -0.0666 -0.9720
 2868TIP3    H230020   1.466   2.239   2.768  0.5635 -0.2078  0.4554
 2869TIP3   OH230021   1.881   3.474   3.481  0.1530 -0.3459 -0.0493
 2869TIP3    H130022   1.825   3.526   3.539 -0.8040  0.0124 -1.2530
 2869TIP3    H230023   1.927   3.538   3.428 -1.4074 -0.6835 -1.8908
 2870TIP3   OH230024   4.507   1.631  13.494 -0.6100  0.3234 -0.1119
 2870TIP3    H130025   4.456   1.651  13.416 -2.7277 -1.9331  0.5840
 2870TIP3    H230026   4.494   1.706  13.551  0.7499  1.8872 -1.7167
 2871TIP3   OH230027   0.413   1.852  16.865 -0.0432 -0.1165  0.1422
 2871TIP3    H130028   0.438   1.864  16.956 -0.1867 -1.0411  0.3177
 2871TIP3    H230029   0.371   1.766  16.863 -1.2619  0.4596 -0.5444
 2872TIP3   OH230030   3.705   5.147   3.761 -0.3538  0.0076  0.4157
 2872TIP3    H130031   3.685   5.193   3.842 -0.2902  1.1052 -0.1823
 2872TIP3    H230032   3.789   5.104   3.779 -0.2934  0.3203  0.8961
 2873TIP3   OH230033   3.822   6.766  14.776 -0.0675  0.0842 -0.2359
 2873TIP3    H130034   3.736   6.723  14.780 -0.3433  0.7148  1.8701
 2873TIP3    H230035   3.832   6.808  14.861  3.0649 -1.3896  0.2779
 2874TIP3   OH230036   0.046   4.357   5.951 -0.0146 -0.6760  0.1594
 2874TIP3    H130037   0.122   4.329   6.002  0.4133 -1.1317 -0.7000
 2874TIP3    H230038  -0.029   4.321   5.998  0.4024 -1.5492  0.1778
 2875TIP3   OH230039   1.627   2.434   3.399 -0.2023 -0.7696 -0.2569
 2875TIP3    H130040   1.539   2.470   3.384 -0.5943 -1.4687  0.3351
 2875TIP3    H230041   1.649   2.392   3.316 -0.8643 -1.4982 -0.0705
 2876TIP3   OH230042   2.737   3.933  16.862 -0.1569 -0.3865  0.0216
 2876TIP3    H130043   2.657   3.977  16.890 -0.0538 -1.4043  2.0697
 2876TIP3    H230044   2.706   3.857  16.812 -0.3703  0.6781 -1.5340
 2877TIP3   OH230045   0.604   5.670  15.956 -0.2684  0.5787 -0.2495
 2877TIP3    H130046   0.681   5.636  16.002  1.0388  1.2087 -1.8675
 2877TIP3    H230047   0.573   5.742  16.011  1.1771  1.2425 -0.2526
 2878TIP3   OH230048   5.092   0.249   4.732 -0.5700  0.0710  0.3018
 2878TIP3    H130049   5.038   0.185   4.777 -0.0835 -0.4012  0.2303
 2878TIP3    H230050   5.031   0.302   4.681 -1.1974  0.9165  1.8492
 2879TIP3   OH230051   4.632   6.017   5.862 -0.4316 -0.0905  0.8737
 2879TIP3    H130052   4.676   6.046   5.783 -1.4539 -1.6017 -0.3134
 2879TIP3    H230053   4.704   6.001   5.924  0.4105  0.8088  0.1653
 2880TIP3   OH230054   6.132   4.322   2.645  0.3952 -0.0215 -0.2847
 2880TIP3    H130055   6.086   4.311   2.728  0.6443 -2.5579 -0.4190
 2880TIP3    H230056   6.115   4.413   2.621 -1.6106  0.1346  1.3898
 2881TIP3   OH230057   4.815   0.619  14.412  0.4132  0.1472  0.0328
 2881TIP3    H130058   4.819   0.611  14.316  1.1327 -0.8926  0.1272
 2881TIP3    H230059   4.784   0.708  14.427  0.6224  0.4494 -1.1656
 2882TIP3   OH230060   2.408   0.062   5.315  0.0239  0.0055  0.0763
 2882TIP3    H130061   2.401   0.020   5.229 -0.4404  0.9851 -0.3831
 2882TIP3    H230062   2.371  -0.001   5.376 -0.3823 -0.3735 -0.5535
 2883TIP3   OH230063   6.672   5.802   1.082 -0.4496  0.2132  0.2340
 2883TIP3    H130064   6.744   5.741   1.098  0.2479  0.9118 -0.1358
 2883TIP3    H230065   6.620   5.800   1.162 -1.1737 -1.8174 -0.2502
 2884TIP3   OH230066   0.100   3.070  15.374  0.4593 -1.0239  0.2538
 2884TIP3    H130067   0.169   3.100  15.433  1.3427 -2.2177 -0.1512
 2884TIP3    H230068   0.040   3.021  15.431  0.4245 -0.7586  0.4461
 2885TIP3   OH230069   0.461   1.355  12.085 -0.6808  1.2726 -0.3290
 2885TIP3    H130070   0.461   1.451  12.084  1.0010  1.3116 -0.3489
 2885TIP3    H230071   0.421   1.332  12.168 -1.1092  1.9977 -0.3263
 2886TIP3   OH230072   3.224   5.423  17.206  0.5917  0.1218  0.5596
 2886TIP3    H130073   3.144   5.471  17.185 -0.1676 -0.7972  1.2695
 2886TIP3    H230074   3.250   5.456  17.291  0.7122  0.0945  0.5336
 2887TIP3   OH230075   0.853   6.531  12.796  0.1116 -0.2974  0.3329
 2887TIP3    H130076   0.792   6.464  12.824 -1.1541  1.2131  1.3467
 2887TIP3    H230077   0.871   6.582  12.876  2.1218 -0.2529 -0.0980
 2888TIP3   OH230078   2.920   0.724   3.486 -0.6096 -0.5736 -0.0809
 2888TIP3    H130079   2.912   0.805   3.537  0.9036  0.1941 -0.9759
 2888TIP3    H230080   2.947   0.658   3.549 -0.2919 -0.0070  0.3840
 2889TIP3   OH230081   5.359   4.595  16.012 -0.1134 -0.3970  0.0512
 2889TIP3    H130082   5.367   4.652  16.089 -0.1813 -0.6322  0.2357
 2889TIP3    H230083   5.316   4.649  15.946 -1.4381 -0.6526  0.6675
 2890TIP3   OH230084   0.521   1.595   2.455 -0.0386 -0.1014  0.2460
 2890TIP3    H130085   0.591   1.640   2.503 -1.0116  1.9486 -0.1579
 2890TIP3    H230086   0.552   1.590   2.365 -0.5467  1.2272 -0.0297
 2891TIP3   OH230087   6.080   4.181  15.375  1.4005  0.0574  0.1985
 2891TIP3    H130088   5.997   4.163  15.330  1.3462  0.3151  0.1959
 2891TIP3    H230089   6.087   4.112  15.441  0.1816  1.1971  1.5802
 2892TIP3   OH230090   2.158   1.794  17.003  0.3871 -0.7850  0.1205
 2892TIP3    H130091   2.248   1.778  17.031  0.4237 -1.9207 -0.5774
 2892TIP3    H230092   2.119   1.707  16.995 -0.9190 -0.3042  0.8289
 2893TIP3   OH230093   2.757   3.689  15.307 -0.4274 -0.0320 -0.3485
 2893TIP3    H130094   2.739   3.681  15.400 -3.2060 -0.9662 -0.8672
 2893TIP3    H230095   2.790   3.779  15.296 -1.1353  0.4727  1.3879
 2894TIP3   OH230096   4.110   6.116  16.659  0.3270  0.4012 -0.0008
 2894TIP3    H130097   4.017   6.094  16.663  0.8382 -2.1336 -0.0527
 2894TIP3    H230098   4.140   6.078  16.576  1.5915  0.2942  0.4886
 2895TIP3   OH230099   0.619   4.406  12.520 -0.2874 -0.8848  0.5993
 2895TIP3    H130100   0.644   4.435  12.432 -3.3354 -3.4123 -1.3565
 2895TIP3    H230101   0.575   4.482  12.558 -1.2544 -0.4816 -1.1962
 2896TIP3   OH230102   0.469   2.027  12.214 -0.6111 -0.6837  0.0594
 2896TIP3    H130103   0.460   1.961  12.283 -0.0137  0.1594  0.9726
 2896TIP3    H230104   0.404   2.093  12.236  1.0053  0.6468  1.1013
 2897TIP3   OH230105   4.267   5.542  13.513 -0.1595  0.2898 -0.2201
 2897TIP3    H130106   4.214   5.465  13.532  0.7855 -0.2558  0.2974
 2897TIP3    H230107   4.270   5.590  13.596  0.4325  0.1286 -0.1392
 2898TIP3   OH230108   4.951   2.194   0.495  0.6299 -0.2803  0.4257
 2898TIP3    H130109   4.946   2.273   0.549  3.1545 -0.4730  1.0815
 2898TIP3    H230110   5.040   2.196   0.459  0.0586 -1.8043 -1.1854
 2899TIP3   OH230111   5.985   5.877  17.108 -0.1820  0.3308  1.0628
 2899TIP3    H130112   6.021   5.884  17.020  1.9266 -0.9562  1.7473
 2899TIP3    H230113   6.009   5.960  17.150  0.1358  0.3290  0.8834
 2900TIP3   OH230114   3.666   2.976   5.240  0.0768 -0.0914 -0.5905
 2900TIP3    H130115   3.689   3.027   5.163  1.1325  0.4645  0.0601
 2900TIP3    H230116   3.750   2.955   5.281 -0.4707  0.0390  0.6639
 2901TIP3   OH230117   2.800   1.165  15.025 -0.2131 -0.3727  0.1988
 2901TIP3    H130118   2.856   1.088  15.035 -1.2623 -1.3402 -0.9322
 2901TIP3    H230119   2.725   1.133  14.974 -0.9646  1.2677  0.2158
 2902TIP3   OH230120   3.933   0.806  15.771 -0.2082 -0.1788  0.0188
 2902TIP3    H130121   3.885   0.731  15.735  1.1545 -0.3773 -1.5069
 2902TIP3    H230122   3.929   0.872  15.702  0.6938  0.2318  0.3518
 2903TIP3   OH230123   5.054   4.211  13.385  0.0726 -1.0765  0.3057
 2903TIP3    H130124   5.096   4.213  13.471  0.6951 -0.1748  0.0023
 2903TIP3    H230125   4.988   4.281  13.389  0.9270 -0.2055 -0.3323
 2904TIP3   OH230126   6.229   2.405  12.438  0.1007  0.5437  0.2512
 2904TIP3    H130127   6.283   2.472  12.480  0.3637 -0.0661  0.9090
 2904TIP3    H230128   6.257   2.323  12.479 -2.2167  0.3422  1.5684
 2905TIP3   OH230129   6.350   0.306   6.917 -0.2487 -0.4923  0.4187
 2905TIP3    H130130   6.438   0.284   6.947  0.4601  1.8255  0.1943
 2905TIP3    H230131   6.345   0.269   6.828 -0.0410 -1.8035  0.9276
 2906TIP3   OH230132   4.556   5.622  11.913 -0.4285 -0.5066  0.0406
 2906TIP3    H130133   4.513   5.594  11.994 -0.9058 -2.0305 -0.7041
 2906TIP3    H230134   4.642   5.655  11.942 -1.9391  2.4883  1.5347
 2907TIP3   OH230135   4.757   3.462  12.715  0.0061 -0.0114  0.5272
 2907TIP3    H130136   4.665   3.434  12.720 -0.3583 -0.1542 -3.5950
 2907TIP3    H230137   4.752   3.556  12.698  0.3872 -0.3350 -1.7832
 2908TIP3   OH230138   1.915   2.102   1.662  0.1491 -0.1052  0.2178
 2908TIP3    H130139   1.990   2.090   1.721  0.9543 -0.0484 -0.7728
 2908TIP3    H230140   1.947   2.162   1.595 -0.5924 -0.5778 -0.5729
 2909TIP3   OH230141   4.397   0.848  16.350  0.7164  0.0882  0.8347
 2909TIP3    H130142   4.491   0.845  16.369  1.4325 -0.2143 -2.2810
 2909TIP3    H230143   4.377   0.760  16.318 -0.3973  0.4679  0.4763
 2910TIP3   OH230144   0.976   2.256  11.295 -0.3090  0.1299 -0.2549
 2910TIP3    H130145   1.058   2.226  11.257 -0.7202 -0.8946 -0.3530
 2910TIP3    H230146   0.915   2.182  11.285 -0.3923 -0.3130  2.4993
 2911TIP3   OH230147   1.229   5.119   3.350 -0.5497  0.0054 -0.3658
 2911TIP3    H130148   1.200   5.039   3.305  2.0028 -0.6779 -0.9476
 2911TIP3    H230149   1.162   5.184   3.328 -1.7766 -1.5087 -1.3353
 2912TIP3   OH230150   1.314   4.931   0.365 -0.3092 -0.1569  0.0233
 2912TIP3    H130151   1.318   4.957   0.273  0.1712 -0.5817 -0.0815
 2912TIP3    H230152   1.348   4.841   0.366 -1.0224 -0.4352  0.5094
 2913TIP3   OH230153   5.041   6.042   2.746  0.2642  0.1648  0.0629
 2913TIP3    H130154   5.125   5.997   2.747  0.0205 -0.4044  3.0031
 2913TIP3    H230155   4.978   5.976   2.717  0.5475  0.0234 -0.2307
 2914TIP3   OH230156   3.814   0.084   3.707 -0.3188  0.2004  0.3073
 2914TIP3    H130157   3.758   0.159   3.724 -0.1837  1.1443 -2.7988
 2914TIP3    H230158   3.756   0.019   3.668  0.0846 -0.1905  0.3494
 2915TIP3   OH230159   4.975   1.463  12.003  0.0654 -0.2429 -0.3388
 2915TIP3    H130160   5.041   1.518  11.961 -0.4261 -0.4686 -1.4467
 2915TIP3    H230161   4.909   1.449  11.935  0.2102 -2.2668 -0.1267
 2916TIP3   OH230162   5.868   6.080  16.130  0.0261  0.2130  0.3434
 2916TIP3    H130163   5.790   6.033  16.161 -0.5260  0.6523 -0.3184
 2916TIP3    H230164   5.837   6.126  16.052  1.1847 -0.3369 -0.4714
 2917TIP3   OH230165   4.521   6.261   0.019 -0.1812  0.3580  0.1060
 2917TIP3    H130166   4.575   6.273  -0.059 -1.1897 -3.7917 -1.4776
 2917TIP3    H230167   4.582   6.232   0.087  0.5075  2.8222  0.6578
 2918TIP3   OH230168   5.017   3.248  14.364  0.5821  0.0549 -0.2197
 2918TIP3    H130169   5.071   3.175  14.336  0.2602  0.2897 -1.4947
 2918TIP3    H230170   4.945   3.250  14.301  0.5892  1.4621 -0.2084
 2919TIP3   OH230171   4.705   3.680  15.586 -0.2021  0.5153 -0.1231
 2919TIP3    H130172   4.771   3.727  15.637  0.8345  1.3734 -2.1331
 2919TIP3    H230173   4.751   3.602  15.554 -0.3367  0.8008 -1.0332
 2920TIP3   OH230174   0.952   5.573   1.987 -0.1519 -0.0866  0.1899
 2920TIP3    H130175   0.859   5.574   1.964 -0.0316  0.7420 -0.2882
 2920TIP3    H230176   0.989   5.504   1.932 -0.3308  0.1621 -0.2476
 2921TIP3   OH230177   5.031   5.608  12.253 -0.0784  0.7864  0.3760
 2921TIP3    H130178   4.968   5.680  12.257 -0.2317  0.6690  0.0858
 2921TIP3    H230179   4.977   5.529  12.250  0.0923  0.6323  1.1777
 2922TIP3   OH230180   0.254   4.123   5.086 -0.0427  0.2073  0.0846
 2922TIP3    H130181   0.295   4.169   5.160  1.5624  0.2184 -0.7616
 2922TIP3    H230182   0.281   4.032   5.096 -0.7703 -0.0081  0.1326
 2923TIP3   OH230183   1.502   3.952   5.288  0.1963  0.0240 -0.0515
 2923TIP3    H130184   1.495   3.899   5.368  0.4209 -0.9949 -0.6981
 2923TIP3    H230185   1.451   4.031   5.308  1.0617  0.2440  1.4544
 2924TIP3   OH230186   5.448   4.784  12.088 -0.2815  0.0043  0.1110
 2924TIP3    H130187   5.371   4.797  12.144 -0.4197 -0.4746  0.0375
 2924TIP3    H230188   5.439   4.849  12.018  0.4772  1.4001  1.2488
 2925TIP3   OH230189   3.108   3.982  15.136  0.0781  0.0822  0.5995
 2925TIP3    H130190   3.195   3.989  15.174  0.6783 -0.0757 -0.6727
 2925TIP3    H230191   3.100   4.059  15.079 -0.5240 -0.0246  0.5304
 2926TIP3   OH230192   6.221   3.022   0.700 -0.0969  0.0777  0.4687
 2926TIP3    H130193   6.195   2.930   0.697 -0.6159  0.2340  0.1317
 2926TIP3    H230194   6.185   3.061   0.620  1.4618  0.2316 -0.1884
 2927TIP3   OH230195   1.858   4.318   3.728 -0.0362  0.2135  0.2276
 2927TIP3    H130196   1.837   4.270   3.808  2.0744 -0.1821  0.5880
 2927TIP3    H230197   1.880   4.406   3.759 -2.5282  1.1253 -0.3057
 2928TIP3   OH230198   2.118   3.721  12.305 -0.1351  0.6461  0.3884
 2928TIP3    H130199   2.035   3.685  12.335 -0.3497  0.0990 -0.8105
 2928TIP3    H230200   2.094   3.797  12.252  0.2561  1.8339  1.8313
 2929TIP3   OH230201   2.829   3.897  13.308  0.1723  0.0894  0.1762
 2929TIP3    H130202   2.860   3.987  13.309 -0.6525  0.3789  1.2844
 2929TIP3    H230203   2.734   3.904  13.307  0.0451 -0.7368  2.1660
 2930TIP3   OH230204   2.160   1.407  15.324 -0.0860 -0.5387 -0.3345
 2930TIP3    H130205   2.226   1.466  15.287 -0.0605  0.2327  0.8808
 2930TIP3    H230206   2.083   1.462  15.336 -0.8052 -1.3096 -1.2359
 2931TIP3   OH230207   4.621   4.850   2.764 -0.1794  0.3213  0.3865
 2931TIP3    H130208   4.592   4.787   2.699 -0.5226  0.3091  0.5468
 2931TIP3    H230209   4.649   4.797   2.839 -0.2902  0.3535  0.4505
 2932TIP3   OH230210   6.168   5.904  10.670 -0.0205  0.4500 -0.1908
 2932TIP3    H130211   6.111   5.971  10.706 -0.4216 -0.2911  0.5909
 2932TIP3    H230212   6.246   5.904  10.726 -0.1775  0.0275  0.0331
 2933TIP3   OH230213   5.433   4.289  12.440  0.0841  0.2933 -0.0493
 2933TIP3    H130214   5.388   4.211  12.408  0.1723  0.4122 -0.4699
 2933TIP3    H230215   5.400   4.360  12.384  1.3298  0.2677 -0.8387
 2934TIP3   OH230216   0.687   5.082  11.841  0.1454  0.5568 -0.3523
 2934TIP3    H130217   0.658   5.172  11.853 -0.4964  0.0975  2.1236
 2934TIP3    H230218   0.614   5.029  11.874  1.4235 -0.7901  0.4331
 2935TIP3   OH230219   0.378   1.201   1.274 -0.6832 -0.0361  0.1856
 2935TIP3    H130220   0.351   1.204   1.366 -2.8065  1.6195 -0.4046
 2935TIP3    H230221   0.325   1.130   1.237 -1.2959  0.5774 -0.1373
 2936TIP3   OH230222   5.309   4.237   2.944 -0.3749  0.2393  0.6955
 2936TIP3    H130223   5.346   4.192   3.020  0.7845 -1.0881 -0.5804
 2936TIP3    H230224   5.258   4.169   2.899  0.2489  0.5374 -0.5217
 2937TIP3   OH230225   2.149   0.437  12.237 -0.0527 -0.1436 -0.4397
 2937TIP3    H130226   2.129   0.515  12.287 -0.0925 -1.8942  2.4900
 2937TIP3    H230227   2.239   0.415  12.260 -0.0272 -0.9566 -1.2420
 2938TIP3   OH230228   4.437   6.417   5.978 -0.0988  0.3264  0.0630
 2938TIP3    H130229   4.486   6.356   5.923 -3.0890 -3.2338  0.8665
 2938TIP3    H230230   4.495   6.436   6.051  0.2557 -3.9256  1.1579
 2939TIP3   OH230231   4.826   4.994  15.880 -0.0888 -0.2780  0.3413
 2939TIP3    H130232   4.837   4.993  15.975  0.3645 -0.2251  0.2953
 2939TIP3    H230233   4.842   4.903  15.853 -0.7082 -0.3971  0.3618
 2940TIP3   OH230234   4.190   5.051  12.206 -0.2710 -0.0852 -0.3256
 2940TIP3    H130235   4.097   5.060  12.225  0.0414 -1.6272  2.7023
 2940TIP3    H230236   4.211   4.960  12.230  2.8624  1.5047  4.4949
 2941TIP3   OH230237   1.030   2.623   4.522  0.2534  0.2156  0.9385
 2941TIP3    H130238   0.947   2.636   4.567  0.1649 -0.0120  0.8364
 2941TIP3    H230239   1.093   2.608   4.592 -0.1824 -1.9054  0.9321
 2942TIP3   OH230240   2.448   2.791  11.304  0.0205  0.6965  0.2134
 2942TIP3    H130241   2.498   2.799  11.223  0.6677  2.8251  0.7605
 2942TIP3    H230242   2.507   2.824  11.372 -1.2511  0.9050  1.2556
 2943TIP3   OH230243   2.473   5.296  14.939  0.0583 -0.6701 -0.0660
 2943TIP3    H130244   2.382   5.312  14.913  0.1927 -1.1579 -0.8544
 2943TIP3    H230245   2.485   5.350  15.018 -0.8437 -0.4311 -0.0810
 2944TIP3   OH230246   1.517   1.287  15.433  0.0493  0.2495  0.1158
 2944TIP3    H130247   1.497   1.204  15.476 -2.4998  0.9368  0.4172
 2944TIP3    H230248   1.456   1.292  15.360  0.1489  1.8532  0.0974
 2945TIP3   OH230249   0.455   6.515   1.053  0.3068  0.2965  0.2821
 2945TIP3    H130250   0.467   6.455   0.979  0.6355  0.2104  0.4065
 2945TIP3    H230251   0.513   6.482   1.121 -1.3627 -0.7478  1.2844
 2946TIP3   OH230252   0.771   2.575   2.406 -0.5428 -0.0209  0.6576
 2946TIP3    H130253   0.694   2.525   2.432  0.3627 -1.5156  0.5473
 2946TIP3    H230254   0.801   2.533   2.326 -0.4401  1.4712 -0.1352
 2947TIP3   OH230255   0.425   6.236  14.914  0.1616  0.3206 -0.5578
 2947TIP3    H130256   0.518   6.253  14.922  0.1829  1.4539 -2.4604
 2947TIP3    H230257   0.417   6.141  14.915  1.2683  0.2281  0.1096
 2948TIP3   OH230258   2.457   0.489   1.307 -0.1275  0.1204  0.1055
 2948TIP3    H130259   2.510   0.466   1.383  0.6871  0.4587 -0.3508
 2948TIP3    H230260   2.520   0.512   1.239 -0.8529  0.2868 -0.5321
 2949TIP3   OH230261   1.003   0.620  13.788  0.0030  0.2810 -0.3014
 2949TIP3    H130262   0.946   0.544  13.778 -0.7245  0.6597  0.7644
 2949TIP3    H230263   1.090   0.584  13.798 -0.1125 -0.3338 -1.3599
 2950TIP3   OH230264   1.589   4.717  13.524 -0.3372 -0.0851 -0.3747
 2950TIP3    H130265   1.532   4.762  13.587 -0.5354  1.7934 -1.8198
 2950TIP3    H230266   1.621   4.640  13.572 -1.5476  0.5311  1.5465
 2951TIP3   OH230267   2.458   4.701  12.307  0.1882  0.5102 -0.4569
 2951TIP3    H130268   2.368   4.733  12.311 -0.4887 -1.1028 -1.5402
 2951TIP3    H230269   2.493   4.736  12.225  0.9227  1.9234  0.4122
 2952TIP3   OH230270   5.476   6.718  16.563  0.1927  0.0338 -0.4316
 2952TIP3    H130271   5.387   6.725  16.598  0.7693  2.3256  0.8059
 2952TIP3    H230272   5.500   6.627  16.577 -1.7556 -0.5185 -0.3142
 2953TIP3   OH230273   0.539   2.082  10.860  0.1459  0.3415  0.9021
 2953TIP3    H130274   0.490   2.024  10.801  0.8228  0.5955  0.0703
 2953TIP3    H230275   0.592   2.023  10.913  0.4877  0.1755  0.3776
 2954TIP3   OH230276   1.178   5.535  11.042  0.2263 -0.0574  0.1516
 2954TIP3    H130277   1.108   5.470  11.053  0.2086  0.0443  0.6334
 2954TIP3    H230278   1.187   5.543  10.947  0.2908 -0.8284  0.0887
 2955TIP3   OH230279   1.136   0.678  11.845 -0.1317 -0.0221 -0.2727
 2955TIP3    H130280   1.206   0.743  11.844 -0.4572  0.3301 -0.1636
 2955TIP3    H230281   1.077   0.704  11.773 -0.3346 -0.1138 -0.1407
 2956TIP3   OH230282   3.747   4.266   2.389  0.4599  0.4247 -0.2201
 2956TIP3    H130283   3.658   4.266   2.424  0.8809 -0.0671  0.8966
 2956TIP3    H230284   3.788   4.343   2.429 -0.1818  2.1771 -2.7331
 2957TIP3   OH230285   3.824   2.813   1.911  0.3342  0.1954 -0.0115
 2957TIP3    H130286   3.751   2.760   1.945 -0.6634  0.6038 -1.4354
 2957TIP3    H230287   3.891   2.807   1.979 -1.2920  0.4173  1.6960
 2958TIP3   OH230288   3.602   4.806   5.703 -0.2373 -0.0903  0.2067
 2958TIP3    H130289   3.543   4.817   5.778 -2.0154  0.4108 -1.2229
 2958TIP3    H230290   3.604   4.711   5.689 -0.7140 -0.1067  0.2434
 2959TIP3   OH230291   1.225   3.639   5.220 -0.7568  0.4576 -0.2032
 2959TIP3    H130292   1.309   3.622   5.262 -0.9523  0.4441  0.1944
 2959TIP3    H230293   1.185   3.708   5.274 -2.1055 -1.3106  1.1876
 2960TIP3   OH230294   3.498   0.506   1.873 -0.0289 -0.2197 -0.0978
 2960TIP3    H130295   3.551   0.513   1.953 -0.2360 -1.5579  0.1691
 2960TIP3    H230296   3.473   0.597   1.854  1.7976  0.3866  0.1367
 2961TIP3   OH230297   6.541   6.384  15.459 -1.1181  0.0375  0.5086
 2961TIP3    H130298   6.451   6.396  15.430 -1.4279  1.8494  2.0306
 2961TIP3    H230299   6.536   6.317  15.527 -1.2245 -0.2801  0.1882
 2962TIP3   OH230300   4.834   2.781   5.209  0.8425  0.4108 -0.8683
 2962TIP3    H130301   4.842   2.753   5.300  1.4049  1.2713 -0.6468
 2962TIP3    H230302   4.846   2.700   5.159 -3.6521 -0.9599 -0.1681
 2963TIP3   OH230303   0.376   1.701   0.908  0.5257  0.5059 -0.1852
 2963TIP3    H130304   0.297   1.647   0.909  0.2970  0.7737  2.4795
 2963TIP3    H230305   0.344   1.791   0.921  1.0983  1.0006 -1.9715
 2964TIP3   OH230306   1.262   2.159  15.332  0.0256  0.4285  0.2095
 2964TIP3    H130307   1.292   2.093  15.271  1.5149 -0.0173  1.3552
 2964TIP3    H230308   1.331   2.163  15.399 -0.4989  2.4228  0.7012
 2965TIP3   OH230309   6.460   6.658   4.218  0.3670 -0.1346 -0.1025
 2965TIP3    H130310   6.545   6.693   4.245 -0.2654  1.9781 -0.6692
 2965TIP3    H230311   6.420   6.626   4.300  1.3135 -0.2855  0.3101
 2966TIP3   OH230312   1.768   1.853   4.687  0.0458 -0.3702  0.0461
 2966TIP3    H130313   1.845   1.907   4.708  0.7672 -1.5571  0.5580
 2966TIP3    H230314   1.786   1.821   4.598 -1.2302  1.6043 -1.0152
 2967TIP3   OH230315   5.813   3.447  15.037  0.5217  0.5169 -0.9733
 2967TIP3    H130316   5.775   3.373  15.084  0.2038  0.7237 -0.9035
 2967TIP3    H230317   5.756   3.460  14.962 -1.0563  2.4056  0.4338
 2968TIP3   OH230318   0.129   1.585  14.640  0.4949  0.2148 -0.0287
 2968TIP3    H130319   0.179   1.664  14.617  2.8081 -0.8451  1.1012
 2968TIP3    H230320   0.055   1.618  14.690  0.1673  1.8220 -1.4524
 2969TIP3   OH230321   3.490   3.549   6.479 -0.0846 -0.3791  0.1824
 2969TIP3    H130322   3.575   3.526   6.442 -0.5531 -1.6150 -0.1525
 2969TIP3    H230323   3.499   3.641   6.503  0.8835 -0.0945 -1.1614
 2970TIP3   OH230324   5.459   6.159  12.808 -0.1392  0.4783 -0.1812
 2970TIP3    H130325   5.461   6.237  12.864  2.0334  1.5568 -1.6609
 2970TIP3    H230326   5.470   6.086  12.869  1.7872  1.5917  0.8897
 2971TIP3   OH230327   5.255   6.547   2.512 -1.1993 -0.6167  0.3132
 2971TIP3    H130328   5.350   6.548   2.498 -1.2188  0.7412  0.1351
 2971TIP3    H230329   5.217   6.546   2.424 -1.3351  0.1700  0.3540
 2972TIP3   OH230330   3.246   4.446  12.352 -0.3773  0.0275  0.2709
 2972TIP3    H130331   3.195   4.431  12.272  0.2969  0.8868 -0.3479
 2972TIP3    H230332   3.196   4.513  12.399 -0.7375 -0.4272  0.5468
 2973TIP3   OH230333   0.464   5.950  14.959  0.0276  0.4590  0.2743
 2973TIP3    H130334   0.502   5.962  15.046 -0.2720  0.9016  0.3469
 2973TIP3    H230335   0.537   5.920  14.904  0.7731  2.3899  0.1275
 2974TIP3   OH230336   4.755   2.957   5.501 -0.0805 -0.1975 -0.8155
 2974TIP3    H130337   4.736   3.035   5.552 -0.5220 -1.6399  1.3584
 2974TIP3    H230338   4.690   2.957   5.431  0.8030  2.0438 -1.7426
 2975TIP3   OH230339   5.829   6.179   3.383  0.1661  0.4555  0.3316
 2975TIP3    H130340   5.760   6.206   3.443  0.5498  2.8071 -0.1742
 2975TIP3    H230341   5.838   6.253   3.322 -1.1318 -2.2518 -3.5290
 2976TIP3   OH230342   3.923   4.741   5.511 -0.1072 -0.1903 -0.3680
 2976TIP3    H130343   3.902   4.802   5.440 -0.6615  0.5848  0.4322
 2976TIP3    H230344   3.924   4.655   5.470  0.7184  0.3517 -1.5390
 2977TIP3   OH230345   1.355   5.891   2.272 -0.1529  0.3188 -0.3278
 2977TIP3    H130346   1.418   5.930   2.211  1.0635  1.1648  1.3709
 2977TIP3    H230347   1.330   5.964   2.329  1.3241 -1.0304  2.2432
 2978TIP3   OH230348   1.295   4.130   2.803  0.2544 -0.3887 -0.1958
 2978TIP3    H130349   1.259   4.215   2.829  0.4379  0.6271 -2.9045
 2978TIP3    H230350   1.219   4.082   2.770  0.4672 -0.5078 -0.5091
 2979TIP3   OH230351   0.683   3.008   1.833 -0.4821 -0.0714  0.3433
 2979TIP3    H130352   0.670   3.094   1.793 -1.2066 -0.5606 -0.5317
 2979TIP3    H230353   0.648   3.016   1.921  0.0861  0.7148  0.5082
 2980TIP3   OH230354   4.782   5.945  15.337  0.1755  0.1978  0.3488
 2980TIP3    H130355   4.830   5.887  15.397  0.8157  1.2325  0.8740
 2980TIP3    H230356   4.844   6.015  15.317 -0.7358  0.9653  0.1199
 2981TIP3   OH230357   2.071   2.980   2.812 -0.1478 -0.1753 -0.6206
 2981TIP3    H130358   2.135   2.919   2.847  1.5507  1.4053 -0.7946
 2981TIP3    H230359   2.123   3.056   2.785 -1.9276  0.5458 -2.2438
 2982TIP3   OH230360   5.204   6.772  15.113  0.8079 -0.6805 -0.4348
 2982TIP3    H130361   5.292   6.772  15.076  0.4193 -2.6708 -1.4530
 2982TIP3    H230362   5.147   6.793  15.039  0.3099 -0.8480 -0.0983
 2983TIP3   OH230363   5.591   4.336  17.194 -0.8650 -0.4978 -0.2345
 2983TIP3    H130364   5.637   4.383  17.264  0.2449  0.5840 -1.6266
 2983TIP3    H230365   5.551   4.405  17.141 -1.4000 -1.2760 -0.8754
 2984TIP3   OH230366   3.631   2.858  11.122  0.3992 -0.1195 -0.2832
 2984TIP3    H130367   3.611   2.790  11.058 -0.6565 -1.5225  1.4405
 2984TIP3    H230368   3.614   2.940  11.075 -0.4926 -1.0865 -1.7510
 2985TIP3   OH230369   4.316   6.639  13.782  0.3302  0.1204  0.1057
 2985TIP3    H130370   4.362   6.608  13.703 -0.8478  1.6277 -1.2532
 2985TIP3    H230371   4.378   6.698  13.824 -0.1348  1.9344 -1.5716
 2986TIP3   OH230372   1.793   3.149  16.248  0.0335  0.5656  0.0651
 2986TIP3    H130373   1.872   3.115  16.205  0.9300  1.8215  0.6448
 2986TIP3    H230374   1.820   3.161  16.340 -0.8966  0.8443  0.3087
 2987TIP3   OH230375   0.603   2.682  13.974  0.1003  0.1208 -0.2842
 2987TIP3    H130376   0.624   2.689  13.881  1.7950 -0.8450 -0.0157
 2987TIP3    H230377   0.580   2.771  14.001  1.7228  0.8377 -1.1522
 2988TIP3   OH230378   6.445   1.304  16.950  0.7780 -0.1309 -0.4464
 2988TIP3    H130379   6.398   1.221  16.952 -2.7468  1.6706 -0.1570
 2988TIP3    H230380   6.492   1.308  17.033 -0.6053 -1.0209  0.4179
 2989TIP3   OH230381   6.742   3.909   0.065 -0.2738  0.2124  0.2354
 2989TIP3    H130382   6.687   3.839   0.031  2.0215 -1.2135 -0.7004
 2989TIP3    H230383   6.768   3.879   0.152  1.1662 -0.4125 -0.3857
 2990TIP3   OH230384   2.636   6.697  13.880  0.3728 -0.3496  0.2811
 2990TIP3    H130385   2.592   6.612  13.877 -0.8494  0.2634 -2.6988
 2990TIP3    H230386   2.729   6.675  13.881  0.1294 -1.6606  2.7062
 2991TIP3   OH230387   4.488   1.308   0.747  0.2027  0.6607 -0.5027
 2991TIP3    H130388   4.492   1.398   0.713 -1.2826  2.8591  4.2518
 2991TIP3    H230389   4.568   1.298   0.798  0.1451 -0.5792 -0.6343
 2992TIP3   OH230390   5.332   0.838  13.457  0.1867  0.6486  0.2785
 2992TIP3    H130391   5.282   0.784  13.517 -0.6237  1.3748  0.2772
 2992TIP3    H230392   5.270   0.860  13.387  1.0790 -0.1111 -0.7950
 2993TIP3   OH230393   3.253   2.727   3.996  0.3253  0.0061  0.4042
 2993TIP3    H130394   3.172   2.690   4.030  0.0606  0.6691  0.5080
 2993TIP3    H230395   3.319   2.660   4.014 -0.3725 -1.0299 -0.6687
 2994TIP3   OH230396   3.744   1.215  11.964 -0.0961  0.7425 -0.0487
 2994TIP3    H130397   3.690   1.184  11.891  0.4213  2.6127 -1.2862
 2994TIP3    H230398   3.686   1.209  12.040 -1.1627  0.1913 -0.8761
 2995TIP3   OH230399   2.208   4.355  15.188 -0.1907 -0.3442  0.2239
 2995TIP3    H130400   2.146   4.284  15.176 -2.3177  1.3626  0.5000
 2995TIP3    H230401   2.212   4.367  15.283 -1.4202  1.1239  0.1366
 2996TIP3   OH230402   4.273   1.980  13.483  0.2064  0.4502 -0.3504
 2996TIP3    H130403   4.181   1.994  13.507  0.3762 -1.3693  1.5844
 2996TIP3    H230404   4.271   1.906  13.423  0.4216  0.4884 -0.4073
 2997TIP3   OH230405   5.145   0.043   3.130  0.7552  0.4535  1.0395
 2997TIP3    H130406   5.230   0.086   3.139 -0.5605  3.2564  0.9630
 2997TIP3    H230407   5.093   0.103   3.078 -0.8855 -1.8754 -0.2078
 2998TIP3   OH230408   1.355   2.367  14.278  0.3596  0.1336  0.4543
 2998TIP3    H130409   1.322   2.427  14.344 -0.5513  0.3312 -0.1644
 2998TIP3    H230410   1.399   2.424  14.214 -0.7448  0.1884 -0.2762
 2999TIP3   OH230411   4.853   1.381  15.772 -0.1452 -0.1401  1.1815
 2999TIP3    H130412   4.760   1.368  15.789  0.1497 -2.0370  1.6668
 2999TIP3    H230413   4.893   1.381  15.859  0.6843 -3.3501  0.9252
 3000TIP3   OH230414   0.272   3.490   1.408  0.6590 -0.0629 -0.4068
 3000TIP3    H130415   0.331   3.432   1.457  0.2890 -0.9742 -1.0264
 3000TIP3    H230416   0.320   3.512   1.328  0.8305  0.5701 -0.1404
 3001TIP3   OH230417   0.206   5.802  16.700 -0.4022 -0.1846  0.5337
 3001TIP3    H130418   0.290   5.796  16.654 -0.9435  0.1485 -0.5294
 3001TIP3    H230419   0.190   5.896  16.711 -0.8766 -0.2295  0.2702
 3002TIP3   OH230420   0.393   3.957  11.840  0.0525  0.5778  0.5850
 3002TIP3    H130421   0.310   3.915  11.819 -0.3698  0.5053  2.2419
 3002TIP3    H230422   0.369   4.045  11.868  0.8260  1.5817 -1.6366
 3003TIP3   OH230423   4.239   0.556   0.474 -0.1345 -0.3270  0.0575
 3003TIP3    H130424   4.216   0.617   0.403  3.0455 -0.8396 -1.5558
 3003TIP3    H230425   4.167   0.493   0.475 -0.4543 -0.1065 -2.5289
 3004TIP3   OH230426   2.660   3.944   4.320 -0.1346  0.2741 -0.5830
 3004TIP3    H130427   2.641   3.873   4.380 -1.4681 -0.2780 -1.6313
 3004TIP3    H230428   2.644   4.024   4.371 -0.1280 -0.1709  0.1254
 3005TIP3   OH230429   0.892   4.945  11.762  0.2542  0.1855 -0.0967
 3005TIP3    H130430   0.884   4.903  11.847  0.1262  0.9007  0.2471
 3005TIP3    H230431   0.830   5.018  11.765  0.6026  0.5120 -0.6217
 3006TIP3   OH230432   2.991   3.947  16.494  0.2171  0.3188  0.6481
 3006TIP3    H130433   3.004   3.966  16.401  0.0643 -0.9641  0.3536
 3006TIP3    H230434   3.076   3.919  16.525 -0.3870 -2.3048  0.1241
 3007TIP3   OH230435   3.220   6.771   2.381  0.4677  0.1598  0.3532
 3007TIP3    H130436   3.170   6.762   2.462  1.4920  0.2736  1.0239
 3007TIP3    H230437   3.210   6.687   2.336 -0.2744  0.1712  0.4948
 3008TIP3   OH230438   3.894   0.402  15.592  0.2409 -0.0042  0.1810
 3008TIP3    H130439   3.817   0.454  15.613  0.3546 -0.8435  3.1635
 3008TIP3    H230440   3.860   0.321  15.553 -0.2655  0.2919  0.0067
 3009TIP3   OH230441   5.445   1.476   5.804 -0.4414  0.1296 -0.5074
 3009TIP3    H130442   5.424   1.552   5.750  1.7042  0.0061 -1.5923
 3009TIP3    H230443   5.509   1.508   5.867 -0.1748 -0.5588 -0.4186
 3010TIP3   OH230444   5.297   0.692  10.880 -1.0012  0.6007 -0.4111
 3010TIP3    H130445   5.203   0.682  10.861 -0.7697 -1.3830 -0.7421
 3010TIP3    H230446   5.340   0.674  10.797 -0.2793  0.1696  0.0513
 3011TIP3   OH230447   2.749   3.456   2.525  0.4556 -0.5289  0.6324
 3011TIP3    H130448   2.669   3.457   2.473 -0.0984 -0.0017  1.4791
 3011TIP3    H230449   2.814   3.501   2.470 -0.5276  1.4303  1.0022
 3012TIP3   OH230450   5.714   6.470  16.647 -0.4895  0.2147  0.5044
 3012TIP3    H130451   5.706   6.449  16.740 -1.3984  1.1780  0.6653
 3012TIP3    H230452   5.629   6.446  16.610 -0.0593 -0.3709 -0.1351
 3013TIP3   OH230453   0.746   5.466  12.354  0.3371 -0.1128 -0.0038
 3013TIP3    H130454   0.827   5.516  12.349  0.9954 -0.8083  2.1977
 3013TIP3    H230455   0.766   5.394  12.415 -1.2738 -1.6566 -1.1725
 3014TIP3   OH230456   0.393   0.291   1.154  0.3304 -0.3712  0.2466
 3014TIP3    H130457   0.436   0.213   1.118 -1.0998 -0.4384 -1.4125
 3014TIP3    H230458   0.338   0.258   1.224 -0.4761 -0.9220 -0.6260
 3015TIP3   OH230459   1.358   4.445   1.981 -0.7755 -0.3194 -0.2932
 3015TIP3    H130460   1.278   4.392   1.988 -1.9336  1.3983 -0.0600
 3015TIP3    H230461   1.388   4.455   2.071 -1.0028  0.0635 -0.2581
 3016TIP3   OH230462   5.686   4.021   1.484  0.1350  0.4177  0.6953
 3016TIP3    H130463   5.639   3.938   1.482 -1.8044  1.4422  0.6251
 3016TIP3    H230464   5.704   4.036   1.577  1.8345 -0.7393  0.5910
 3017TIP3   OH230465   6.042   1.220  12.067  0.1106 -0.6731 -0.1281
 3017TIP3    H130466   6.082   1.279  12.002 -1.2878  0.8869  0.3506
 3017TIP3    H230467   6.055   1.265  12.150 -0.5144 -1.3138  0.3238
 3018TIP3   OH230468   3.002   4.290   1.175  0.4018  0.1482  0.0649
 3018TIP3    H130469   2.962   4.254   1.254 -1.1167 -0.0429 -0.7556
 3018TIP3    H230470   3.057   4.219   1.141 -0.5462 -0.4992 -0.1410
 3019TIP3   OH230471   6.641   1.167  13.824  0.7191  0.3204 -0.3226
 3019TIP3    H130472   6.657   1.091  13.880  0.4220  0.6538  0.2314
 3019TIP3    H230473   6.546   1.177  13.824  0.5967 -0.5942 -2.1506
 3020TIP3   OH230474   0.582   2.164   5.219  0.5892 -0.4407 -0.1643
 3020TIP3    H130475   0.524   2.174   5.294  1.5002  1.9713  0.3251
 3020TIP3    H230476   0.534   2.108   5.158 -1.5199  0.1098  0.9037
 3021TIP3   OH230477   5.671   5.770   6.058 -0.4137 -0.1782  0.3715
 3021TIP3    H130478   5.646   5.828   6.129  1.0251 -0.2138  0.9571
 3021TIP3    H230479   5.606   5.785   5.989 -1.9709 -0.2944  1.7567
 3022TIP3   OH230480   2.603   6.257  16.525 -0.0215  0.2441  0.2589
 3022TIP3    H130481   2.604   6.351  16.545 -0.1703  0.5659 -1.1510
 3022TIP3    H230482   2.685   6.224  16.561 -0.7813  0.5108  2.4409
 3023TIP3   OH230483   6.282   6.755   2.446 -0.9749 -0.0167 -0.7797
 3023TIP3    H130484   6.256   6.792   2.361  1.3302  1.8137 -0.7819
 3023TIP3    H230485   6.237   6.811   2.510 -0.0890  0.7462 -0.8058
 3024TIP3   OH230486   1.642   3.011   1.409 -0.0348 -0.3353  0.6011
 3024TIP3    H130487   1.576   3.055   1.354 -0.4474  0.7081  1.8707
 3024TIP3    H230488   1.720   3.067   1.402 -0.0933 -0.1899  1.0735
 3025TIP3   OH230489   1.869   1.170   4.877 -0.3895  0.2566  0.5337
 3025TIP3    H130490   1.844   1.092   4.928  0.0418  0.6780  1.4182
 3025TIP3    H230491   1.964   1.171   4.880 -0.2961 -0.2887 -1.2126
 3026TIP3   OH230492   3.857   2.388  15.528  0.2842  0.2543  0.0616
 3026TIP3    H130493   3.914   2.311  15.532  1.6229  1.1089 -1.3306
 3026TIP3    H230494   3.774   2.358  15.565 -0.0282 -2.6148 -2.4830
 3027TIP3   OH230495   0.729   2.460  14.035  0.0291  0.2388  0.6002
 3027TIP3    H130496   0.710   2.444  14.128 -0.9421 -1.1292  0.1977
 3027TIP3    H230497   0.679   2.539  14.014  0.8546  1.0040  1.4022
 3028TIP3   OH230498   6.445   0.124  16.560 -0.3258  0.6707  0.0241
 3028TIP3    H130499   6.512   0.060  16.584  0.3335  0.9733 -0.9735
 3028TIP3    H230500   6.410   0.093  16.476 -0.2523  1.4118 -0.2930
 3029TIP3   OH230501   5.273   3.890   3.741  0.1772  0.1469  0.2849
 3029TIP3    H130502   5.223   3.816   3.774 -0.2880 -0.1715 -1.0665
 3029TIP3    H230503   5.342   3.904   3.806  1.0209 -2.2436 -0.0096
 3030TIP3   OH230504   1.469   1.434  13.883 -0.0587  0.6091 -0.4640
 3030TIP3    H130505   1.555   1.441  13.839 -1.3200  4.4118 -2.8865
 3030TIP3    H230506   1.416   1.381  13.823  0.6557 -2.5432  1.4833
 3031TIP3   OH230507   4.862   4.070  11.399  0.1937  0.0710  0.3568
 3031TIP3    H130508   4.814   4.005  11.451  0.2494  0.8382  1.4037
 3031TIP3    H230509   4.825   4.062  11.311  0.8302 -2.0016  0.2141
 3032TIP3   OH230510   4.436   3.620   2.170  0.0422 -0.2321  0.5479
 3032TIP3    H130511   4.521   3.577   2.167 -0.4603 -1.3065  1.1910
 3032TIP3    H230512   4.380   3.568   2.111  0.0887  1.1041 -0.7314
 3033TIP3   OH230513   5.219   1.263  11.240 -0.2635  0.6676 -0.3540
 3033TIP3    H130514   5.312   1.287  11.238  0.2305 -1.0220  0.6221
 3033TIP3    H230515   5.204   1.234  11.330 -0.8944 -2.1991 -1.3015
 3034TIP3   OH230516   6.456   6.737   2.053 -0.5132  0.2235 -0.2594
 3034TIP3    H130517   6.496   6.822   2.069  1.0425 -0.6442  0.7313
 3034TIP3    H230518   6.491   6.710   1.968 -1.2865  0.7096 -0.7409
 3035TIP3   OH230519   3.485   6.603   3.022 -0.3478 -0.0924 -0.0110
 3035TIP3    H130520   3.434   6.542   3.075 -0.3444  0.6516  0.8769
 3035TIP3    H230521   3.569   6.609   3.067 -0.2565  0.3698 -0.2392
 3036TIP3   OH230522   0.788   1.444   0.685  0.3579 -0.2497 -0.0377
 3036TIP3    H130523   0.704   1.489   0.674  1.4250  1.8516 -0.1845
 3036TIP3    H230524   0.807   1.452   0.779  0.6671 -0.1965 -0.1050
 3037TIP3   OH230525   0.409   4.866  12.961 -0.4286  0.0156  0.4033
 3037TIP3    H130526   0.470   4.793  12.964 -0.1195  0.2766  0.6244
 3037TIP3    H230527   0.353   4.854  13.038 -0.1744  0.1795  0.6189
 3038TIP3   OH230528   1.357   1.686  11.742 -0.1298  0.0417  0.4949
 3038TIP3    H130529   1.316   1.599  11.745 -0.7815  0.3137 -0.2476
 3038TIP3    H230530   1.351   1.718  11.832  0.8708 -1.0054  0.9672
 3039TIP3   OH230531   1.657   2.621   4.139 -0.0397 -0.0226 -0.4640
 3039TIP3    H130532   1.751   2.632   4.120  0.8763 -3.7848  0.9439
 3039TIP3    H230533   1.617   2.609   4.053  0.4240  2.9239 -1.2022
 3040TIP3   OH230534   2.486   0.380   1.859  0.2393 -0.0187 -0.1424
 3040TIP3    H130535   2.544   0.455   1.851  0.9286 -0.4556  0.6206
 3040TIP3    H230536   2.518   0.332   1.935 -2.3181  0.7765  1.5771
 3041TIP3   OH230537   0.167   1.114   4.652 -0.3119 -0.0548  0.3209
 3041TIP3    H130538   0.255   1.102   4.617  0.0567  1.5455  0.5904
 3041TIP3    H230539   0.117   1.038   4.622  0.4087  0.4159 -2.2447
 3042TIP3   OH230540   0.765   2.079  11.823 -0.6609  0.2027  0.5470
 3042TIP3    H130541   0.745   2.172  11.813 -0.0561  0.1416 -2.0525
 3042TIP3    H230542   0.680   2.038  11.841 -0.9908  1.2030  1.3619
 3043TIP3   OH230543   5.643   3.128  13.021 -0.2333 -0.1640 -0.4112
 3043TIP3    H130544   5.664   3.217  13.048 -0.6113  0.4224 -1.9151
 3043TIP3    H230545   5.678   3.072  13.090  0.2001  1.1378  0.4483
 3044TIP3   OH230546   2.563   1.202  13.755  0.3870  0.2444 -0.0714
 3044TIP3    H130547   2.572   1.265  13.684 -0.9884 -0.8805 -1.3028
 3044TIP3    H230548   2.499   1.138  13.724  0.3911 -0.7904  1.8324
 3045TIP3   OH230549   3.720   0.649  16.228 -0.2320  0.1429 -0.1417
 3045TIP3    H130550   3.693   0.626  16.316  0.1673 -1.2770 -0.3661
 3045TIP3    H230551   3.808   0.611  16.219  0.8391  2.4810 -0.2772
 3046TIP3   OH230552   5.723   2.259  11.477  0.5044  0.4010 -0.6544
 3046TIP3    H130553   5.760   2.249  11.564  0.2024  0.6367 -0.4974
 3046TIP3    H230554   5.643   2.206  11.478  1.9288 -1.9801 -1.6946
 3047TIP3   OH230555   1.036   2.225  14.316  0.2142  0.1007 -0.3692
 3047TIP3    H130556   1.032   2.320  14.322 -0.5757  0.0355  0.3777
 3047TIP3    H230557   1.084   2.208  14.235  2.5529  1.1139  0.7131
 3048TIP3   OH230558   3.210   6.413  12.187 -0.4116  0.3816 -0.9038
 3048TIP3    H130559   3.280   6.476  12.205  0.2831 -0.3136 -1.0923
 3048TIP3    H230560   3.162   6.405  12.270 -1.4359  2.2390 -1.2651
 3049TIP3   OH230561   5.772   3.221   5.899 -0.2327 -0.4007  0.2152
 3049TIP3    H130562   5.723   3.237   5.818  0.2221 -0.4578 -0.0700
 3049TIP3    H230563   5.765   3.304   5.947  0.2268 -0.0760 -0.2683
 3050TIP3   OH230564   1.523   1.712   0.928 -0.1004 -0.2451  0.1872
 3050TIP3    H130565   1.590   1.778   0.942  0.0622  0.1108 -1.9250
 3050TIP3    H230566   1.440   1.759   0.933  0.0002  0.0816 -0.9537
 3051TIP3   OH230567   6.622   5.344  13.664  0.2856 -0.5563  0.1871
 3051TIP3    H130568   6.546   5.299  13.701  0.9937 -2.3731 -0.4065
 3051TIP3    H230569   6.697   5.299  13.705  1.0363 -0.4990 -1.0888
 3052TIP3   OH230570   5.108   4.684   4.819 -0.2397  0.2020  0.0060
 3052TIP3    H130571   5.093   4.721   4.907  0.4508  0.5574 -0.0226
 3052TIP3    H230572   5.075   4.594   4.825  0.1993  0.0848  0.7592
 3053TIP3   OH230573   0.474   4.092  13.562  0.0674 -0.5111  0.3040
 3053TIP3    H130574   0.509   4.007  13.536 -0.5253 -0.1086 -2.0037
 3053TIP3    H230575   0.551   4.149  13.564  0.0198 -0.2990 -1.8418
 3054TIP3   OH230576   5.459   0.929   3.064  0.2434 -0.4113 -0.1447
 3054TIP3    H130577   5.471   0.915   2.970  0.7570 -0.0626 -0.1338
 3054TIP3    H230578   5.507   0.857   3.105  0.0844 -0.5191 -0.1474
 3055TIP3   OH230579   1.563   0.321   0.963 -0.5201 -0.4927 -0.2064
 3055TIP3    H130580   1.598   0.408   0.944 -1.3156  0.0397  0.6690
 3055TIP3    H230581   1.594   0.266   0.891 -0.5921  0.6724 -1.1624
 3056TIP3   OH230582   4.354   5.904  16.632  0.0853  0.3899  0.3894
 3056TIP3    H130583   4.403   5.849  16.571  0.2254  1.1626 -0.2247
 3056TIP3    H230584   4.386   5.993  16.614 -2.3854  1.1263 -0.9528
 3057TIP3   OH230585   3.901   4.969   0.299  0.4059 -0.3399 -0.1033
 3057TIP3    H130586   3.959   4.953   0.373 -1.0286  0.3816  1.2379
 3057TIP3    H230587   3.908   5.064   0.282  0.3921 -0.4243 -0.6168
 3058TIP3   OH230588   3.837   1.847   3.382 -0.0885 -0.4528  0.0928
 3058TIP3    H130589   3.920   1.812   3.417 -0.6440 -3.1168 -1.0282
 3058TIP3    H230590   3.821   1.796   3.303 -1.6195  1.6912 -1.0748
 3059TIP3   OH230591   4.288   2.373   3.628 -0.1891  0.0756 -0.4026
 3059TIP3    H130592   4.381   2.394   3.622  0.1440 -1.1910  0.1442
 3059TIP3    H230593   4.261   2.359   3.537  0.3713 -0.4356 -0.4954
 3060TIP3   OH230594   5.937   1.823  15.298 -0.0035 -0.0956  0.5226
 3060TIP3    H130595   5.883   1.899  15.322 -0.2299 -0.6888  1.9688
 3060TIP3    H230596   5.889   1.781  15.227 -1.1571 -0.2810  1.3960
 3061TIP3   OH230597   6.183   4.665   4.531 -0.4381 -0.1991  0.3670
 3061TIP3    H130598   6.254   4.718   4.494 -1.0227  0.7207  0.5100
 3061TIP3    H230599   6.119   4.658   4.461 -1.0591  0.6182  0.8326
 3062TIP3   OH230600   6.373   3.449   3.826  0.1231 -0.4260  0.0889
 3062TIP3    H130601   6.295   3.402   3.796 -0.0642 -0.7929  1.1262
 3062TIP3    H230602   6.403   3.498   3.749  0.0873 -1.9149 -0.9098
 3063TIP3   OH230603   2.840   4.042   5.432 -0.0249 -0.4403 -0.1643
 3063TIP3    H130604   2.853   3.950   5.456  1.0233 -1.1976 -3.2093
 3063TIP3    H230605   2.811   4.039   5.341 -0.6948  2.2627 -0.1125
 3064TIP3   OH230606   0.348   4.502  13.414 -0.1832  0.4781  0.1936
 3064TIP3    H130607   0.263   4.501  13.369  0.1280 -2.5449 -0.5323
 3064TIP3    H230608   0.336   4.443  13.489  1.6915 -1.5862 -0.9974
 3065TIP3   OH230609   3.339   6.323  13.185 -0.3947 -0.3506  0.1381
 3065TIP3    H130610   3.426   6.338  13.223  0.7840  0.6094 -2.6622
 3065TIP3    H230611   3.343   6.233  13.152 -0.6928 -0.5051  0.5171
 3066TIP3   OH230612   3.023   4.344   3.515 -0.4783 -0.1678 -0.3878
 3066TIP3    H130613   2.942   4.303   3.484 -0.6815 -1.4798  1.7023
 3066TIP3    H230614   3.055   4.286   3.584  2.2589  0.3365 -1.0971
 3067TIP3   OH230615   3.160   4.850   0.321 -0.5869  0.1278  0.4232
 3067TIP3    H130616   3.184   4.761   0.349 -0.2778  0.7583  2.3444
 3067TIP3    H230617   3.064   4.849   0.318 -0.6234 -0.0676  1.2814
 3068TIP3   OH230618   5.464   5.300   0.406 -0.6509  0.3103  0.0689
 3068TIP3    H130619   5.398   5.338   0.348 -0.8975  0.9394  0.7447
 3068TIP3    H230620   5.548   5.334   0.374 -0.7893  0.6951  0.1166
 3069TIP3   OH230621   5.438   5.293  13.540  0.5474  0.4442 -0.0467
 3069TIP3    H130622   5.463   5.376  13.581  0.6876  1.0821 -1.3592
 3069TIP3    H230623   5.501   5.282  13.469  1.0001 -1.1899  0.5625
 3070TIP3   OH230624   0.788   0.249  16.396 -0.1423 -0.3727 -0.5065
 3070TIP3    H130625   0.849   0.259  16.324  0.5416 -1.8715 -0.1729
 3070TIP3    H230626   0.738   0.170  16.376 -0.0342 -0.7430  0.5806
 3071TIP3   OH230627   2.074   0.475  15.068 -0.1879 -0.2364 -0.2311
 3071TIP3    H130628   2.046   0.565  15.050  1.0076  0.1358 -0.3428
 3071TIP3    H230629   1.996   0.432  15.103 -0.4075  1.2696  1.3084
 3072TIP3   OH230630   1.619   2.951  14.988 -0.8901 -0.4629  0.1058
 3072TIP3    H130631   1.690   2.935  14.926  0.4112  1.7617  0.9039
 3072TIP3    H230632   1.540   2.926  14.941  0.1591 -0.1186 -1.9501
 3073TIP3   OH230633   3.808   0.858   4.566  0.2177 -0.7597  0.3826
 3073TIP3    H130634   3.883   0.805   4.540  1.3439  0.2037  1.4874
 3073TIP3    H230635   3.796   0.838   4.658 -0.1165 -0.0248  0.5028
 3074TIP3   OH230636   6.027   0.213  12.441  0.5990  0.2348 -0.3302
 3074TIP3    H130637   5.959   0.272  12.409  1.2975  2.6489  2.2465
 3074TIP3    H230638   6.107   0.265  12.438  1.2774 -0.5878  1.8561
 3075TIP3   OH230639   5.771   0.069   1.422 -0.7380  0.2610  0.3462
 3075TIP3    H130640   5.728  -0.016   1.434 -1.2945  0.4906  0.0283
 3075TIP3    H230641   5.707   0.132   1.455  0.0126  0.5101  1.3633
 3076TIP3   OH230642   4.957   2.689   5.559 -0.1581 -0.4908  0.0702
 3076TIP3    H130643   4.929   2.717   5.646  2.5007  2.1686  0.2072
 3076TIP3    H230644   5.041   2.646   5.573  0.3057 -0.0318 -1.1744
 3077TIP3   OH230645   2.791   1.301   1.521  0.4262 -0.1221 -0.3355
 3077TIP3    H130646   2.835   1.386   1.530  1.6481 -0.7073 -0.5802
 3077TIP3    H230647   2.819   1.251   1.598 -0.4893 -0.2264 -0.0610
 3078TIP3   OH230648   4.278   2.036   3.485  0.2260  0.2708  0.1427
 3078TIP3    H130649   4.198   2.017   3.435 -0.1124  0.5681  0.5621
 3078TIP3    H230650   4.348   2.037   3.419 -0.4308  2.3010 -0.6158
 3079TIP3   OH230651   4.777   4.570   3.646  0.2647 -0.1570 -0.1818
 3079TIP3    H130652   4.774   4.475   3.657 -0.1478  0.0870  2.4828
 3079TIP3    H230653   4.685   4.597   3.644  0.3331  0.3076  1.1555
 3080TIP3   OH230654   4.257   6.364  12.093 -0.4006 -0.2353 -0.2159
 3080TIP3    H130655   4.267   6.426  12.165 -0.3664  0.0231 -0.4390
 3080TIP3    H230656   4.338   6.314  12.093 -1.3427 -1.8651  1.4242
 3081TIP3   OH230657   1.582   3.086  16.679  0.3444 -0.1509 -0.0715
 3081TIP3    H130658   1.487   3.096  16.675  0.1862 -0.6117  1.8802
 3081TIP3    H230659   1.604   3.037  16.600 -1.2476 -1.4279  0.2255
 3082TIP3   OH230660   5.756   4.841  16.600  0.2044  0.8620  0.1473
 3082TIP3    H130661   5.724   4.775  16.539  3.0566  0.8343 -1.4962
 3082TIP3    H230662   5.688   4.908  16.600 -0.5156  0.2336 -2.0625
 3083TIP3   OH230663   5.894   4.177   1.841 -0.5041  0.3221  0.4512
 3083TIP3    H130664   5.913   4.266   1.813  2.0354 -0.5169 -0.8428
 3083TIP3    H230665   5.952   4.162   1.915 -0.1361 -0.5729 -0.0032
 3084TIP3   OH230666   3.661   1.951  17.121 -0.0438 -0.1155  0.5104
 3084TIP3    H130667   3.565   1.953  17.121 -0.0354  0.4450  0.5805
 3084TIP3    H230668   3.683   1.863  17.151 -0.5499 -1.0178 -1.5708
 3085TIP3   OH230669   0.700   0.409   2.055 -0.0234 -0.0867  0.2267
 3085TIP3    H130670   0.639   0.365   1.997  1.4502  0.7872 -2.1250
 3085TIP3    H230671   0.693   0.502   2.032  1.5914  0.1218  0.4192
 3086TIP3   OH230672   4.469   2.901  13.929  0.0948  0.1209  0.3286
 3086TIP3    H130673   4.503   2.866  14.011 -0.1535 -0.8235  0.0402
 3086TIP3    H230674   4.447   2.824  13.877 -2.0492  0.6615  0.3170
 3087TIP3   OH230675   2.076   0.348  13.259 -0.3582  0.4539 -0.0675
 3087TIP3    H130676   2.137   0.355  13.186 -0.8129  3.0120 -0.2923
 3087TIP3    H230677   2.127   0.369  13.337 -0.2690 -0.5479  0.1586
 3088TIP3   OH230678   2.710   6.384  15.093  0.1188  0.7474 -0.4576
 3088TIP3    H130679   2.728   6.313  15.031 -0.3346  0.0136  0.2345
 3088TIP3    H230680   2.635   6.429  15.056 -2.2923 -1.6792  1.1134
 3089TIP3   OH230681   0.449   4.840  14.934  0.7971  0.0388 -0.0004
 3089TIP3    H130682   0.439   4.935  14.931 -1.9950 -0.1601 -0.2859
 3089TIP3    H230683   0.364   4.808  14.965  1.0592 -2.4412 -1.5379
 3090TIP3   OH230684   4.372   6.503   0.973 -0.0882 -0.0271 -0.4684
 3090TIP3    H130685   4.310   6.570   0.944  0.4871  0.6770 -0.0985
 3090TIP3    H230686   4.346   6.485   1.063  0.0898  0.0801 -0.3969
 3091TIP3   OH230687   2.165   5.898  12.926  0.0352  0.8138  0.1633
 3091TIP3    H130688   2.233   5.836  12.949  0.0490  1.4487  1.9496
 3091TIP3    H230689   2.091   5.875  12.982  0.0596  2.4036  0.9114
 3092TIP3   OH230690   3.592   3.556  14.860 -0.4122 -0.3417  0.0132
 3092TIP3    H130691   3.533   3.528  14.791 -0.2189 -0.9106  0.0733
 3092TIP3    H230692   3.589   3.652  14.858 -2.7315 -0.3255  1.2074
 3093TIP3   OH230693   1.379   3.236  11.452 -0.3435  0.3408 -0.3774
 3093TIP3    H130694   1.380   3.149  11.412  2.2667 -0.4952  1.2617
 3093TIP3    H230695   1.459   3.239  11.505 -1.3308  3.0404  1.1494
 3094TIP3   OH230696   5.243   2.014  13.160 -0.4888  0.0637  0.1552
 3094TIP3    H130697   5.332   1.981  13.174 -0.5912 -0.1179  0.3938
 3094TIP3    H230698   5.211   1.966  13.084 -0.9200 -0.9871  0.9651
 3095TIP3   OH230699   0.714   2.374  13.078 -0.2469 -0.4698  0.2289
 3095TIP3    H130700   0.694   2.324  13.157  0.2831 -1.4145 -0.2220
 3095TIP3    H230701   0.672   2.459  13.092 -0.8946 -0.9276  1.1437
 3096TIP3   OH230702   5.008   6.043   4.225 -0.0412  0.1209 -0.0782
 3096TIP3    H130703   5.068   5.983   4.269 -0.1598  0.4649  0.5624
 3096TIP3    H230704   4.953   6.078   4.295 -1.1381 -0.3496 -0.6719
 3097TIP3   OH230705   5.872   3.043  14.073  0.5805 -0.6365 -0.6194
 3097TIP3    H130706   5.853   3.113  14.010 -0.9276 -1.1968 -0.8307
 3097TIP3    H230707   5.822   2.968  14.042  0.5156 -1.2008  0.7549
 3098TIP3   OH230708   4.216   5.846  16.136  0.3533  0.1487  0.0575
 3098TIP3    H130709   4.202   5.893  16.054  0.6316  0.2018  0.0405
 3098TIP3    H230710   4.306   5.867  16.161  0.3529 -0.0689  0.2476
 3099TIP3   OH230711   3.959   2.982   0.523 -0.0414  0.4332 -0.3561
 3099TIP3    H130712   3.953   3.030   0.440  1.3854  0.2541 -0.5941
 3099TIP3    H230713   3.991   2.895   0.497  2.6993  1.0769  0.5463
 3100TIP3   OH230714   2.702   1.206  11.058 -0.2972  0.3546  0.0681
 3100TIP3    H130715   2.685   1.269  10.989 -1.4145  0.1264  0.1155
 3100TIP3    H230716   2.739   1.130  11.013  1.3904  1.1360  0.0534
 3101TIP3   OH230717   4.235   3.022   5.489  0.1136 -0.2552  0.6014
 3101TIP3    H130718   4.307   3.072   5.450  0.0129 -0.5896 -0.0272
 3101TIP3    H230719   4.271   2.987   5.571  0.3771  0.3283  0.7379
 3102TIP3   OH230720   5.371   6.092  13.955  0.5904  0.0775 -0.6719
 3102TIP3    H130721   5.455   6.067  13.992  0.7308 -0.3771 -1.2822
 3102TIP3    H230722   5.360   6.184  13.981  0.1471 -0.5109  1.4609
 3103TIP3   OH230723   3.345   0.092  16.200 -0.4201 -0.2964 -0.2653
 3103TIP3    H130724   3.401   0.015  16.186 -0.4934 -0.2749 -0.6770
 3103TIP3    H230725   3.282   0.064  16.266  0.3095 -0.2051  0.4874
 3104TIP3   OH230726   3.938   5.483   0.088  0.1950  0.4934 -0.0167
 3104TIP3    H130727   3.898   5.533   0.016 -0.4818  1.2836  0.8819
 3104TIP3    H230728   3.929   5.539   0.164  1.4340 -0.0926  0.5882
 3105TIP3   OH230729   0.661   6.407   7.083 -0.1298 -0.1330 -0.1434
 3105TIP3    H130730   0.701   6.481   7.037  0.1103  0.1096  0.4491
 3105TIP3    H230731   0.577   6.394   7.039  0.2403 -0.1252 -0.8683
 3106TIP3   OH230732   5.265   1.303   5.620  0.3140 -0.1551  0.2322
 3106TIP3    H130733   5.353   1.328   5.645  0.2269 -0.0480  0.4361
 3106TIP3    H230734   5.267   1.207   5.617  0.9787 -0.1288 -1.7876
 3107TIP3   OH230735   5.394   5.090  14.604  0.6024  0.0167  0.4093
 3107TIP3    H130736   5.423   5.131  14.685  0.2806  1.2334 -0.0760
 3107TIP3    H230737   5.375   5.163  14.545 -0.8232 -0.7975 -0.1923
 3108TIP3   OH230738   6.129   6.127  11.771  0.3424 -0.1318  0.4444
 3108TIP3    H130739   6.113   6.045  11.723 -2.7984 -0.0194  1.0666
 3108TIP3    H230740   6.223   6.141  11.764  0.8032 -3.0895 -0.8209
 3109TIP3   OH230741   5.760   1.145  12.228  0.0710  0.5426 -0.5196
 3109TIP3    H130742   5.807   1.197  12.293 -0.8125 -1.0060  1.4508
 3109TIP3    H230743   5.809   1.063  12.223 -1.5849 -0.5739  0.5758
 3110TIP3   OH230744   2.177   6.401   5.525  0.7031  0.0214  0.6984
 3110TIP3    H130745   2.216   6.322   5.487  2.7780  1.0653  0.4897
 3110TIP3    H230746   2.168   6.381   5.618 -1.2065 -1.3246  0.2785
 3111TIP3   OH230747   2.028   1.003  11.899  0.3907 -0.5578  0.1372
 3111TIP3    H130748   1.936   1.029  11.898  0.8185  1.0774 -1.0828
 3111TIP3    H230749   2.026   0.908  11.897 -1.2948 -0.5635 -1.9597
 3112TIP3   OH230750   3.347   1.548  16.391 -0.5972 -0.4173 -0.3851
 3112TIP3    H130751   3.331   1.478  16.454  1.0233 -0.2583  0.2726
 3112TIP3    H230752   3.326   1.628  16.440 -0.0717 -0.3324 -0.2944
 3113TIP3   OH230753   5.049   5.908  17.169  0.8854 -0.0380  0.0996
 3113TIP3    H130754   5.057   5.866  17.083  2.1008  0.7080 -0.1855
 3113TIP3    H230755   4.963   5.881  17.201  1.1751 -1.8695 -0.5248
 3114TIP3   OH230756   1.086   1.502   0.904 -0.3128 -0.1852 -0.3982
 3114TIP3    H130757   1.172   1.511   0.863  0.7148  1.9848  1.9507
 3114TIP3    H230758   1.090   1.417   0.949  1.2019  0.4488  0.7759
 3115TIP3   OH230759   2.196   0.143   3.006 -0.3173 -0.7648  0.3447
 3115TIP3    H130760   2.164   0.065   3.050 -0.6155 -0.8594 -0.0354
 3115TIP3    H230761   2.284   0.155   3.041 -0.1526 -1.4463  0.1805
 3116TIP3   OH230762   0.575   2.785  12.667 -0.3264 -0.0061  0.0363
 3116TIP3    H130763   0.636   2.721  12.631  0.5387  0.8659 -0.0789
 3116TIP3    H230764   0.630   2.858  12.694 -0.9414 -0.4514  2.8170
 3117TIP3   OH230765   2.768   1.032   0.751 -0.3889 -0.3046  0.5235
 3117TIP3    H130766   2.763   0.936   0.755 -0.5690 -0.2615  1.8542
 3117TIP3    H230767   2.859   1.050   0.729 -0.1346 -0.7919  1.1223
 3118TIP3   OH230768   0.505   6.715  10.990 -0.7955  0.2949 -0.0808
 3118TIP3    H130769   0.471   6.680  10.908 -0.7073 -0.3495  0.1492
 3118TIP3    H230770   0.543   6.639  11.034  0.2900  0.8587 -0.0020
 3119TIP3   OH230771   0.797   4.553   5.204 -0.5969 -0.0385 -0.1895
 3119TIP3    H130772   0.860   4.589   5.142 -0.5883 -0.7611 -0.6140
 3119TIP3    H230773   0.736   4.626   5.222  0.7027  0.8712  0.7398
 3120TIP3   OH230774   2.800   4.531  13.218  0.6713  0.2055  0.3865
 3120TIP3    H130775   2.737   4.482  13.166 -0.0743  0.2761  1.2215
 3120TIP3    H230776   2.825   4.472  13.289  0.5054  0.6816  0.8426
 3121TIP3   OH230777   0.518   5.181   1.114 -0.4598  0.0631  0.5249
 3121TIP3    H130778   0.504   5.087   1.108 -0.5570  0.0808  0.4485
 3121TIP3    H230779   0.610   5.191   1.138  0.4328 -0.0172 -2.3903
 3122TIP3   OH230780   2.323   3.348   1.970  0.0930  0.5332  0.4515
 3122TIP3    H130781   2.267   3.391   2.034 -0.9334 -0.4349  0.2371
 3122TIP3    H230782   2.338   3.260   2.007 -0.2702  0.0694 -0.4832
 3123TIP3   OH230783   5.277   6.035   1.375 -0.3405  0.4412  0.3180
 3123TIP3    H130784   5.367   6.003   1.385 -0.4498  0.5500  2.0083
 3123TIP3    H230785   5.240   5.979   1.307  0.4507 -0.8946  0.9252
 3124TIP3   OH230786   2.636   3.116   3.183 -0.3856  0.2664  0.6087
 3124TIP3    H130787   2.699   3.169   3.232  2.8541 -1.9522 -0.8338
 3124TIP3    H230788   2.580   3.077   3.251  2.6238 -1.0997  2.4992
 3125TIP3   OH230789   3.643   3.698   2.941  0.0847  0.0524 -0.3131
 3125TIP3    H130790   3.619   3.699   2.849 -5.0274 -1.6344  0.6286
 3125TIP3    H230791   3.590   3.768   2.980  0.7073 -0.4565  1.5428
 3126TIP3   OH230792   4.791   1.134   1.514  0.2978 -0.3597  0.3642
 3126TIP3    H130793   4.770   1.096   1.599  0.4270 -2.7420 -0.6023
 3126TIP3    H230794   4.747   1.077   1.451  0.1808  1.3666 -1.1927
 3127TIP3   OH230795   6.376   1.763  16.684  0.2635  1.2031 -0.1369
 3127TIP3    H130796   6.292   1.801  16.658  0.2823  1.5345  0.2694
 3127TIP3    H230797   6.429   1.765  16.605  0.1393  1.6970 -0.2121
 3128TIP3   OH230798   1.828   5.264   1.431 -0.3619 -0.1815  0.0310
 3128TIP3    H130799   1.834   5.358   1.444  0.7302 -0.5228  2.6670
 3128TIP3    H230800   1.748   5.239   1.477  0.2880 -0.7317  0.8848
 3129TIP3   OH230801   0.487   0.433  16.527  0.1116  0.4508 -0.2425
 3129TIP3    H130802   0.425   0.439  16.455 -0.3223  0.7272  0.1463
 3129TIP3    H230803   0.434   0.447  16.606  0.8244  1.7885  0.0446
 3130TIP3   OH230804   2.109   2.735  10.815 -0.2295 -0.2533 -0.1358
 3130TIP3    H130805   2.030   2.686  10.837  0.2269 -0.4576  1.1605
 3130TIP3    H230806   2.176   2.668  10.801 -0.2624 -0.0821 -1.2027
 3131TIP3   OH230807   3.486   3.955  17.145  0.1156 -0.0631  0.1775
 3131TIP3    H130808   3.422   3.934  17.077 -1.7635 -0.9132  2.0764
 3131TIP3    H230809   3.499   3.873  17.192 -0.1505  0.8757  1.9917
 3132TIP3   OH230810   3.039   4.897   4.021  0.4414  0.2209  0.4495
 3132TIP3    H130811   3.127   4.871   4.049  0.5528 -1.8076 -1.4637
 3132TIP3    H230812   3.052   4.936   3.935 -0.5668 -0.9650 -0.2763
 3133TIP3   OH230813   5.894   0.644  13.919 -0.6381 -0.0529  0.2586
 3133TIP3    H130814   5.884   0.575  13.985 -0.2665  1.1654  1.6326
 3133TIP3    H230815   5.973   0.620  13.871 -1.0268 -1.0657  0.1026
 3134TIP3   OH230816   4.832   2.207  10.599  0.4051  0.4324  0.3364
 3134TIP3    H130817   4.777   2.148  10.546  0.1812  3.1797 -2.8509
 3134TIP3    H230818   4.911   2.220  10.546  1.9743  0.3916  2.5545
 3135TIP3   OH230819   5.757   2.010  11.046 -0.0612  0.1575  0.5620
 3135TIP3    H130820   5.720   1.963  11.121 -1.2714  1.4624  0.8162
 3135TIP3    H230821   5.827   2.063  11.084  0.1102 -0.0662  0.5641
 3136TIP3   OH230822   3.693   3.545   4.859 -0.1398  0.1533 -0.1271
 3136TIP3    H130823   3.739   3.550   4.776 -0.0283 -2.4186 -0.2892
 3136TIP3    H230824   3.619   3.605   4.849  0.4402  0.6527 -1.6772
 3137TIP3   OH230825   4.839   0.738  16.875  0.3952 -0.7803  0.0656
 3137TIP3    H130826   4.775   0.692  16.929 -1.3239  0.8463 -0.4900
 3137TIP3    H230827   4.879   0.802  16.934 -0.1921 -0.2166 -0.1391
 3138TIP3   OH230828   2.327   1.871   3.512  0.1857  0.7096 -0.0729
 3138TIP3    H130829   2.279   1.890   3.593  1.5075 -0.8928  1.1800
 3138TIP3    H230830   2.419   1.880   3.537  0.6614 -1.0373 -1.0149
 3139TIP3   OH230831   1.386   3.582   2.401 -0.6144 -0.0802  0.7525
 3139TIP3    H130832   1.393   3.634   2.482  1.6563  0.3488  0.3640
 3139TIP3    H230833   1.402   3.646   2.331 -2.4637 -0.4646 -0.0736
 3140TIP3   OH230834   0.336   5.432  15.771  0.0370 -0.1441 -0.4585
 3140TIP3    H130835   0.385   5.514  15.767  0.6003 -0.1416  3.2700
 3140TIP3    H230836   0.247   5.456  15.743 -0.1076  2.0898  1.5680
 3141TIP3   OH230837   5.084   4.253  12.808 -0.1176  0.2249  0.6362
 3141TIP3    H130838   5.078   4.196  12.885 -0.3725 -0.3390  0.2093
 3141TIP3    H230839   5.109   4.194  12.737 -0.9350  0.5381  0.0687
 3142TIP3   OH230840   5.325   4.437   4.179  0.3917 -0.1660  0.1934
 3142TIP3    H130841   5.317   4.451   4.084  0.6723  1.8573  0.4099
 3142TIP3    H230842   5.280   4.354   4.195 -2.8528  1.1283 -1.2488
 3143TIP3   OH230843   5.386   0.203  14.774 -0.0545 -0.3083  0.2103
 3143TIP3    H130844   5.445   0.279  14.778 -1.4983  0.8123  1.5587
 3143TIP3    H230845   5.330   0.212  14.851 -1.1726 -2.0080 -0.3526
 3144TIP3   OH230846   2.665   3.172   0.698 -0.1599 -0.1390 -0.2727
 3144TIP3    H130847   2.736   3.123   0.657 -0.7966 -0.8188 -0.5991
 3144TIP3    H230848   2.699   3.198   0.783  0.4640 -0.4885 -0.4094
 3145TIP3   OH230849   5.468   6.089   3.385 -0.2126 -0.5460 -0.5925
 3145TIP3    H130850   5.380   6.053   3.380 -0.3511 -0.1435 -1.0772
 3145TIP3    H230851   5.475   6.149   3.311  0.6912 -1.0717 -0.9570
 3146TIP3   OH230852   0.990   1.893  15.860  0.1775  0.1546  0.5547
 3146TIP3    H130853   0.945   1.899  15.776  0.9845 -0.7486  0.0435
 3146TIP3    H230854   1.081   1.914  15.840  0.3278  0.1714  1.2451
 3147TIP3   OH230855   4.955   0.135   2.552 -0.1865  0.0869 -0.2804
 3147TIP3    H130856   4.885   0.070   2.563 -1.5676  0.6622 -4.1594
 3147TIP3    H230857   5.033   0.091   2.586 -1.1333 -3.5610 -2.2345
 3148TIP3   OH230858   5.054   1.471  14.293 -0.0400  0.4545  0.7612
 3148TIP3    H130859   5.007   1.533  14.349 -1.5969 -0.3747  0.4160
 3148TIP3    H230860   4.995   1.397  14.284  2.1334 -1.5380  1.9007
 3149TIP3   OH230861   5.604   3.059   0.469 -0.6193 -0.5364 -0.0464
 3149TIP3    H130862   5.552   3.138   0.455  0.2585 -0.1399 -1.2726
 3149TIP3    H230863   5.695   3.090   0.467 -0.2730 -1.5211 -0.2311
 3150TIP3   OH230864   2.371   4.268  14.832 -0.4327  0.2899  0.2071
 3150TIP3    H130865   2.435   4.292  14.765  0.1004  2.2330  1.3349
 3150TIP3    H230866   2.424   4.238  14.905 -0.8254  1.0546  0.8224
 3151TIP3   OH230867   0.534   4.589   3.196  0.0433 -0.0471 -0.4521
 3151TIP3    H130868   0.462   4.538   3.233  1.3961 -0.9389  1.1139
 3151TIP3    H230869   0.536   4.669   3.248 -0.6430  0.5965 -1.3929
 3152TIP3   OH230870   1.245   2.865  12.771 -0.0907  0.1026  0.1210
 3152TIP3    H130871   1.165   2.918  12.772 -0.3259 -0.2506  0.0457
 3152TIP3    H230872   1.316   2.929  12.783 -0.4161  0.3531  0.7667
 3153TIP3   OH230873   0.768   5.733  12.586 -0.2097  0.3416  0.1251
 3153TIP3    H130874   0.753   5.660  12.526  1.7539  1.6011 -2.0686
 3153TIP3    H230875   0.707   5.801  12.557  1.2731  1.2335 -1.0825
 3154TIP3   OH230876   2.465   5.911   6.453  0.1926 -0.1930  0.1378
 3154TIP3    H130877   2.377   5.925   6.487 -0.6003  0.6003 -2.0822
 3154TIP3    H230878   2.517   5.983   6.491 -0.1944 -0.4278  1.1312
 3155TIP3   OH230879   3.234   3.110   4.469 -0.4764  0.5932 -0.0331
 3155TIP3    H130880   3.157   3.058   4.492 -1.4136  2.4727  1.3510
 3155TIP3    H230881   3.297   3.047   4.435 -3.3761 -0.8487 -3.4547
 3156TIP3   OH230882   5.238   5.819  10.955 -0.1238  0.2183  0.0714
 3156TIP3    H130883   5.246   5.802  11.049 -0.5507  0.3082  0.1266
 3156TIP3    H230884   5.324   5.850  10.929  0.2151 -0.5256  0.2837
 3157TIP3   OH230885   5.838   4.349   3.627  0.3989 -0.7129  0.6933
 3157TIP3    H130886   5.920   4.356   3.578 -0.5389 -0.1995 -0.8720
 3157TIP3    H230887   5.813   4.256   3.619 -0.3568 -0.4163 -0.9218
 3158TIP3   OH230888   2.303   6.362  13.149 -0.3343 -0.3423 -0.4344
 3158TIP3    H130889   2.299   6.281  13.098 -1.7594 -0.4663 -0.1850
 3158TIP3    H230890   2.299   6.334  13.240  0.8097 -0.0558 -0.2865
 3159TIP3   OH230891   1.904   4.394   3.226  0.1563 -0.1380  0.2307
 3159TIP3    H130892   1.908   4.487   3.248 -0.4245 -0.0742  0.0771
 3159TIP3    H230893   1.963   4.384   3.151 -0.2929  0.2323 -0.1759
 3160TIP3   OH230894   0.422   3.332   5.285  0.2755 -0.5300  0.1336
 3160TIP3    H130895   0.465   3.375   5.360  0.7105  0.0263 -0.4263
 3160TIP3    H230896   0.361   3.398   5.252  2.0803  0.3152 -1.7202
 3161TIP3   OH230897   4.371   3.910  14.337 -0.2339 -0.3988 -0.0995
 3161TIP3    H130898   4.317   3.962  14.278 -0.7854 -1.2872 -0.4008
 3161TIP3    H230899   4.416   3.848  14.280  0.9344  0.1697  0.1763
 3162TIP3   OH230900   6.190   0.994  13.153 -0.0429 -0.3624  0.2948
 3162TIP3    H130901   6.138   1.072  13.139 -2.0437 -1.1460  2.6593
 3162TIP3    H230902   6.216   0.966  13.065 -0.6702  1.9886 -0.7024
 3163TIP3   OH230903   2.583   5.051  14.947  0.8700  0.3493 -0.2292
 3163TIP3    H130904   2.543   5.136  14.967 -0.6746 -0.0605 -1.3835
 3163TIP3    H230905   2.618   5.021  15.031  1.3235  2.0453  0.2249
 3164TIP3   OH230906   2.411   2.738  13.738  0.5745 -0.8021 -0.0619
 3164TIP3    H130907   2.364   2.819  13.720  2.7169  0.7393  0.8813
 3164TIP3    H230908   2.393   2.721  13.831  1.0268 -0.7617  0.0365
 3165TIP3   OH230909   5.640   3.533  16.866 -0.6612 -0.0235  0.7582
 3165TIP3    H130910   5.622   3.564  16.954 -0.4555  0.5115  0.6194
 3165TIP3    H230911   5.734   3.514  16.866  0.5399  4.4935 -0.5920
 3166TIP3   OH230912   1.761   0.184   4.356  0.2590  0.3351  0.0408
 3166TIP3    H130913   1.832   0.146   4.408 -0.5452  1.6875  2.2923
 3166TIP3    H230914   1.802   0.257   4.310  0.5996  0.3501  0.3564
 3167TIP3   OH230915   4.283   5.583   1.770  0.5257  0.0411  0.7033
 3167TIP3    H130916   4.198   5.608   1.734  1.0033 -1.0295 -1.3219
 3167TIP3    H230917   4.262   5.532   1.848 -0.6633  0.3581  0.6069
 3168TIP3   OH230918   1.575   5.030   4.106  0.0265  0.4173  0.2035
 3168TIP3    H130919   1.541   5.022   4.017  0.7382  0.3429 -0.0686
 3168TIP3    H230920   1.609   4.943   4.126 -1.8708 -0.1403  1.3005
 3169TIP3   OH230921   3.019   0.996   3.176  0.1255  0.0457  0.9117
 3169TIP3    H130922   3.045   1.031   3.262  0.6968 -2.1553  1.6865
 3169TIP3    H230923   3.086   0.931   3.155 -1.3100 -1.1820 -0.0696
 3170TIP3   OH230924   3.469   5.186   1.376  0.1346 -0.3238 -0.1063
 3170TIP3    H130925   3.543   5.126   1.385  0.8967  0.5785 -0.2298
 3170TIP3    H230926   3.423   5.181   1.459  0.2545 -0.9863 -0.0739
 3171TIP3   OH230927   5.262   6.631  11.639 -1.1968 -0.1693  0.0473
 3171TIP3    H130928   5.260   6.613  11.545 -0.0412 -1.6838  0.2765
 3171TIP3    H230929   5.198   6.571  11.676  0.1396 -1.4212  0.4477
 3172TIP3   OH230930   0.969   1.306  12.921  0.6187 -0.5941 -0.7499
 3172TIP3    H130931   0.956   1.341  13.009  1.8609  0.6590 -1.0434
 3172TIP3    H230932   0.911   1.358  12.865  1.0158 -0.3248 -0.9083
 3173TIP3   OH230933   2.542   1.464   3.250 -0.2137 -0.0262 -0.3257
 3173TIP3    H130934   2.550   1.423   3.164 -1.2900 -0.5095 -0.2127
 3173TIP3    H230935   2.457   1.434   3.283 -0.9249  2.0345 -0.1119
 3174TIP3   OH230936   2.650   5.715   3.034 -0.6061  0.0655  1.0136
 3174TIP3    H130937   2.566   5.729   3.077 -1.5069 -0.5742 -0.4558
 3174TIP3    H230938   2.649   5.774   2.959 -0.0209 -0.3902  0.6361
 3175TIP3   OH230939   6.089   5.443   6.863  0.6307  0.5142  0.2657
 3175TIP3    H130940   6.130   5.390   6.932  0.8256 -0.2384 -0.4053
 3175TIP3    H230941   6.008   5.398   6.842  1.4763 -0.3997 -1.3246
 3176TIP3   OH230942   0.826   5.310  12.047  0.4798 -0.0469  0.0625
 3176TIP3    H130943   0.755   5.361  12.009  0.0623 -0.8287 -0.2181
 3176TIP3    H230944   0.786   5.267  12.123  0.7160 -0.2802  0.0557
 3177TIP3   OH230945   1.388   1.781  16.005  0.2172  0.1043  0.2058
 3177TIP3    H130946   1.468   1.737  16.032 -0.0705 -1.2100 -0.9395
 3177TIP3    H230947   1.337   1.712  15.961 -0.5698  1.4209 -1.0249
 3178TIP3   OH230948   6.550   6.215  13.298 -0.2659 -0.2492 -0.1026
 3178TIP3    H130949   6.592   6.197  13.382  1.9497 -1.4607 -1.3518
 3178TIP3    H230950   6.572   6.306  13.279 -0.0581 -0.2181  0.2742
 3179TIP3   OH230951   4.679   3.285  16.241  0.0339  0.2724 -0.1551
 3179TIP3    H130952   4.585   3.270  16.233  0.3848 -1.1868 -2.8864
 3179TIP3    H230953   4.716   3.197  16.250  1.2922  0.4996 -2.3901
 3180TIP3   OH230954   4.712   3.934   3.512 -0.1716 -0.1073  1.0383
 3180TIP3    H130955   4.660   3.857   3.487  0.6321 -0.0512 -1.0345
 3180TIP3    H230956   4.786   3.898   3.561 -0.3543 -0.5497  0.9961
 3181TIP3   OH230957   4.819   0.034   0.660 -0.0020  0.6900  0.1119
 3181TIP3    H130958   4.754   0.073   0.601  1.0870  3.1944  0.4329
 3181TIP3    H230959   4.889   0.100   0.665  1.3457 -0.7797  1.8145
 3182TIP3   OH230960   3.048   0.491   0.092  0.4837  0.4142 -0.5194
 3182TIP3    H130961   3.024   0.424   0.027 -1.4537  0.2603  0.2737
 3182TIP3    H230962   3.044   0.445   0.176 -3.7683  1.9929  0.3763
 3183TIP3   OH230963   2.321   3.901   2.864  0.6835  0.1176 -0.4077
 3183TIP3    H130964   2.400   3.955   2.866  0.6610  0.1453 -0.1720
 3183TIP3    H230965   2.267   3.940   2.795  1.5341 -0.8576 -1.6510
 3184TIP3   OH230966   2.338   5.807   4.244  0.7458  0.0442  0.0092
 3184TIP3    H130967   2.363   5.896   4.270  1.0485  0.2577 -0.9587
 3184TIP3    H230968   2.260   5.819   4.190  3.4540  0.3336 -4.3209
 3185TIP3   OH230969   6.106   6.167  12.575 -0.0028  0.0873  0.1813
 3185TIP3    H130970   6.190   6.124  12.591  0.4251  0.0049 -1.9947
 3185TIP3    H230971   6.118   6.256  12.609  0.1142 -0.6056  2.0450
 3186TIP3   OH230972   4.083   0.497   1.876 -0.0069  0.1997  0.3596
 3186TIP3    H130973   4.070   0.591   1.875 -0.9874  0.0699  0.2694
 3186TIP3    H230974   4.079   0.473   1.969 -0.4542  0.1546  0.3286
 3187TIP3   OH230975   4.802   6.683   2.024 -0.3881 -0.5653 -0.1534
 3187TIP3    H130976   4.782   6.674   2.118  0.6284  0.6652  0.2049
 3187TIP3    H230977   4.827   6.594   1.997  0.2774 -0.7429  0.9808
 3188TIP3   OH230978   4.531   5.350   0.875  0.0773  0.2427  0.2720
 3188TIP3    H130979   4.485   5.274   0.840 -0.3531  0.2566  0.7861
 3188TIP3    H230980   4.589   5.315   0.943  1.7845  0.0681 -1.2200
 3189TIP3   OH230981   1.293   0.683  11.598 -0.1486  0.1347  0.9240
 3189TIP3    H130982   1.328   0.672  11.687 -1.7224  0.6078  1.6391
 3189TIP3    H230983   1.200   0.701  11.612 -0.7102 -1.1210 -0.8814
 3190TIP3   OH230984   5.229   6.227  14.452 -0.0470  0.1093  0.0802
 3190TIP3    H130985   5.186   6.169  14.388  0.6275 -1.8735  1.3426
 3190TIP3    H230986   5.297   6.173  14.491  2.3849  2.5709 -0.4693
 3191TIP3   OH230987   5.437   1.142   2.034  0.2073  0.5747  0.0852
 3191TIP3    H130988   5.370   1.154   1.968  0.1002 -0.3905  0.0042
 3191TIP3    H230989   5.392   1.157   2.117 -0.3916 -1.0333  0.0969
 3192TIP3   OH230990   1.782   2.469  11.740  0.1162  0.6434  0.0454
 3192TIP3    H130991   1.694   2.479  11.777  0.1081  0.4804  0.0741
 3192TIP3    H230992   1.776   2.389  11.686  0.7189 -0.4077  1.4702
 3193TIP3   OH230993   0.860   0.963  13.078  0.3924 -0.0856  0.1930
 3193TIP3    H130994   0.906   0.904  13.018  0.3648  0.1904 -0.1072
 3193TIP3    H230995   0.882   0.930  13.165  1.4513  0.2388  0.0711
 3194TIP3   OH230996   1.454   3.303   0.247 -0.3128  0.2360  0.1021
 3194TIP3    H130997   1.378   3.245   0.246 -0.3143  0.2256 -2.0031
 3194TIP3    H230998   1.529   3.243   0.251 -0.3487  0.2364  1.6149
 3195TIP3   OH230999   2.139   1.429   0.234 -0.1986 -0.0574 -0.0179
 3195TIP3    H131000   2.175   1.383   0.310 -1.0509  0.3489  0.6520
 3195TIP3    H231001   2.194   1.401   0.161  0.5013 -0.6323  0.7054
 3196TIP3   OH231002   0.697   2.951  13.987 -0.4518  0.0570 -0.0205
 3196TIP3    H131003   0.634   3.019  13.964  3.0344  3.3257 -0.9816
 3196TIP3    H231004   0.717   2.967  14.080 -1.4128 -1.4659  0.5061
 3197TIP3   OH231005   6.065   4.547  14.855  0.3624  0.1557  0.6794
 3197TIP3    H131006   6.000   4.572  14.920  1.7226  1.5449  1.5903
 3197TIP3    H231007   6.148   4.546  14.902  1.2808  0.3525 -0.8372
 3198TIP3   OH231008   2.861   0.283  16.577  0.3289  0.4829  0.4440
 3198TIP3    H131009   2.835   0.374  16.560 -0.2259  0.5112  1.3686
 3198TIP3    H231010   2.931   0.290  16.642  1.6172  0.3235 -0.8758
 3199TIP3   OH231011   4.398   4.822   1.291  0.0284  0.1422 -0.4450
 3199TIP3    H131012   4.303   4.829   1.307 -0.1554 -0.1636 -1.3337
 3199TIP3    H231013   4.432   4.909   1.309  0.1430 -0.5028  3.2541
 3200TIP3   OH231014   6.654   5.170   4.387 -0.0664  0.6049 -0.3943
 3200TIP3    H131015   6.730   5.202   4.338  0.1566  0.9904  0.1882
 3200TIP3    H231016   6.692   5.124   4.462 -0.3999 -0.2444 -0.7371
 3201TIP3   OH231017   5.207   1.295  16.019  0.2438 -0.2691  0.0813
 3201TIP3    H131018   5.116   1.325  16.010 -0.1899 -1.6174 -0.3359
 3201TIP3    H231019   5.227   1.304  16.112 -1.1392 -2.1106  0.6111
 3202TIP3   OH231020   3.035   3.739  16.083 -0.0579  0.4571 -0.3517
 3202TIP3    H131021   3.092   3.722  16.009 -0.7586 -0.5561 -0.6742
 3202TIP3    H231022   3.072   3.687  16.155  2.0361  3.2340  0.7824
 3203TIP3   OH231023   6.134   6.252   4.722 -0.0472  0.3951 -0.1746
 3203TIP3    H131024   6.197   6.249   4.650 -0.6532 -2.1690 -0.6786
 3203TIP3    H231025   6.187   6.267   4.800  0.8237  1.3074 -0.9172
 3204TIP3   OH231026   3.545   5.781   3.866  0.1406  0.7506  0.5650
 3204TIP3    H131027   3.620   5.839   3.881 -0.0558  0.8112  1.3563
 3204TIP3    H231028   3.528   5.741   3.951 -2.0749  2.3362  0.9477
 3205TIP3   OH231029   6.541   3.238   2.490 -0.3041  0.3491 -0.6152
 3205TIP3    H131030   6.577   3.294   2.420 -1.2151 -0.5186 -1.8115
 3205TIP3    H231031   6.489   3.298   2.544  0.9072  1.1504 -0.2954
 3206TIP3   OH231032   3.074   3.397  15.387 -0.0803  0.4563  0.4010
 3206TIP3    H131033   2.994   3.366  15.430  1.4290 -2.1704  1.5935
 3206TIP3    H231034   3.082   3.341  15.310  1.1993 -0.1748  0.9686
 3207TIP3   OH231035   6.346   2.508   2.744 -0.2250 -0.1113 -0.4024
 3207TIP3    H131036   6.276   2.528   2.806 -0.8909 -1.0314 -0.8206
 3207TIP3    H231037   6.393   2.590   2.733 -2.1920  0.9510 -1.3047
 3208TIP3   OH231038   5.130   5.270  12.352 -0.5200  0.0874 -0.5998
 3208TIP3    H131039   5.076   5.250  12.428 -0.6218  1.0547 -0.4083
 3208TIP3    H231040   5.068   5.301  12.286 -0.2206  1.1554 -0.3942
 3209TIP3   OH231041   6.146   2.798  17.263  0.2575 -0.0066  0.1167
 3209TIP3    H131042   6.096   2.717  17.261  0.2465 -0.0228  0.8333
 3209TIP3    H231043   6.081   2.867  17.248 -0.1460  0.0337  1.8197
 3210TIP3   OH231044   5.007   3.255   1.598 -0.0161  0.3516 -0.2198
 3210TIP3    H131045   5.056   3.227   1.521  0.2510  0.3406 -0.0434
 3210TIP3    H231046   5.070   3.304   1.651  0.1667 -0.8105  0.6631
 3211TIP3   OH231047   6.061   4.834   1.487  0.5005 -0.2606  0.1432
 3211TIP3    H131048   5.978   4.859   1.447  0.4559 -0.9204 -0.2076
 3211TIP3    H231049   6.088   4.910   1.538  1.4646  1.3835 -2.5689
 3212TIP3   OH231050   2.906   3.101   3.844  0.0359  0.4474  0.2101
 3212TIP3    H131051   2.982   3.115   3.901  0.9879 -0.3203 -0.8278
 3212TIP3    H231052   2.924   3.154   3.766 -0.4340  0.1576 -0.1043
 3213TIP3   OH231053   1.236   2.342  10.472  0.2627  0.1533  0.2131
 3213TIP3    H131054   1.171   2.272  10.481 -0.0969  0.7697  4.2039
 3213TIP3    H231055   1.186   2.419  10.446  0.1566 -0.2825 -0.9517
 3214TIP3   OH231056   3.134   0.652   1.875 -0.3209  0.3141  0.6049
 3214TIP3    H131057   3.226   0.676   1.862 -1.1176  2.4807 -1.8370
 3214TIP3    H231058   3.108   0.611   1.793 -1.7623  0.6195  0.8853
 3215TIP3   OH231059   1.140   3.620  17.148  0.0492  0.3367  0.5730
 3215TIP3    H131060   1.128   3.550  17.083 -1.2741 -0.7928  1.9441
 3215TIP3    H231061   1.206   3.586  17.208  0.1825  0.7184  0.6430
 3216TIP3   OH231062   2.914   0.874  12.733  0.1825 -0.3325 -0.2690
 3216TIP3    H131063   2.889   0.892  12.824  0.1211 -0.6129 -0.2284
 3216TIP3    H231064   2.995   0.923  12.720  1.1497 -1.6718  0.4855
 3217TIP3   OH231065   0.316   4.621   0.035 -0.2088  0.7838 -0.0280
 3217TIP3    H131066   0.246   4.558   0.021 -0.2392  0.9926 -0.8995
 3217TIP3    H231067   0.295   4.694  -0.024  1.4112  0.2758 -1.3208
 3218TIP3   OH231068   5.629   0.032   0.877 -0.0915  0.2288 -0.1863
 3218TIP3    H131069   5.551  -0.023   0.885  0.5935 -0.6283  0.8474
 3218TIP3    H231070   5.625   0.067   0.788 -0.5507 -1.5079 -0.8844
 3219TIP3   OH231071   0.979   3.191   0.481  0.1247 -0.4804 -0.7514
 3219TIP3    H131072   1.000   3.098   0.486 -1.7183 -0.9715 -1.4464
 3219TIP3    H231073   0.969   3.219   0.572 -0.2320 -1.1852 -0.5754
 3220TIP3   OH231074   5.851   5.659  14.952 -0.1609 -0.4869  0.4685
 3220TIP3    H131075   5.926   5.603  14.934  2.6437  2.7832  0.8925
 3220TIP3    H231076   5.842   5.657  15.047  0.9634  0.8596  0.6318
 3221TIP3   OH231077   2.801   3.591  16.711  0.2560  0.1469 -0.3473
 3221TIP3    H131078   2.761   3.505  16.701  0.4971  0.1252 -1.1724
 3221TIP3    H231079   2.783   3.615  16.802  1.1523 -1.2570  0.2289
 3222TIP3   OH231080   2.884   3.024   0.603  0.3808  0.0571  0.0300
 3222TIP3    H131081   2.924   2.968   0.537  1.1618  0.0964  0.4615
 3222TIP3    H231082   2.925   2.998   0.686 -0.4223  0.1568  0.4781
 3223TIP3   OH231083   0.881   2.207  16.765 -0.6024 -0.4511 -0.3745
 3223TIP3    H131084   0.964   2.243  16.797 -0.5029  0.9961 -2.1094
 3223TIP3    H231085   0.814   2.252  16.816 -0.4151  1.0828 -1.4313
 3224TIP3   OH231086   0.276   3.704   0.610 -0.2503  0.2775 -0.3188
 3224TIP3    H131087   0.227   3.766   0.556 -0.9588 -0.4586 -0.5288
 3224TIP3    H231088   0.253   3.618   0.575  0.4700 -0.1289  0.1834
 3225TIP3   OH231089   4.394   2.779   3.200 -0.0937  0.5214  0.1072
 3225TIP3    H131090   4.397   2.874   3.207  0.6075  0.4719  0.6300
 3225TIP3    H231091   4.356   2.750   3.283 -0.8555  0.3646 -0.2861
 3226TIP3   OH231092   3.685   3.821  13.871  0.2633 -0.8963 -0.5294
 3226TIP3    H131093   3.720   3.826  13.782 -0.6913  1.4625 -0.8577
 3226TIP3    H231094   3.594   3.850  13.863  0.5576  0.8421  1.3820
 3227TIP3   OH231095   1.009   5.513  12.149  0.1322  0.1801 -0.1018
 3227TIP3    H131096   0.955   5.436  12.128 -1.0624  1.3824 -1.6340
 3227TIP3    H231097   1.021   5.557  12.065 -0.9301  2.7352  0.9984
 3228TIP3   OH231098   2.301   6.339   3.015  0.4043  0.0491  0.6561
 3228TIP3    H131099   2.258   6.270   2.964 -0.8100 -0.2753  2.0433
 3228TIP3    H231100   2.234   6.366   3.078  1.4699  1.2580  1.3027
 3229TIP3   OH231101   4.896   6.349  13.015 -0.1887  0.0415 -0.1114
 3229TIP3    H131102   4.950   6.271  13.001 -0.5739 -0.2813  0.1936
 3229TIP3    H231103   4.958   6.422  13.008  0.0869 -0.2544 -0.9075
 3230TIP3   OH231104   0.219   0.731  15.495  0.7846  0.3923 -0.3856
 3230TIP3    H131105   0.196   0.820  15.470 -1.2421 -0.1124 -0.4698
 3230TIP3    H231106   0.169   0.675  15.436  1.7638 -0.8233 -0.1185
 3231TIP3   OH231107   4.412   4.382   2.678 -0.3007  0.1183  0.1841
 3231TIP3    H131108   4.400   4.359   2.586 -0.0868 -0.8930  0.4047
 3231TIP3    H231109   4.489   4.332   2.706 -0.6900 -0.0113  1.0588
 3232TIP3   OH231110   5.723   0.494   4.270 -0.2793 -0.2167  0.1156
 3232TIP3    H131111   5.799   0.447   4.237  0.1165  1.2381 -1.1879
 3232TIP3    H231112   5.754   0.584   4.282 -1.5008  0.1558  0.6249
 3233TIP3   OH231113   1.186   0.987  16.344 -0.0833 -0.1962  0.4115
 3233TIP3    H131114   1.257   1.013  16.402  0.3981 -1.6205  0.4918
 3233TIP3    H231115   1.132   0.928  16.397  0.2094 -1.2923 -0.4697
 3234TIP3   OH231116   6.743   2.826  11.491  0.1992  0.7112 -0.7438
 3234TIP3    H131117   6.823   2.799  11.536 -0.6912 -1.2549 -0.2378
 3234TIP3    H231118   6.764   2.912  11.454  2.9884 -0.3244 -1.8119
 3235TIP3   OH231119   4.217   2.867   1.766 -0.1912 -0.1641 -0.2467
 3235TIP3    H131120   4.143   2.924   1.746 -1.1543 -1.2896 -0.0672
 3235TIP3    H231121   4.219   2.804   1.695 -2.2427 -2.8289  1.8293
 3236TIP3   OH231122   3.168   5.359   0.991 -0.3167 -0.2292  0.0741
 3236TIP3    H131123   3.199   5.270   1.004 -0.2900 -0.2967 -0.4629
 3236TIP3    H231124   3.240   5.414   1.021 -0.2970 -0.3848  0.3180
 3237TIP3   OH231125   5.281   2.728  10.674  0.4158 -0.0783 -0.3537
 3237TIP3    H131126   5.310   2.812  10.710  1.8338 -0.3842 -0.7233
 3237TIP3    H231127   5.355   2.669  10.688 -0.0171 -0.8933 -1.3792
 3238TIP3   OH231128   4.609   1.485  12.129 -0.0546  0.4889 -0.0165
 3238TIP3    H131129   4.559   1.407  12.106 -0.6393  0.6200  0.7516
 3238TIP3    H231130   4.561   1.557  12.090 -0.2927  0.5837  0.4396
 3239TIP3   OH231131   1.926   0.533  11.664 -0.4205 -0.2071 -0.2266
 3239TIP3    H131132   1.911   0.451  11.712 -0.8689  0.1596  0.2791
 3239TIP3    H231133   1.877   0.599  11.714  0.1576  0.4222 -0.4718
 3240TIP3   OH231134   2.406   0.860  13.906 -0.2476 -0.0349  0.0717
 3240TIP3    H131135   2.444   0.871  13.993  0.8345 -0.2574 -0.3487
 3240TIP3    H231136   2.450   0.926  13.852 -1.7784  0.9215 -0.0679
 3241TIP3   OH231137   1.774   6.335  12.471 -0.0420 -0.0994  0.1572
 3241TIP3    H131138   1.789   6.305  12.561  0.4803 -0.7057 -0.1310
 3241TIP3    H231139   1.779   6.430  12.477 -1.6135 -0.0287  1.0593
 3242TIP3   OH231140   1.464   0.556   1.822 -0.4503  0.0211  0.5098
 3242TIP3    H131141   1.383   0.600   1.797 -1.1943 -0.3747  2.1423
 3242TIP3    H231142   1.530   0.626   1.825 -1.3106  0.8082  1.6999
 3243TIP3   OH231143   5.470   4.025   3.907  0.3392  0.5989  0.3617
 3243TIP3    H131144   5.560   4.042   3.879  0.6292 -0.5220  0.5734
 3243TIP3    H231145   5.441   4.108   3.946  0.6980  1.4872 -1.1942
 3244TIP3   OH231146   2.159   2.375  10.614  0.1821  0.1892  0.1981
 3244TIP3    H131147   2.092   2.423  10.566 -0.0176  0.5647  0.8363
 3244TIP3    H231148   2.152   2.285  10.582 -1.8449 -0.1828  1.5219
 3245TIP3   OH231149   3.080   1.520  13.275  0.1220  0.2914  0.4198
 3245TIP3    H131150   3.127   1.597  13.243  1.1463 -0.5288 -0.1010
 3245TIP3    H231151   3.129   1.493  13.353  0.5092 -0.5555 -0.1103
 3246TIP3   OH231152   3.329   0.880  13.747 -0.0280  0.4567  0.4924
 3246TIP3    H131153   3.255   0.832  13.708 -0.9129  0.3948  2.1721
 3246TIP3    H231154   3.402   0.819  13.740 -0.0505  0.5848 -1.3611
 3247TIP3   OH231155   1.924   1.097  16.570 -0.2129 -0.2005 -0.4726
 3247TIP3    H131156   1.916   1.009  16.532 -0.5762 -0.2607 -0.2669
 3247TIP3    H231157   1.854   1.147  16.529 -1.3212 -0.5577  0.8890
 3248TIP3   OH231158   1.873   0.299   0.065  0.6465  0.1286 -0.2961
 3248TIP3    H131159   1.842   0.214   0.095  0.7595 -0.7192 -2.3890
 3248TIP3    H231160   1.929   0.331   0.136  0.5248 -1.4902  0.5737
 3249TIP3   OH231161   5.936   1.486   4.995 -0.7612  0.1486 -0.7874
 3249TIP3    H131162   5.846   1.492   4.963 -1.0430  1.4372  0.1767
 3249TIP3    H231163   5.946   1.394   5.021 -1.8395  0.0220 -0.7781
 3250TIP3   OH231164   6.572   2.996   4.588  0.3763 -0.0305  0.2018
 3250TIP3    H131165   6.590   2.990   4.494  0.5403 -1.9314  0.3266
 3250TIP3    H231166   6.484   3.035   4.593 -0.5006 -1.7672 -0.8388
 3251TIP3   OH231167   1.376   4.563  12.541  0.1614  0.1482 -0.0543
 3251TIP3    H131168   1.317   4.634  12.564  0.0774 -0.0075  0.2076
 3251TIP3    H231169   1.403   4.583  12.451  1.1334  1.2025  0.4460
 3252TIP3   OH231170   6.348   1.425   2.497  0.3725  0.1293  0.0412
 3252TIP3    H131171   6.372   1.402   2.587  1.3805 -1.8125 -0.6741
 3252TIP3    H231172   6.427   1.409   2.446 -0.7964 -0.9364 -1.5211
 3253TIP3   OH231173   1.383   4.611   2.205  0.0869  0.2651  0.2661
 3253TIP3    H131174   1.406   4.623   2.297 -0.0559 -0.0490  0.3441
 3253TIP3    H231175   1.289   4.594   2.206  0.1631 -0.1835  0.1032
 3254TIP3   OH231176   2.233   2.980  16.563 -0.2269  0.1442  0.5451
 3254TIP3    H131177   2.311   2.951  16.516 -1.3254  0.0222 -1.2724
 3254TIP3    H231178   2.238   3.076  16.559  0.4792  0.1656  1.5853
 3255TIP3   OH231179   0.663   5.996   4.372  0.2795 -0.1273  0.0544
 3255TIP3    H131180   0.592   5.933   4.383 -0.0953  0.3221  0.2238
 3255TIP3    H231181   0.639   6.047   4.295  1.0356 -0.7793 -0.6374
 3256TIP3   OH231182   5.168   1.874  12.906  0.2301 -0.0639  0.1385
 3256TIP3    H131183   5.146   1.941  12.841 -1.7318  0.6688  1.4700
 3256TIP3    H231184   5.110   1.801  12.885  0.3767 -0.2537  0.3906
 3257TIP3   OH231185   2.754   6.446   6.435 -0.3879 -0.4419  0.1825
 3257TIP3    H131186   2.661   6.462   6.419  0.0077  0.6222 -1.2558
 3257TIP3    H231187   2.777   6.509   6.504 -1.0282 -1.7714  1.6965
 3258TIP3   OH231188   4.652   2.387  11.823  0.1830  0.9673 -0.3445
 3258TIP3    H131189   4.594   2.311  11.818  0.0148  1.0370  0.4169
 3258TIP3    H231190   4.650   2.413  11.916  1.2384  1.1102 -0.3472
 3259TIP3   OH231191   6.521   4.896  10.605  0.0388 -0.2462 -0.5663
 3259TIP3    H131192   6.566   4.978  10.589  1.5768 -0.8103  0.6363
 3259TIP3    H231193   6.429   4.921  10.614  0.1949  1.0661 -2.0580
 3260TIP3   OH231194   3.932   1.561  13.746 -0.0996 -0.0186  0.5331
 3260TIP3    H131195   3.934   1.490  13.681  0.5254  0.4572  0.0165
 3260TIP3    H231196   3.892   1.521  13.823 -0.4601 -0.7206  0.0027
 3261TIP3   OH231197   1.376   0.611   6.345 -0.5301 -0.5646 -0.3745
 3261TIP3    H131198   1.314   0.673   6.383 -1.0398 -0.6037 -1.1256
 3261TIP3    H231199   1.325   0.531   6.332 -0.4492 -0.4606 -1.4073
 3262TIP3   OH231200   1.855   6.090   2.647 -0.2487 -0.7191  0.6522
 3262TIP3    H131201   1.775   6.071   2.599  0.6206 -1.2396 -0.6676
 3262TIP3    H231202   1.837   6.172   2.693 -1.5727 -0.9135  0.5076
 3263TIP3   OH231203   1.737   3.848  11.019  0.1770  0.2223 -0.3707
 3263TIP3    H131204   1.750   3.775  11.080 -2.1127 -0.7996 -1.0019
 3263TIP3    H231205   1.745   3.808  10.933 -0.6169  0.8083 -0.7272
 3264TIP3   OH231206   0.805   3.317   3.383 -0.3910  0.6610 -0.2826
 3264TIP3    H131207   0.747   3.284   3.451  0.6347  0.3102  0.4369
 3264TIP3    H231208   0.852   3.240   3.351  1.1289  1.1917  0.5474
 3265TIP3   OH231209   1.609   5.182  15.271  0.4234 -0.1484  0.0666
 3265TIP3    H131210   1.551   5.240  15.221  0.3150  0.4963  0.9272
 3265TIP3    H231211   1.636   5.115  15.207 -0.4681  0.1092 -0.6038
 3266TIP3   OH231212   4.102   4.474   3.798  0.1293 -0.2854 -0.2248
 3266TIP3    H131213   4.038   4.404   3.808  0.6303 -0.9827 -1.5059
 3266TIP3    H231214   4.094   4.527   3.876 -0.8815 -1.2877  0.3700
 3267TIP3   OH231215   4.556   0.298   0.715  0.7402  0.4217  0.0082
 3267TIP3    H131216   4.502   0.230   0.755 -0.9143  1.7123  0.0931
 3267TIP3    H231217   4.587   0.260   0.633 -1.6534  0.1507 -0.8337
 3268TIP3   OH231218   5.450   2.646  15.979 -0.2364  0.3386 -0.4288
 3268TIP3    H131219   5.508   2.722  15.979  0.3405 -0.0075 -2.7436
 3268TIP3    H231220   5.418   2.640  16.069  1.4829  1.9328  0.3645
 3269TIP3   OH231221   4.635   6.156  12.446 -0.1150 -0.2349 -0.5907
 3269TIP3    H131222   4.712   6.124  12.492 -0.4744 -1.8550 -1.0599
 3269TIP3    H231223   4.665   6.172  12.356 -0.0825  0.1214 -0.5160
 3270TIP3   OH231224   2.794   1.108  11.642 -0.5014 -0.0004  0.2573
 3270TIP3    H131225   2.802   1.085  11.734 -1.4786  0.7821  0.5484
 3270TIP3    H231226   2.856   1.179  11.628  0.0785 -0.5167  0.1564
 3271TIP3   OH231227   3.071   0.259   1.871  0.7122  0.0831 -0.4310
 3271TIP3    H131228   3.086   0.259   1.966 -2.0056 -0.3123  0.1001
 3271TIP3    H231229   3.119   0.182   1.839 -1.0858 -1.8734  1.2556
 3272TIP3   OH231230   0.450   0.171   0.231  0.1996 -0.3924 -0.2505
 3272TIP3    H131231   0.454   0.137   0.142  0.1293 -0.0230 -0.3937
 3272TIP3    H231232   0.385   0.115   0.275 -2.0060  1.2484 -1.2303
 3273TIP3   OH231233   0.133   3.562  13.773 -0.5118  0.4653 -0.7527
 3273TIP3    H131234   0.183   3.487  13.741  0.5324 -0.2023  2.1063
 3273TIP3    H231235   0.198   3.618  13.814 -1.8739  0.0027  2.3185
 3274TIP3   OH231236   3.266   6.621   4.868  0.3183  0.7293 -0.1752
 3274TIP3    H131237   3.175   6.632   4.896 -0.3753 -0.8148 -1.6623
 3274TIP3    H231238   3.306   6.568   4.937  0.0555  1.2636  0.3963
 3275TIP3   OH231239   3.351   5.727   3.205  0.1231  0.3583  0.0847
 3275TIP3    H131240   3.279   5.726   3.141 -1.0205 -2.4857  1.2478
 3275TIP3    H231241   3.406   5.652   3.181  1.6256  1.3151  0.4075
 3276TIP3   OH231242   6.559   6.619   6.247  0.0380  0.9526  0.6304
 3276TIP3    H131243   6.647   6.588   6.268  0.0155 -0.8321 -1.4688
 3276TIP3    H231244   6.571   6.709   6.218  1.3162  0.5373 -0.2324
 3277TIP3   OH231245   3.493   4.450   5.008  0.0822  0.6069  0.1364
 3277TIP3    H131246   3.455   4.384   5.065  2.6802 -1.3603 -0.1882
 3277TIP3    H231247   3.499   4.529   5.062 -0.1882 -0.3496  1.6131
 3278TIP3   OH231248   0.705   6.218  12.855  0.5412 -0.0146 -0.3351
 3278TIP3    H131249   0.676   6.148  12.796 -0.1561 -1.3187  1.4449
 3278TIP3    H231250   0.659   6.296  12.824 -0.5401 -0.8620 -0.9649
 3279TIP3   OH231251   5.967   3.548   1.297  0.1187 -0.0790 -0.0259
 3279TIP3    H131252   6.034   3.616   1.287  0.2225  0.0483  1.3831
 3279TIP3    H231253   5.897   3.590   1.347 -1.5736  0.1374 -2.4128
 3280TIP3   OH231254   5.891   3.034  16.020 -0.5396 -0.7807  0.2804
 3280TIP3    H131255   5.963   2.972  16.008  0.3683 -0.0498  1.7075
 3280TIP3    H231256   5.841   3.028  15.938 -0.1367 -2.9208  0.1290
 3281TIP3   OH231257   3.565   5.160   2.095  0.3095 -0.8563  0.5967
 3281TIP3    H131258   3.553   5.066   2.077  2.1968 -0.8125 -1.1330
 3281TIP3    H231259   3.483   5.186   2.136 -0.5026 -3.1324  0.5889
 3282TIP3   OH231260   5.677   3.413   6.061 -0.0433  0.0207  0.1544
 3282TIP3    H131261   5.620   3.348   6.101 -2.6431  1.1756 -1.3543
 3282TIP3    H231262   5.696   3.475   6.131  0.5064 -1.0960  1.0170
 3283TIP3   OH231263   4.416   5.872  15.619  1.2191  0.0461 -0.1126
 3283TIP3    H131264   4.390   5.881  15.528  0.4675 -0.0027  0.0950
 3283TIP3    H231265   4.342   5.904  15.669  1.3741 -0.5213  0.4928
 3284TIP3   OH231266   1.447   3.918   4.695  0.4417  0.2440 -0.1422
 3284TIP3    H131267   1.365   3.967   4.706  1.3169  1.9490 -0.8850
 3284TIP3    H231268   1.492   3.927   4.779 -0.4212 -1.3544  0.5400
 3285TIP3   OH231269   0.491   2.330   1.294  0.2509 -0.3390  0.3190
 3285TIP3    H131270   0.451   2.393   1.234  0.2637 -1.4022 -0.8397
 3285TIP3    H231271   0.520   2.383   1.369 -0.3861  0.9128 -0.2968
 3286TIP3   OH231272   5.714   0.907  17.280 -0.5380 -0.1846  0.0624
 3286TIP3    H131273   5.647   0.873  17.340  0.2182 -2.1801 -0.1568
 3286TIP3    H231274   5.736   0.833  17.224 -0.3492  1.2963 -1.9367
 3287TIP3   OH231275   5.145   5.721   5.198  0.5208 -0.2281  0.0358
 3287TIP3    H131276   5.142   5.730   5.293  0.5249  0.9366 -0.0681
 3287TIP3    H231277   5.155   5.810   5.165 -1.1769 -0.4032 -1.1267
 3288TIP3   OH231278   5.538   5.471  13.974 -0.6633 -0.0841 -0.2203
 3288TIP3    H131279   5.473   5.526  14.018 -0.1464 -0.1950  0.7165
 3288TIP3    H231280   5.618   5.524  13.975 -0.7558  0.1061 -1.4815
 3289TIP3   OH231281   2.509   3.561   3.551  0.2333 -0.3990 -0.3379
 3289TIP3    H131282   2.473   3.594   3.469  0.7702  0.0942 -0.3842
 3289TIP3    H231283   2.445   3.497   3.581 -0.6636  0.4186 -0.4317
 3290TIP3   OH231284   0.382   2.047   3.994 -0.8857  0.3974  0.0962
 3290TIP3    H131285   0.318   2.059   3.924 -0.3099  1.0428 -0.3381
 3290TIP3    H231286   0.467   2.055   3.950 -0.5078  0.1251  0.7585
 3291TIP3   OH231287   5.752   6.371   1.927  0.0196 -0.0149  0.0934
 3291TIP3    H131288   5.786   6.442   1.981 -1.1895  0.1249  0.6953
 3291TIP3    H231289   5.776   6.396   1.837  0.5980  0.5666  0.4015
 3292TIP3   OH231290   6.757   0.606   0.811  0.0990 -0.2569  0.2534
 3292TIP3    H131291   6.681   0.588   0.756  0.2718  0.0065 -0.0746
 3292TIP3    H231292   6.731   0.577   0.899 -0.2903 -0.3890  0.0948
 3293TIP3   OH231293   4.210   0.977  14.096  0.4295  0.2417 -0.6353
 3293TIP3    H131294   4.142   0.983  14.162 -0.3546  0.3027 -1.4198
 3293TIP3    H231295   4.176   0.914  14.032 -0.3165  2.4572 -2.6102
 3294TIP3   OH231296   4.704   4.692  12.018  0.0888  0.1029  0.6851
 3294TIP3    H131297   4.681   4.645  12.098  2.5369 -1.3706  0.6340
 3294TIP3    H231298   4.742   4.625  11.961 -3.7686  0.5312 -2.8617
 3295TIP3   OH231299   2.974   2.550  11.244  0.7023 -0.5951  0.1451
 3295TIP3    H131300   2.897   2.607  11.253  1.6663  1.1446 -1.7778
 3295TIP3    H231301   3.030   2.573  11.318  0.0882 -0.7268  0.6600
 3296TIP3   OH231302   4.855   0.395   4.653  0.6758  0.1320  0.2433
 3296TIP3    H131303   4.871   0.476   4.703 -0.0764 -0.0175  0.7517
 3296TIP3    H231304   4.783   0.418   4.594  0.5919 -0.1122  0.2509
 3297TIP3   OH231305   6.043   5.792   3.443 -0.4779  0.1936 -0.0720
 3297TIP3    H131306   6.053   5.697   3.433  3.7835  0.4586 -0.3448
 3297TIP3    H231307   5.987   5.818   3.370  0.8803 -1.8168 -1.9696
 3298TIP3   OH231308   4.037   5.914   3.319 -0.1710 -0.6899 -0.1485
 3298TIP3    H131309   3.994   5.947   3.398  2.8539 -2.1115  2.3146
 3298TIP3    H231310   4.078   5.832   3.346  2.3952 -0.4324 -2.7054
 3299TIP3   OH231311   2.275   2.890   5.193 -0.5130 -0.1039  0.0621
 3299TIP3    H131312   2.210   2.858   5.131 -1.2067  0.4837  0.4709
 3299TIP3    H231313   2.359   2.862   5.156 -1.0283 -1.6580 -0.0229
 3300TIP3   OH231314   5.545   3.440   5.745 -0.5795  0.0678 -0.0950
 3300TIP3    H131315   5.478   3.506   5.763 -1.1268 -0.1652 -1.1900
 3300TIP3    H231316   5.599   3.438   5.824 -0.0581  2.3815 -0.3285
 3301TIP3   OH231317   5.858   5.966  13.402 -0.0836  0.3365 -0.1841
 3301TIP3    H131318   5.946   5.929  13.405  0.9901  2.6828 -0.4994
 3301TIP3    H231319   5.869   6.056  13.433 -2.2094  0.9639 -1.0704
 3302TIP3   OH231320   6.275   4.198   3.898 -0.5384 -0.5324 -0.2172
 3302TIP3    H131321   6.262   4.175   3.990 -0.8187 -2.0219 -0.6038
 3302TIP3    H231322   6.368   4.220   3.891  0.3388 -3.6542 -0.1578
 3303TIP3   OH231323   2.022   0.141  16.956  0.0645 -0.5546  0.1060
 3303TIP3    H131324   2.084   0.177  16.892 -0.6806  0.8244  0.1252
 3303TIP3    H231325   2.001   0.214  17.013 -1.9685 -0.8394 -0.2203
 3304TIP3   OH231326   2.794   3.007  14.539  0.7524 -0.0332 -0.5443
 3304TIP3    H131327   2.785   3.093  14.499  2.6165 -0.5300 -2.2399
 3304TIP3    H231328   2.793   3.023  14.633  0.3093  1.7198 -0.8183
 3305TIP3   OH231329   6.002   3.558  11.842  1.0236 -0.3896 -0.3861
 3305TIP3    H131330   5.958   3.543  11.926  0.6325 -0.9184 -0.6838
 3305TIP3    H231331   5.958   3.635  11.806  1.8432  0.4442  0.3261
 3306TIP3   OH231332   1.045   0.590   6.155  0.1565 -0.2495  0.2300
 3306TIP3    H131333   0.960   0.627   6.179 -0.3069 -1.2729  0.1940
 3306TIP3    H231334   1.039   0.498   6.179  1.6419 -0.1214  1.2240
 3307TIP3   OH231335   1.427   6.351   5.544  0.0623  0.5944  0.3022
 3307TIP3    H131336   1.497   6.319   5.602  0.4164 -0.2707 -0.5848
 3307TIP3    H231337   1.362   6.388   5.604  1.8687  2.6880  1.0952
 3308TIP3   OH231338   5.627   3.087  14.891 -0.1220  0.4308  0.2765
 3308TIP3    H131339   5.655   3.159  14.834  0.7072 -0.0713  0.0345
 3308TIP3    H231340   5.601   3.017  14.830 -0.6035  0.4069  0.5104
 3309TIP3   OH231341   1.003   4.053   3.049 -0.3020 -0.3069 -0.9589
 3309TIP3    H131342   0.981   4.095   3.132 -0.7870  1.6196 -1.9964
 3309TIP3    H231343   1.098   4.046   3.049 -0.1499  1.3723 -0.9654
 3310TIP3   OH231344   0.451   0.668   2.689 -0.1825 -0.5646 -0.2205
 3310TIP3    H131345   0.386   0.736   2.673 -0.6425 -1.0603 -0.5032
 3310TIP3    H231346   0.419   0.622   2.767  2.2395  2.0824  2.5982
 3311TIP3   OH231347   5.757   4.097   5.560  0.4501 -0.6637  0.2670
 3311TIP3    H131348   5.731   4.140   5.641  0.0909 -1.9487  0.8542
 3311TIP3    H231349   5.766   4.169   5.497  2.4571  0.5710  1.8554
 3312TIP3   OH231350   3.428   6.247  11.727 -0.6758 -0.5852  0.2699
 3312TIP3    H131351   3.405   6.308  11.797 -1.5201  0.6283 -1.0019
 3312TIP3    H231352   3.358   6.181  11.728 -2.1488  0.8563 -0.9973
 3313TIP3   OH231353   5.015   0.034   4.488 -0.0164  0.1614  0.1975
 3313TIP3    H131354   5.064  -0.010   4.419 -2.9358 -2.2362 -0.6017
 3313TIP3    H231355   5.024  -0.022   4.565  1.4329  1.6693  1.1891
 3314TIP3   OH231356   6.530   5.882  16.672  0.3605 -0.3374 -0.0618
 3314TIP3    H131357   6.536   5.839  16.587  0.6249  0.7398 -0.6028
 3314TIP3    H231358   6.436   5.886  16.691  0.2784 -0.2331 -0.4890
 3315TIP3   OH231359   0.817   3.547   2.643 -0.0384  0.4399 -1.2000
 3315TIP3    H131360   0.890   3.597   2.679  0.0016 -0.5378  0.1598
 3315TIP3    H231361   0.741   3.575   2.693  0.2646 -2.0165  0.8762
 3316TIP3   OH231362   4.612   4.777   3.900  0.2971 -0.7694  0.4247
 3316TIP3    H131363   4.575   4.768   3.813 -0.1208  0.3503  0.4761
 3316TIP3    H231364   4.624   4.687   3.930 -0.4875 -1.1601 -0.3840
 3317TIP3   OH231365   0.681   1.684  15.582  0.8003 -0.1212 -0.3904
 3317TIP3    H131366   0.649   1.630  15.654 -0.0851 -0.1710 -0.8026
 3317TIP3    H231367   0.770   1.653  15.566  0.3904 -1.3319 -0.4699
 3318TIP3   OH231368   2.634   0.125  13.161  0.2437 -0.5786  0.0147
 3318TIP3    H131369   2.661   0.155  13.247 -0.3013  1.2947 -0.4325
 3318TIP3    H231370   2.689   0.174  13.100  0.0604 -1.2856 -0.7403
 3319TIP3   OH231371   1.559   4.935  11.454  0.8027 -0.0334 -0.2737
 3319TIP3    H131372   1.629   4.874  11.477  0.3337  0.0074  1.4394
 3319TIP3    H231373   1.511   4.892  11.383  1.7188 -0.6844 -0.5195
 3320TIP3   OH231374   6.676   1.056  15.503 -0.1922  0.5723  0.5964
 3320TIP3    H131375   6.651   0.969  15.533 -0.9488  0.9162  1.0031
 3320TIP3    H231376   6.610   1.114  15.541  0.6035  1.3862  0.7679
 3321TIP3   OH231377   1.351   2.772   2.534  0.1999 -0.1309  0.4276
 3321TIP3    H131378   1.290   2.830   2.489 -1.9302 -2.7012 -0.2706
 3321TIP3    H231379   1.336   2.686   2.494  1.9967 -1.5086  2.4783
 3322TIP3   OH231380   2.234   2.527   1.264 -0.0547 -0.4389  0.0944
 3322TIP3    H131381   2.212   2.485   1.347 -1.9749  0.2581 -0.0207
 3322TIP3    H231382   2.288   2.462   1.218 -0.4203 -1.5326  1.1576
 3323TIP3   OH231383   3.305   4.559  15.222  0.4856  0.2171  0.3233
 3323TIP3    H131384   3.323   4.466  15.211  1.6900  0.1858  2.1290
 3323TIP3    H231385   3.381   4.593  15.269 -0.2205  1.9882  0.2625
 3324TIP3   OH231386   4.031   2.744  14.119  0.2156  0.0056 -0.1429
 3324TIP3    H131387   3.946   2.787  14.126  0.2105  0.0888 -0.6713
 3324TIP3    H231388   4.069   2.752  14.207 -0.2283  0.1530  0.0414
 3325TIP3   OH231389   1.809   3.596  12.182 -0.5947  0.3284 -0.2212
 3325TIP3    H131390   1.729   3.633  12.145  0.2857  2.8866  0.2079
 3325TIP3    H231391   1.797   3.603  12.277  0.5060  1.8061 -0.1445
 3326TIP3   OH231392   0.004   2.409   4.411  0.2007  0.2324  0.0660
 3326TIP3    H131393  -0.048   2.485   4.435 -1.1116 -0.2644 -1.0709
 3326TIP3    H231394   0.091   2.444   4.394 -0.4689  1.5676 -0.8196
 3327TIP3   OH231395   5.437   2.555  12.426  0.2850 -0.2114  0.2586
 3327TIP3    H131396   5.438   2.459  12.418  0.3505 -0.0564 -2.7816
 3327TIP3    H231397   5.511   2.584  12.372 -1.8852  1.6236 -1.9323
 3328TIP3   OH231398   6.208   0.893  13.807  0.0076  0.2205 -0.1502
 3328TIP3    H131399   6.286   0.853  13.846 -0.5990 -0.1301  0.7357
 3328TIP3    H231400   6.146   0.899  13.879 -0.5898  1.0207 -0.7198
 3329TIP3   OH231401   1.293   5.166  16.097  0.9930 -0.6489 -0.0537
 3329TIP3    H131402   1.368   5.170  16.156  2.7322  1.8184 -2.1448
 3329TIP3    H231403   1.324   5.112  16.024  1.1733  1.0635 -1.3233
 3330TIP3   OH231404   3.536   1.208  13.805  0.1320 -0.7921 -0.4528
 3330TIP3    H131405   3.628   1.223  13.782 -0.2090 -0.7208 -1.8936
 3330TIP3    H231406   3.488   1.224  13.723 -1.3250  0.6346  0.6238
 3331TIP3   OH231407   5.401   2.239  13.149  0.1827  0.3993  0.2703
 3331TIP3    H131408   5.345   2.303  13.194  0.8485  1.7691 -0.7727
 3331TIP3    H231409   5.356   2.156  13.162 -1.3659  1.2441  0.6597
 3332TIP3   OH231410   6.724   3.165   3.998 -0.5304  0.0381  0.4051
 3332TIP3    H131411   6.677   3.177   3.915  2.4297 -1.7096 -1.6873
 3332TIP3    H231412   6.659   3.127   4.057 -1.8750 -2.1446 -2.2670
 3333TIP3   OH231413   2.663   5.387   2.583  0.6486  0.1250 -0.0894
 3333TIP3    H131414   2.610   5.443   2.527  1.7091  0.3931 -0.8644
 3333TIP3    H231415   2.686   5.443   2.658  1.0305  0.4841 -0.4651
 3334TIP3   OH231416   1.335   4.221   4.830 -0.1200  0.3540  0.6643
 3334TIP3    H131417   1.429   4.205   4.816 -0.2329 -0.7781  1.0496
 3334TIP3    H231418   1.329   4.244   4.923 -0.1105  1.4427  0.3995
 3335TIP3   OH231419   2.439   4.951  16.027  0.1235  0.1389 -0.2593
 3335TIP3    H131420   2.443   4.933  15.933 -0.0720  3.2699 -0.9732
 3335TIP3    H231421   2.402   4.871  16.065  1.1857 -1.6276 -2.6601
 3336TIP3   OH231422   5.264   4.379  14.265 -0.0356 -0.4424 -0.6004
 3336TIP3    H131423   5.226   4.291  14.271 -2.0670  0.3723 -0.6072
 3336TIP3    H231424   5.319   4.376  14.187 -0.7929 -1.4687 -1.1341
 3337TIP3   OH231425   4.242   6.259  13.597 -0.0508 -0.4495 -0.0411
 3337TIP3    H131426   4.269   6.221  13.681  0.8238 -1.4145 -0.7353
 3337TIP3    H231427   4.218   6.349  13.619  0.1438 -0.6813  1.2447
 3338TIP3   OH231428   5.620   1.021   2.320 -0.4207  0.5001  0.0625
 3338TIP3    H131429   5.636   0.948   2.380 -2.6419  2.5283  3.4852
 3338TIP3    H231430   5.682   1.007   2.248  1.9904 -2.5670  2.4250
 3339TIP3   OH231431   5.092   5.901   4.574 -0.2065  0.5187 -0.1225
 3339TIP3    H131432   5.015   5.871   4.525  0.2331  1.0512 -1.1579
 3339TIP3    H231433   5.158   5.920   4.507  1.5042 -1.6940  0.8000
 3340TIP3   OH231434   5.537   4.686   3.288 -0.0297  0.1462  0.6503
 3340TIP3    H131435   5.542   4.740   3.367 -0.9961  0.9463  0.1846
 3340TIP3    H231436   5.619   4.635   3.289  0.0913  0.3172  2.0240
 3341TIP3   OH231437   4.691   1.732   1.439 -0.1739 -0.2239 -0.4099
 3341TIP3    H131438   4.650   1.808   1.398 -2.0599 -0.9717 -0.0021
 3341TIP3    H231439   4.661   1.734   1.530  1.6342 -0.1804  0.2160
 3342TIP3   OH231440   4.169   5.211  16.363  0.5890  0.1491 -0.6248
 3342TIP3    H131441   4.228   5.144  16.398 -0.1584 -0.7454 -1.0237
 3342TIP3    H231442   4.118   5.240  16.438  0.2540 -0.4420 -0.6130
 3343TIP3   OH231443   4.873   1.082  10.541 -0.3378  0.5196  0.3058
 3343TIP3    H131444   4.938   1.072  10.610 -0.4396  2.1749  0.6835
 3343TIP3    H231445   4.789   1.079  10.586 -0.5043 -0.6917 -0.0619
 3344TIP3   OH231446   1.596   2.941   2.593  0.5025  0.2588  0.1446
 3344TIP3    H131447   1.504   2.915   2.584  0.7525 -0.7351  0.3342
 3344TIP3    H231448   1.624   2.901   2.675  0.6046  2.1135  1.0720
 3345TIP3   OH231449   0.493   3.361  13.167 -0.4314 -0.6386 -0.1929
 3345TIP3    H131450   0.408   3.401  13.187  0.2884 -0.1861  2.3474
 3345TIP3    H231451   0.553   3.435  13.164  0.3641 -1.2041  1.1882
 3346TIP3   OH231452   1.746   6.352   0.182 -0.2334  0.0537  0.0878
 3346TIP3    H131453   1.723   6.443   0.202  0.0933  0.0700  0.3847
 3346TIP3    H231454   1.718   6.340   0.091 -0.2937  0.4449  0.0548
 3347TIP3   OH231455   3.898   5.045  11.806 -0.5898  0.8863  0.0284
 3347TIP3    H131456   3.843   5.083  11.737 -2.0175 -0.2271  0.5042
 3347TIP3    H231457   3.988   5.065  11.778 -1.1341  0.8505 -1.9296
 3348TIP3   OH231458   4.619   5.521  12.411 -0.0075  0.0596  0.1876
 3348TIP3    H131459   4.694   5.527  12.352  0.6579 -1.0722  0.8815
 3348TIP3    H231460   4.600   5.611  12.436  0.6838  0.4128 -0.5294
 3349TIP3   OH231461   6.199   4.464   5.513 -0.1804  0.1513 -0.2284
 3349TIP3    H131462   6.280   4.414   5.512 -1.1262 -1.4424 -0.1232
 3349TIP3    H231463   6.153   4.433   5.591 -1.4197  0.1707 -0.9362
 3350TIP3   OH231464   0.413   2.178  14.976 -0.0349  0.2549 -0.8946
 3350TIP3    H131465   0.392   2.268  14.953 -0.5087  0.3153 -0.2565
 3350TIP3    H231466   0.508   2.178  14.989  0.1404  0.3879 -2.0251
 3351TIP3   OH231467   5.265   6.301   1.173  0.0259 -0.1634  0.6247
 3351TIP3    H131468   5.347   6.259   1.146  0.4569  0.4958  0.8969
 3351TIP3    H231469   5.241   6.356   1.098 -0.1441 -0.3182  0.5648
 3352TIP3   OH231470   6.116   1.055  14.626  0.2063  0.8678  0.1014
 3352TIP3    H131471   6.048   1.007  14.577  2.0795 -2.4173  0.3874
 3352TIP3    H231472   6.082   1.059  14.716 -0.7890  1.8318 -0.2934
 3353TIP3   OH231473   6.352   5.255   0.488 -0.0608  0.5519 -0.7379
 3353TIP3    H131474   6.365   5.196   0.414  0.1836  1.2555 -1.2589
 3353TIP3    H231475   6.257   5.271   0.489 -0.4353 -1.3474  0.5852
 3354TIP3   OH231476   5.580   5.688  15.368 -0.3415  0.0710 -0.7464
 3354TIP3    H131477   5.515   5.620  15.387 -0.8436  0.9988  1.1100
 3354TIP3    H231478   5.535   5.749  15.310 -1.1253  0.6268  0.4062
 3355TIP3   OH231479   0.464   2.764  14.981 -0.0713  0.3213  0.0745
 3355TIP3    H131480   0.385   2.802  15.018 -0.1025 -1.5380  2.1106
 3355TIP3    H231481   0.515   2.736  15.057  1.5504 -0.4485 -1.2354
 3356TIP3   OH231482   6.527   4.024  10.684 -0.1880  0.2756 -0.6889
 3356TIP3    H131483   6.505   4.080  10.758 -0.5920 -0.8972  0.1212
 3356TIP3    H231484   6.621   4.007  10.695 -0.4254 -0.6268  0.1107
 3357TIP3   OH231485   6.178   0.375   2.824 -0.0668 -0.2108 -0.2424
 3357TIP3    H131486   6.120   0.298   2.820 -0.0287 -0.4275  2.0664
 3357TIP3    H231487   6.258   0.347   2.779  0.2679 -1.8717  1.2899
 3358TIP3   OH231488   4.160   0.779  16.119  0.4737  0.2333  0.3527
 3358TIP3    H131489   4.183   0.694  16.083  0.7076  0.5429 -0.2329
 3358TIP3    H231490   4.095   0.759  16.187 -1.7937 -0.2027 -1.7808
 3359TIP3   OH231491   3.905   4.445   2.572 -0.5260  0.4848 -0.2151
 3359TIP3    H131492   3.999   4.450   2.552  0.4488 -1.3516  3.0720
 3359TIP3    H231493   3.883   4.532   2.605 -0.4390  1.3979 -2.4473
 3360TIP3   OH231494   4.960   6.694   5.444  0.1846 -0.6216  0.1125
 3360TIP3    H131495   5.026   6.737   5.497 -0.5885  0.0200  0.5688
 3360TIP3    H231496   4.895   6.762   5.426 -0.1970 -1.1577 -0.5872
 3361TIP3   OH231497   6.012   0.160   2.809 -0.2133  0.2273 -0.4808
 3361TIP3    H131498   6.000   0.081   2.757  3.5056 -0.5918 -0.3637
 3361TIP3    H231499   5.923   0.184   2.837 -1.5743 -3.3960 -1.1595
 3362TIP3   OH231500   0.724   2.406   4.777 -0.1979  0.1790 -0.4385
 3362TIP3    H131501   0.731   2.355   4.858  1.2955 -0.0581 -0.6922
 3362TIP3    H231502   0.631   2.402   4.755 -0.2967 -1.6073  0.0909
 3363TIP3   OH231503   5.515   3.764   1.056 -0.0733  0.4809  0.1696
 3363TIP3    H131504   5.423   3.787   1.063 -0.2206 -0.2761  0.8905
 3363TIP3    H231505   5.522   3.678   1.098  0.5552 -0.5226 -1.8397
 3364TIP3   OH231506   3.896   5.488  12.758 -0.3644  0.0275  0.3471
 3364TIP3    H131507   3.879   5.399  12.789 -0.3448 -0.3015 -0.5530
 3364TIP3    H231508   3.883   5.483  12.663  2.9665  0.1650 -0.2252
 3365TIP3   OH231509   0.647   2.719   5.754  0.2135  0.5978  0.8920
 3365TIP3    H131510   0.732   2.678   5.767 -0.6664 -1.1203  1.6821
 3365TIP3    H231511   0.619   2.745   5.842 -0.0400  1.2247  0.6292
 3366TIP3   OH231512   3.012   6.055  15.712  0.1784  0.6018  0.4195
 3366TIP3    H131513   3.004   6.135  15.661  0.5406  0.8761  0.7894
 3366TIP3    H231514   2.950   5.994  15.671 -0.5640  1.2662  0.5288
 3367TIP3   OH231515   3.873   2.278   5.438 -0.5097  0.1906 -0.5105
 3367TIP3    H131516   3.783   2.308   5.451 -0.3861 -0.1667  1.5801
 3367TIP3    H231517   3.870   2.229   5.356 -2.3594 -0.2833 -0.2221
 3368TIP3   OH231518   1.415   0.264   0.219 -0.0685 -0.0351 -0.5578
 3368TIP3    H131519   1.425   0.243   0.126  0.3718  1.3368 -0.8427
 3368TIP3    H231520   1.502   0.296   0.245  0.2039 -1.6776  0.6849
 3369TIP3   OH231521   5.968   6.623  10.713  0.2147 -0.4527  0.3982
 3369TIP3    H131522   5.937   6.680  10.782  1.5120  2.2082 -1.0630
 3369TIP3    H231523   6.054   6.593  10.743  0.1187 -0.5530  0.5766
 3370TIP3   OH231524   4.691   3.738  14.645 -0.1199 -0.3821  0.4626
 3370TIP3    H131525   4.641   3.749  14.564 -0.8911 -2.4276  0.5947
 3370TIP3    H231526   4.654   3.804  14.704 -1.3313 -0.5444 -0.0686
 3371TIP3   OH231527   1.408   2.802  14.641  0.0019 -0.2414 -0.1502
 3371TIP3    H131528   1.414   2.822  14.734 -2.3139 -0.1642  0.0430
 3371TIP3    H231529   1.468   2.728  14.628 -0.6929 -1.2083  1.7287
 3372TIP3   OH231530   3.940   6.742  12.104 -0.3631 -0.5762  0.4213
 3372TIP3    H131531   4.031   6.730  12.130 -0.1518 -3.2176 -1.1942
 3372TIP3    H231532   3.942   6.737  12.008 -2.0534  0.7787  0.2771
 3373TIP3   OH231533   6.423   4.680  10.463 -1.1116  0.6104 -0.3523
 3373TIP3    H131534   6.378   4.661  10.546 -3.2435  1.5150 -1.2303
 3373TIP3    H231535   6.493   4.741  10.487  0.3722 -1.5488  1.2008
 3374TIP3   OH231536   5.102   3.619   4.056  0.0231  0.0419  0.0713
 3374TIP3    H131537   5.142   3.692   4.008 -1.1092  1.2104  0.8283
 3374TIP3    H231538   5.016   3.609   4.016 -0.2644 -0.1238  0.7184
 3375TIP3   OH231539   6.653   5.033   5.951 -0.2899 -0.5784  0.6645
 3375TIP3    H131540   6.607   5.055   6.032 -0.1362  0.7897  0.4110
 3375TIP3    H231541   6.735   4.993   5.979 -0.4154 -0.4745  1.1875
 3376TIP3   OH231542   5.019   2.494   4.571  0.2873  1.0069 -0.3985
 3376TIP3    H131543   5.002   2.452   4.655  2.0279 -1.1127 -1.0331
 3376TIP3    H231544   4.932   2.510   4.535 -0.4786 -0.9739  0.4240
 3377TIP3   OH231545   5.932   2.597  13.900  0.0367 -0.0300  0.4626
 3377TIP3    H131546   5.867   2.528  13.913 -0.7348  0.6372  0.3046
 3377TIP3    H231547   5.976   2.605  13.984 -0.5310 -0.0642  0.7676
 3378TIP3   OH231548   0.521   5.830  12.512 -0.4021 -0.0541 -0.1818
 3378TIP3    H131549   0.465   5.753  12.521 -0.6360  0.2913  2.0556
 3378TIP3    H231550   0.467   5.894  12.464 -1.2354 -0.3815  0.2883
 3379TIP3   OH231551   0.835   6.545   2.674  0.3737  0.2907 -0.2559
 3379TIP3    H131552   0.748   6.544   2.713  0.5790  1.6270  0.2848
 3379TIP3    H231553   0.823   6.588   2.589  0.6352  1.2106  0.1683
 3380TIP3   OH231554   2.520   4.311  16.492  0.1195 -0.8173 -0.2262
 3380TIP3    H131555   2.606   4.331  16.529  0.7104  1.8546 -2.6563
 3380TIP3    H231556   2.458   4.333  16.561  1.2626  0.8646  0.3115
 3381TIP3   OH231557   1.218   3.993  12.939 -0.2855  0.2835  0.2465
 3381TIP3    H131558   1.306   4.029  12.935  0.3862 -1.2418  0.3243
 3381TIP3    H231559   1.168   4.043  12.875  1.0585  0.1107 -0.9795
 3382TIP3   OH231560   6.105   0.862   2.877 -0.3122  0.1551  0.0702
 3382TIP3    H131561   6.067   0.774   2.876  0.7300 -0.3133 -1.0549
 3382TIP3    H231562   6.088   0.897   2.789  0.1727  0.6765  0.1788
 3383TIP3   OH231563   1.226   0.165   5.376  0.6167  0.3456  0.2349
 3383TIP3    H131564   1.184   0.125   5.452  1.1215  2.9925  2.0650
 3383TIP3    H231565   1.156   0.174   5.312 -0.1040 -0.9630  0.7997
 3384TIP3   OH231566   3.619   3.459  11.788 -0.6252  0.3020 -0.3288
 3384TIP3    H131567   3.527   3.458  11.814 -0.3876  0.4616  0.5685
 3384TIP3    H231568   3.640   3.552  11.778 -0.7933  0.2364 -1.4462
 3385TIP3   OH231569   6.344   2.661  11.184  0.3758 -0.3054  0.3769
 3385TIP3    H131570   6.363   2.743  11.228  0.4867 -0.4389  0.5779
 3385TIP3    H231571   6.426   2.636  11.142  0.3803 -0.3835  0.4315
 3386TIP3   OH231572   4.743   1.840  13.342 -0.4025  0.1362  0.2116
 3386TIP3    H131573   4.655   1.830  13.380 -1.2441 -1.2450 -1.8814
 3386TIP3    H231574   4.776   1.922  13.378 -2.3036  0.3790  1.5390
 3387TIP3   OH231575   0.098   2.174  16.771 -0.2022  0.6738 -0.5280
 3387TIP3    H131576   0.096   2.194  16.865 -0.6822 -0.1908 -0.3454
 3387TIP3    H231577   0.149   2.245  16.733  1.9961 -0.1644  0.6800
 3388TIP3   OH231578   4.868   4.241  15.790 -0.2833  0.3256  0.1226
 3388TIP3    H131579   4.828   4.219  15.706  1.3787 -0.2950 -0.5484
 3388TIP3    H231580   4.893   4.157  15.828 -2.5024  0.4437  2.0922
 3389TIP3   OH231581   4.225   1.668   4.601 -0.1916 -0.1201 -0.3480
 3389TIP3    H131582   4.277   1.590   4.584 -0.6604 -0.7794  1.0750
 3389TIP3    H231583   4.280   1.722   4.657 -0.1962  0.1848 -0.6343
 3390TIP3   OH231584   0.512   4.067  16.723 -0.2778 -0.3605  0.1365
 3390TIP3    H131585   0.585   4.006  16.712 -0.5009 -0.7215  0.6412
 3390TIP3    H231586   0.440   4.027  16.675 -0.9174 -1.3594  1.8639
 3391TIP3   OH231587   2.858   1.911  11.258 -0.3271  0.3467  0.0377
 3391TIP3    H131588   2.938   1.874  11.219  0.0924  1.9406 -0.7024
 3391TIP3    H231589   2.840   1.855  11.333  1.2355 -0.3246 -0.0435
 3392TIP3   OH231590   4.089   2.835  13.619 -0.2201  0.0316 -0.1848
 3392TIP3    H131591   4.104   2.826  13.713 -0.0560 -0.6712 -0.2674
 3392TIP3    H231592   4.008   2.884  13.612  0.2969  0.9804  0.3116
 3393TIP3   OH231593   4.867   2.956   4.923 -0.4219 -0.3368 -0.1824
 3393TIP3    H131594   4.833   2.868   4.907 -1.8118 -0.1383  1.3507
 3393TIP3    H231595   4.816   3.013   4.865  0.0608 -0.4574 -0.7360
 3394TIP3   OH231596   0.304   5.385   5.624 -0.1653 -0.4067 -0.1652
 3394TIP3    H131597   0.387   5.384   5.671 -0.6438 -0.7835  0.7005
 3394TIP3    H231598   0.310   5.312   5.562  0.2014 -0.3284 -0.2232
 3395TIP3   OH231599   5.801   2.876   2.409  0.2063  0.1981  0.3829
 3395TIP3    H131600   5.841   2.883   2.322  1.3811  1.7797  0.9966
 3395TIP3    H231601   5.756   2.792   2.408  1.4626 -0.5130 -1.2397
 3396TIP3   OH231602   4.431   0.461   5.477 -0.0167 -0.5248  0.4977
 3396TIP3    H131603   4.413   0.403   5.404 -2.0658 -0.4696  0.8948
 3396TIP3    H231604   4.345   0.489   5.507  0.8582  1.5200  1.2880
 3397TIP3   OH231605   4.301   3.802   3.090  0.3067  0.1467 -0.0511
 3397TIP3    H131606   4.310   3.807   3.186  0.4031 -3.8590  0.3195
 3397TIP3    H231607   4.206   3.796   3.076  0.1910  2.1467 -0.4177
 3398TIP3   OH231608   4.897   6.268   5.398 -0.0782 -0.0188 -0.0186
 3398TIP3    H131609   4.866   6.282   5.309 -0.9408 -1.7633 -0.0465
 3398TIP3    H231610   4.950   6.344   5.418 -0.3468  0.6767 -1.8142
 3399TIP3   OH231611   6.104   0.834  13.384  0.2064 -0.2891 -0.0228
 3399TIP3    H131612   6.123   0.878  13.301  0.5528  0.8427  0.6448
 3399TIP3    H231613   6.103   0.904  13.449  0.8688 -1.2830  1.0834
 3400TIP3   OH231614   1.460   5.511   3.719 -0.3328  0.2742  0.3578
 3400TIP3    H131615   1.381   5.486   3.671 -0.6453  1.7325  0.0569
 3400TIP3    H231616   1.435   5.502   3.811 -0.4165 -0.4911  0.2722
 3401TIP3   OH231617   5.392   4.752   2.854  0.0616  0.3490  0.0869
 3401TIP3    H131618   5.404   4.663   2.886  0.0533  0.3307  0.0395
 3401TIP3    H231619   5.433   4.807   2.921  2.4867  0.1854 -1.1566
 3402TIP3   OH231620   0.788   4.347  13.169  0.1278  0.1192  0.1396
 3402TIP3    H131621   0.787   4.277  13.104 -1.0155  1.4472 -1.3639
 3402TIP3    H231622   0.714   4.327  13.227 -0.5534  0.3500 -0.6257
 3403TIP3   OH231623   3.634   1.554  13.053  0.1394 -0.0674  0.3371
 3403TIP3    H131624   3.566   1.576  13.117  0.5931 -0.2140  0.8779
 3403TIP3    H231625   3.597   1.481  13.003 -1.2828  1.6598 -1.3040
 3404TIP3   OH231626   6.047   6.615   5.596 -0.3740 -0.0902  0.3616
 3404TIP3    H131627   6.019   6.667   5.521  1.2170  1.2153  0.6267
 3404TIP3    H231628   6.043   6.524   5.565  0.6513  0.4345 -1.4371
 3405TIP3   OH231629   3.062   4.848   2.052 -0.1736  0.3060  0.2626
 3405TIP3    H131630   3.077   4.863   2.145  0.3885  0.9293  0.0850
 3405TIP3    H231631   2.969   4.869   2.039  0.1548  1.9582  0.3731
 3406TIP3   OH231632   2.531   4.111  15.010  0.0737  0.0158 -0.0601
 3406TIP3    H131633   2.613   4.076  15.046  0.4498  2.8238  2.1082
 3406TIP3    H231634   2.484   4.145  15.085 -0.2327  4.0474 -1.8415
 3407TIP3   OH231635   1.167   6.117   1.203 -0.1498 -0.1115  0.6155
 3407TIP3    H131636   1.149   6.047   1.140  1.7483 -0.6377  0.5958
 3407TIP3    H231637   1.256   6.100   1.233  0.8101  2.8797 -0.1688
 3408TIP3   OH231638   5.287   6.671   5.654  0.0314  0.1094 -0.1388
 3408TIP3    H131639   5.356   6.668   5.720  1.7137  0.8778 -1.7623
 3408TIP3    H231640   5.289   6.584   5.614 -2.1719 -0.9594  1.8676
 3409TIP3   OH231641   1.686   0.273   1.782  0.4223 -0.4113 -0.3490
 3409TIP3    H131642   1.759   0.293   1.841 -0.1417  0.0315  0.2186
 3409TIP3    H231643   1.608   0.287   1.836 -0.0792 -1.2432 -0.8312
 3410TIP3   OH231644   5.347   0.357   5.854 -0.3159 -1.0467  0.1378
 3410TIP3    H131645   5.348   0.276   5.905 -2.9514 -1.5264 -0.4234
 3410TIP3    H231646   5.265   0.400   5.878  1.0413  1.5842  0.5086
 3411TIP3   OH231647   4.974   2.482   2.726  0.0276  0.0579 -0.1027
 3411TIP3    H131648   5.003   2.501   2.815  0.8236  1.4591 -0.6325
 3411TIP3    H231649   5.048   2.434   2.687 -0.6970 -1.4003  0.2502
 3412TIP3   OH231650   0.368   0.640  13.323  0.0874 -0.0477  0.2363
 3412TIP3    H131651   0.361   0.572  13.391  0.6927 -1.0577 -0.6846
 3412TIP3    H231652   0.462   0.650  13.308  0.1977  2.8035  2.0709
 3413TIP3   OH231653   6.064   5.520   3.448  0.6422  0.4054 -0.1735
 3413TIP3    H131654   6.124   5.532   3.374  0.4602  0.8688 -0.2504
 3413TIP3    H231655   6.085   5.433   3.482  0.2450 -0.1261 -1.2187
 3414TIP3   OH231656   5.071   5.320   0.970  0.0267 -0.1510 -0.8539
 3414TIP3    H131657   5.092   5.386   1.036 -1.1538 -0.0240 -0.5828
 3414TIP3    H231658   5.150   5.265   0.965 -0.0101 -0.4152  0.9566
 3415TIP3   OH231659   1.426   3.805  14.776  0.2853  0.1363 -0.4616
 3415TIP3    H131660   1.354   3.764  14.728 -2.2414  0.8642  2.3643
 3415TIP3    H231661   1.384   3.842  14.854  3.8132  0.3868  1.5064
 3416TIP3   OH231662   3.918   2.131   3.742  0.0954 -0.1095 -0.4865
 3416TIP3    H131663   3.856   2.084   3.797  0.6069 -0.1476  0.0782
 3416TIP3    H231664   3.979   2.171   3.804  0.5859 -0.0110 -1.0213
 3417TIP3   OH231665   1.838   2.242   2.148 -0.1049 -0.2788  0.3074
 3417TIP3    H131666   1.933   2.252   2.150  0.0402 -1.3023 -0.9792
 3417TIP3    H231667   1.805   2.332   2.157  1.0282  0.3819 -1.6054
 3418TIP3   OH231668   3.859   5.514   3.791  0.1811 -0.1262  0.0979
 3418TIP3    H131669   3.863   5.596   3.742  2.3826  0.8669  1.7650
 3418TIP3    H231670   3.949   5.499   3.819 -0.3528 -2.6124  0.6987
 3419TIP3   OH231671   5.902   0.806  15.866 -0.7711  0.9861 -0.2369
 3419TIP3    H131672   5.824   0.845  15.827 -0.3591  1.3631 -0.7043
 3419TIP3    H231673   5.974   0.832  15.808 -0.6069 -1.4150 -1.2281
 3420TIP3   OH231674   5.622   1.920   4.770  0.6731  0.0270  0.0209
 3420TIP3    H131675   5.614   2.002   4.819  0.1844  1.7159 -2.6346
 3420TIP3    H231676   5.626   1.852   4.837  3.5081  2.3044  2.4950
 3421TIP3   OH231677   0.726   4.969   0.940  0.0572 -0.2527 -0.3472
 3421TIP3    H131678   0.680   4.983   0.858  0.3668  0.0296 -0.4767
 3421TIP3    H231679   0.776   4.889   0.927 -1.7555 -1.5838  0.4105
 3422TIP3   OH231680   3.399   2.288   4.592  0.2847 -0.3097 -0.0500
 3422TIP3    H131681   3.391   2.214   4.532  2.1171 -1.0805  0.5660
 3422TIP3    H231682   3.492   2.312   4.587 -0.3124  2.1389 -0.4215
 3423TIP3   OH231683   1.097   0.981  11.182 -0.0018 -0.0423  0.3018
 3423TIP3    H131684   1.101   1.064  11.135 -4.2077  0.9053  1.2030
 3423TIP3    H231685   1.095   1.006  11.274 -1.3952 -1.0759  0.5824
 3424TIP3   OH231686   0.425   0.878  14.984  0.1886  0.4829 -0.2113
 3424TIP3    H131687   0.508   0.919  15.010 -0.3349  1.7432 -0.4865
 3424TIP3    H231688   0.369   0.950  14.957 -0.5624 -0.4635 -1.3025
 3425TIP3   OH231689   5.305   4.387   6.047 -0.5561 -0.1768  0.2188
 3425TIP3    H131690   5.314   4.303   6.001 -0.2126 -0.3949  0.6824
 3425TIP3    H231691   5.254   4.441   5.987  0.9381 -0.0313 -0.9822
 3426TIP3   OH231692   3.350   4.134  12.540  0.1923 -0.2214  1.0640
 3426TIP3    H131693   3.297   4.162  12.466  1.0487  0.0246  0.5325
 3426TIP3    H231694   3.392   4.214  12.572  1.4677 -0.6282  0.4818
 3427TIP3   OH231695   3.954   3.019   1.753  0.4432 -0.0862 -0.1550
 3427TIP3    H131696   3.946   3.103   1.799 -0.9921  0.5353 -1.4470
 3427TIP3    H231697   3.898   2.959   1.802  0.9877 -0.1388  0.4140
 3428TIP3   OH231698   6.402   5.504   2.282 -0.2244  0.4108  0.6241
 3428TIP3    H131699   6.480   5.505   2.227  0.0693 -0.4755  1.0123
 3428TIP3    H231700   6.351   5.580   2.252  0.7831  1.0151  0.3832
 3429TIP3   OH231701   4.357   6.344  14.813 -0.8207  0.5048 -0.4149
 3429TIP3    H131702   4.367   6.353  14.907  0.6873  2.0269 -0.6806
 3429TIP3    H231703   4.393   6.257  14.793 -0.0855  0.6467  0.2761
 3430TIP3   OH231704   6.179   0.526   6.829 -0.1352 -0.2621  0.3216
 3430TIP3    H131705   6.207   0.459   6.891  1.8764 -0.0678 -0.3216
 3430TIP3    H231706   6.225   0.505   6.748 -1.7878  0.1844 -0.8007
 3431TIP3   OH231707   0.654   1.768  12.372 -0.2715  0.1996  0.4066
 3431TIP3    H131708   0.692   1.681  12.365  2.4377  1.2824  0.3891
 3431TIP3    H231709   0.728   1.825  12.393 -1.7033  2.7010 -0.8205
 3432TIP3   OH231710   3.557   3.763   1.579 -0.0525 -0.5908  0.1836
 3432TIP3    H131711   3.586   3.822   1.510 -2.5355  0.8049  0.2332
 3432TIP3    H231712   3.559   3.816   1.659 -0.6694 -1.0929  0.5397
 3433TIP3   OH231713   1.310   3.609  14.111  0.2876  0.4652  0.0384
 3433TIP3    H131714   1.224   3.581  14.081  1.5003 -3.3830 -0.3204
 3433TIP3    H231715   1.340   3.670  14.043 -1.6514  0.9934 -0.3998
 3434TIP3   OH231716   6.034   5.197  12.079 -0.3304 -0.0980 -0.4634
 3434TIP3    H131717   6.001   5.221  12.165 -1.3250  1.6130 -1.2785
 3434TIP3    H231718   6.129   5.201  12.088 -0.4186  0.1323  0.5075
 3435TIP3   OH231719   2.519   3.322   4.470 -0.5884  0.1158 -0.0052
 3435TIP3    H131720   2.588   3.332   4.536  0.7029  0.0049 -1.2906
 3435TIP3    H231721   2.510   3.409   4.431 -1.5280  0.2427  0.4635
 3436TIP3   OH231722   6.502   3.905  12.719  0.3932 -0.4655 -0.0634
 3436TIP3    H131723   6.475   3.996  12.721 -1.4807 -0.9351 -1.3148
 3436TIP3    H231724   6.427   3.858  12.681  1.5116 -2.4444  0.0172
 3437TIP3   OH231725   3.700   1.258  16.472 -0.1080  0.5605 -0.1756
 3437TIP3    H131726   3.784   1.266  16.427  0.5669  0.8904  1.0879
 3437TIP3    H231727   3.650   1.334  16.444  0.7879  1.4568  0.5663
 3438TIP3   OH231728   2.271   1.328  14.871 -0.6983 -0.0680 -0.4088
 3438TIP3    H131729   2.279   1.235  14.849  0.5494 -0.2191  0.5465
 3438TIP3    H231730   2.320   1.337  14.953  0.1396  1.6304 -1.0463
 3439TIP3   OH231731   1.222   0.037  13.173 -0.1311 -0.6308 -0.6256
 3439TIP3    H131732   1.314   0.023  13.148 -0.1483 -0.3887 -0.8215
 3439TIP3    H231733   1.223   0.116  13.226 -0.2473 -0.5391 -0.7582
 3440TIP3   OH231734   1.437   6.431  13.165  0.8396 -0.3471  0.0612
 3440TIP3    H131735   1.361   6.455  13.219  1.3840  0.3100  0.5544
 3440TIP3    H231736   1.417   6.343  13.133 -0.4150  0.0652 -0.3434
 3441TIP3   OH231737   1.941   1.214  12.643  0.6967  0.7617 -0.0389
 3441TIP3    H131738   1.982   1.287  12.596 -1.4425  1.3492 -1.1299
 3441TIP3    H231739   1.861   1.197  12.594  0.0054 -0.8014  1.5581
 3442TIP3   OH231740   3.807   3.873  11.966  0.1544 -0.3962 -0.3031
 3442TIP3    H131741   3.775   3.865  11.877  3.6914 -2.0862 -1.5934
 3442TIP3    H231742   3.846   3.787  11.986  1.0089  0.4753  2.2103
 3443TIP3   OH231743   4.297   0.431   1.346  0.0405  0.2384  0.0488
 3443TIP3    H131744   4.295   0.431   1.441 -0.4982 -2.2882  0.0919
 3443TIP3    H231745   4.366   0.369   1.323  1.3840  2.0901 -1.2764
 3444TIP3   OH231746   4.486   1.216   4.733  0.5768  0.0408  0.3332
 3444TIP3    H131747   4.581   1.228   4.744  0.3038  0.6058  2.6351
 3444TIP3    H231748   4.454   1.198   4.821 -1.5741  0.5524 -0.2866
 3445TIP3   OH231749   0.747   6.063   0.389  0.3737 -0.4309 -0.6983
 3445TIP3    H131750   0.802   6.141   0.394  2.2176 -1.7179 -0.0896
 3445TIP3    H231751   0.749   6.037   0.297  2.0868 -1.3153 -0.4512
 3446TIP3   OH231752   3.365   2.949  15.693  0.0803  0.1319  0.6136
 3446TIP3    H131753   3.453   2.953  15.656  0.4432  0.5747  1.4989
 3446TIP3    H231754   3.370   2.882  15.761 -0.9821 -1.8164 -1.1220
 3447TIP3   OH231755   1.073   6.075   4.850 -0.2606  0.2242  0.3015
 3447TIP3    H131756   1.083   6.031   4.934  1.9704  0.3962  0.1979
 3447TIP3    H231757   1.072   6.004   4.785  1.8510  0.1965  0.2422
 3448TIP3   OH231758   0.909   3.657  10.942 -0.0120  0.1729  0.0882
 3448TIP3    H131759   0.982   3.693  10.891 -0.1674 -1.6083 -1.4835
 3448TIP3    H231760   0.897   3.569  10.908 -1.6263 -0.2844  1.7013
 3449TIP3   OH231761   5.921   5.948   3.236  0.2725  0.2074  0.3151
 3449TIP3    H131762   5.883   5.959   3.148  0.5692  1.4074  0.3162
 3449TIP3    H231763   5.879   6.017   3.288  1.2580  0.5120  0.7213
 3450TIP3   OH231764   5.998   0.221   5.243  0.1538  1.2859 -0.1311
 3450TIP3    H131765   5.982   0.236   5.150 -1.9409 -0.7092 -0.2021
 3450TIP3    H231766   5.934   0.277   5.288 -0.0973  0.9005  0.0027
 3451TIP3   OH231767   6.131   0.560   1.827 -0.1558 -0.0862 -0.2344
 3451TIP3    H131768   6.043   0.597   1.831 -0.5919 -1.1549  0.9539
 3451TIP3    H231769   6.119   0.473   1.788  0.0111 -1.0788  1.7800
 3452TIP3   OH231770   2.687   0.733   0.650 -0.0352  1.0256  0.4757
 3452TIP3    H131771   2.595   0.709   0.666  0.6427 -1.7245  0.8689
 3452TIP3    H231772   2.697   0.728   0.555  0.4536 -2.3395  0.5893
 3453TIP3   OH231773   3.004   1.936   2.329 -0.3984  0.1770  0.2895
 3453TIP3    H131774   2.987   1.863   2.388 -0.4551  0.1151  0.1973
 3453TIP3    H231775   3.005   1.897   2.242 -1.1043  0.3916  0.1802
 3454TIP3   OH231776   0.871   3.111   6.513 -0.3636  0.2068 -0.2160
 3454TIP3    H131777   0.820   3.192   6.515  1.4522  1.4042  0.4523
 3454TIP3    H231778   0.817   3.047   6.559 -1.0292  1.5638  0.9623
 3455TIP3   OH231779   1.353   6.302   2.215 -0.7688  0.1226 -0.4076
 3455TIP3    H131780   1.389   6.383   2.180 -0.8463 -0.0405 -0.8703
 3455TIP3    H231781   1.356   6.240   2.142 -0.6851 -0.3000 -0.0511
 3456TIP3   OH231782   5.545   4.086  15.886 -0.0315 -0.0922 -0.0645
 3456TIP3    H131783   5.630   4.106  15.848 -0.2169  1.3048  0.1833
 3456TIP3    H231784   5.508   4.018  15.830  0.7449  0.1494 -0.8734
 3457TIP3   OH231785   6.567   6.211  16.672 -0.1335  0.7130 -0.6441
 3457TIP3    H131786   6.645   6.178  16.627  0.0854  0.2501  0.0491
 3457TIP3    H231787   6.494   6.175  16.623  0.0864 -1.7421  0.6776
 3458TIP3   OH231788   4.972   3.540  17.072  0.0542 -0.1764  0.1599
 3458TIP3    H131789   4.913   3.478  17.028  0.4384 -0.0965 -0.4908
 3458TIP3    H231790   5.059   3.518  17.038  0.0102  1.8429 -1.4596
 3459TIP3   OH231791   5.240   3.952   1.114 -0.2437  0.6153  0.3952
 3459TIP3    H131792   5.245   3.996   1.199 -0.5614 -0.5266  1.0223
 3459TIP3    H231793   5.169   3.889   1.123 -1.0737  1.2845 -1.1236
 3460TIP3   OH231794   0.221   2.477  15.695 -0.5759  0.3267  0.2512
 3460TIP3    H131795   0.165   2.535  15.746 -2.2635 -1.5165  0.5860
 3460TIP3    H231796   0.169   2.399  15.680  1.2237 -0.7006 -1.1271
 3461TIP3   OH231797   4.821   2.122  14.917 -0.3036 -0.2299  0.0741
 3461TIP3    H131798   4.729   2.107  14.893  0.4565 -0.7758 -2.7502
 3461TIP3    H231799   4.828   2.217  14.925 -1.5181 -0.2492  2.4152
 3462TIP3   OH231800   4.464   3.762   5.298 -0.5788 -0.3765 -0.3199
 3462TIP3    H131801   4.545   3.783   5.252  0.7114 -1.0041  1.5529
 3462TIP3    H231802   4.492   3.741   5.387 -2.7487 -1.2505  0.2088
 3463TIP3   OH231803   4.186   2.562  14.870  0.1163  0.1921 -0.5962
 3463TIP3    H131804   4.150   2.588  14.785 -0.9180 -0.6169 -0.4374
 3463TIP3    H231805   4.133   2.610  14.934  2.6730  2.9875 -0.3805
 3464TIP3   OH231806   1.060   5.033   1.985  0.4298 -0.3793 -0.0225
 3464TIP3    H131807   1.099   4.970   1.925 -1.9947 -1.8115 -0.2567
 3464TIP3    H231808   1.020   4.979   2.054  0.2342  1.0348  1.0295
 3465TIP3   OH231809   4.643   5.729  15.655  0.1374  0.1995  0.1945
 3465TIP3    H131810   4.617   5.713  15.746  1.9373  0.3106  0.7696
 3465TIP3    H231811   4.573   5.783  15.619 -0.2787  0.7496  1.7413
 3466TIP3   OH231812   2.212   0.521  11.710  0.3686 -0.3817  0.3402
 3466TIP3    H131813   2.119   0.527  11.688  0.7223  0.3815 -1.0736
 3466TIP3    H231814   2.216   0.454  11.778 -0.8431 -2.9334 -1.9124
 3467TIP3   OH231815   1.171   5.741   6.523  0.3982 -0.8048 -0.0420
 3467TIP3    H131816   1.149   5.833   6.533  0.5918 -0.5547 -1.6980
 3467TIP3    H231817   1.105   5.706   6.464 -0.2509 -1.9888  1.3162
 3468TIP3   OH231818   0.571   5.203   3.929  0.0181 -0.0072  0.0396
 3468TIP3    H131819   0.569   5.161   4.015  2.3545  1.2928  0.8084
 3468TIP3    H231820   0.659   5.238   3.921 -0.3339  0.4715 -2.6528
 3469TIP3   OH231821   0.856   6.242   2.592  0.1286 -0.4649  0.5872
 3469TIP3    H131822   0.906   6.323   2.578 -0.1868 -0.3905 -0.1936
 3469TIP3    H231823   0.772   6.271   2.627 -0.1843 -0.3967 -0.1937
 3470TIP3   OH231824   5.020   6.488  11.696  0.3805  0.3935 -0.0013
 3470TIP3    H131825   5.032   6.395  11.674  0.7743 -0.0436  1.9446
 3470TIP3    H231826   4.951   6.517  11.636  0.5974 -1.0095 -0.9951
 3471TIP3   OH231827   2.893   3.085  13.037  0.2051  0.2384 -0.2554
 3471TIP3    H131828   2.939   3.052  13.113 -0.2350  1.2442  0.4812
 3471TIP3    H231829   2.805   3.047  13.043  0.5340 -0.6686 -0.9602
 3472TIP3   OH231830   2.299   4.097  15.680 -0.5757  0.2344  0.1189
 3472TIP3    H131831   2.368   4.147  15.725  0.1845 -0.9367  0.3070
 3472TIP3    H231832   2.217   4.130  15.717 -0.0955  1.3207  0.2446
 3473TIP3   OH231833   4.452   0.021   1.092  0.4190  0.0729 -0.3582
 3473TIP3    H131834   4.499   0.084   1.146  0.5607  2.0659 -2.6046
 3473TIP3    H231835   4.484  -0.065   1.120  1.8943  1.1239  1.3230
 3474TIP3   OH231836   6.196   4.149   4.154  0.8350  0.1345  0.3815
 3474TIP3    H131837   6.148   4.074   4.119  1.7413  1.2225 -3.7416
 3474TIP3    H231838   6.135   4.222   4.146  0.8621  0.3493  1.8618
 3475TIP3   OH231839   1.384   6.652  11.952 -0.0476  0.0476  0.5411
 3475TIP3    H131840   1.480   6.656  11.956  0.0822 -1.6664  0.1332
 3475TIP3    H231841   1.356   6.743  11.951  1.6832  0.6261 -1.1187
 3476TIP3   OH231842   3.818   1.720  16.373 -0.3046  0.1855  0.3082
 3476TIP3    H131843   3.743   1.668  16.345 -0.0114  0.7729 -1.6822
 3476TIP3    H231844   3.811   1.802  16.324  2.1082 -0.1007 -0.6524
 3477TIP3   OH231845   2.405   2.584   3.057  0.1181  0.9209  0.5905
 3477TIP3    H131846   2.479   2.642   3.076  1.9977 -1.0625 -0.2044
 3477TIP3    H231847   2.441   2.496   3.064 -1.3963 -0.1327 -2.6375
 3478TIP3   OH231848   1.979   6.375  16.671  0.1570 -0.1435 -0.0400
 3478TIP3    H131849   2.000   6.337  16.756 -0.4832  1.4499  0.8824
 3478TIP3    H231850   1.884   6.366  16.663  0.1130  0.3864 -0.2198
 3479TIP3   OH231851   3.041   3.249   0.544 -0.5026  0.8979  1.0486
 3479TIP3    H131852   2.975   3.180   0.544 -0.5243  0.9158  1.3733
 3479TIP3    H231853   3.121   3.206   0.572 -0.6261  1.1021  1.7345
 3480TIP3   OH231854   2.941   1.275   5.740  0.2767  0.3810 -0.3604
 3480TIP3    H131855   2.900   1.240   5.661  2.2773  0.6905 -1.6164
 3480TIP3    H231856   2.876   1.336   5.776 -1.1700 -0.7024 -1.0443
 3481TIP3   OH231857   4.350   4.413   5.275 -0.0972 -0.0977 -0.3791
 3481TIP3    H131858   4.334   4.319   5.273  1.1039 -0.3593  0.7678
 3481TIP3    H231859   4.425   4.426   5.218 -0.1085  0.1376 -0.3410
 3482TIP3   OH231860   6.742   1.293   1.346 -0.5649 -0.6313 -0.1581
 3482TIP3    H131861   6.662   1.251   1.377 -0.2923 -0.4890  0.7664
 3482TIP3    H231862   6.757   1.365   1.407 -0.5116  0.2365 -1.1678
 3483TIP3   OH231863   3.260   1.004   1.419  0.1106 -0.3971 -0.5218
 3483TIP3    H131864   3.201   0.929   1.416  0.3848 -0.6206 -0.4520
 3483TIP3    H231865   3.347   0.965   1.433  0.0887  0.0143  0.9188
 3484TIP3   OH231866   5.677   3.245   2.412  0.1904 -0.0708 -0.1303
 3484TIP3    H131867   5.664   3.306   2.339  1.6132  0.1563 -0.2254
 3484TIP3    H231868   5.594   3.199   2.419 -0.0784  0.0942 -1.7187
 3485TIP3   OH231869   0.919   0.228   0.446 -0.1274 -0.1573 -0.6761
 3485TIP3    H131870   0.830   0.216   0.413 -0.4133 -0.7740  0.2888
 3485TIP3    H231871   0.935   0.152   0.502 -0.3990  1.7126  2.1427
 3486TIP3   OH231872   5.808   0.993   2.091 -0.1503  0.4184 -0.1894
 3486TIP3    H131873   5.860   0.916   2.111 -2.2895 -1.0442  0.1263
 3486TIP3    H231874   5.776   0.978   2.002  0.7504  1.7864 -0.7809
 3487TIP3   OH231875   1.202   0.726   2.889 -0.3130 -0.3344 -0.1182
 3487TIP3    H131876   1.215   0.687   2.802 -2.4161  0.0543 -0.6583
 3487TIP3    H231877   1.189   0.651   2.947 -1.9959 -0.5782 -0.7349
 3488TIP3   OH231878   0.416   2.474  10.301 -0.6535 -0.5388  0.5085
 3488TIP3    H131879   0.457   2.560  10.294 -1.1673 -0.4199 -1.6462
 3488TIP3    H231880   0.352   2.483  10.373 -0.1214  0.6020  0.8541
 3489TIP3   OH231881   4.499   5.805   2.072  0.2682 -0.0312 -0.1394
 3489TIP3    H131882   4.422   5.830   2.123 -1.5916 -1.0603 -2.2404
 3489TIP3    H231883   4.566   5.786   2.137 -1.5570 -0.1079  1.8366
 3490TIP3   OH231884   0.157   2.480   5.299  0.1354  0.1620 -0.4482
 3490TIP3    H131885   0.120   2.502   5.213 -1.9651  0.0089  0.3421
 3490TIP3    H231886   0.240   2.527   5.303 -0.3291  1.1864 -2.0679
 3491TIP3   OH231887   2.594   5.419  15.713  0.3948  0.0090  0.0432
 3491TIP3    H131888   2.542   5.382  15.642 -0.1490  3.3500 -1.4891
 3491TIP3    H231889   2.573   5.366  15.789 -0.7027 -2.3522 -1.7940
 3492TIP3   OH231890   1.033   0.633  10.396  0.5089  0.4996 -0.3879
 3492TIP3    H131891   1.126   0.658  10.393  0.2017  1.6886 -0.3448
 3492TIP3    H231892   1.030   0.559  10.457  1.6388 -0.5689 -1.5494
 3493TIP3   OH231893   2.461   2.909  11.596  0.1276 -0.2844  0.2053
 3493TIP3    H131894   2.475   2.857  11.675 -0.4211 -0.3059  0.2919
 3493TIP3    H231895   2.407   2.982  11.625  1.5104  0.7671  0.2522
 3494TIP3   OH231896   0.271   2.979  16.666 -0.4913 -0.5284 -0.3610
 3494TIP3    H131897   0.196   3.020  16.624 -0.3366  0.8334  0.6210
 3494TIP3    H231898   0.338   2.973  16.598 -0.6578  0.5191 -0.6267
 3495TIP3   OH231899   0.419   1.452   0.379 -0.0358 -0.1976  0.6604
 3495TIP3    H131900   0.497   1.487   0.336 -1.5584  2.3258 -0.2769
 3495TIP3    H231901   0.373   1.405   0.310  0.3450 -1.2013  1.0740
 3496TIP3   OH231902   5.609   2.631   0.007  0.1085  0.6152  0.2733
 3496TIP3    H131903   5.597   2.536   0.009 -0.3554  0.6607 -0.2261
 3496TIP3    H231904   5.620   2.652  -0.086  4.5448  0.5459  0.5758
 3497TIP3   OH231905   4.714   3.250  15.501 -0.1691  0.7510  0.1935
 3497TIP3    H131906   4.652   3.246  15.574 -1.2432  0.8827 -0.6890
 3497TIP3    H231907   4.659   3.258  15.423  0.9157 -0.3239 -0.7232
 3498TIP3   OH231908   4.852   2.071   6.017  0.4462 -0.4425  0.0076
 3498TIP3    H131909   4.789   2.008   5.984  0.9740 -1.3633  0.7054
 3498TIP3    H231910   4.925   2.068   5.955  1.0786 -1.5642  0.7821
 3499TIP3   OH231911   1.034   5.954  12.505 -0.0560  0.7445  0.0049
 3499TIP3    H131912   1.009   5.907  12.425  1.9005  0.6266 -0.5820
 3499TIP3    H231913   1.041   6.046  12.478 -1.7138  1.1023  0.6433
 3500TIP3   OH231914   6.218   3.319  13.604  0.7342 -0.5390 -0.2764
 3500TIP3    H131915   6.127   3.347  13.604  0.7844 -0.3760 -0.7985
 3500TIP3    H231916   6.218   3.238  13.656  0.2972 -0.5323 -0.2606
 3501TIP3   OH231917   1.679   1.435   5.998  0.1693 -0.1336  0.5723
 3501TIP3    H131918   1.587   1.418   5.977  0.5227 -2.4315  0.6623
 3501TIP3    H231919   1.704   1.506   5.939 -1.4903  0.1019  0.0979
 3502TIP3   OH231920   0.640   4.871  10.981  0.4463  0.1731  0.4159
 3502TIP3    H131921   0.733   4.893  10.981  0.3664  0.5168  0.4624
 3502TIP3    H231922   0.633   4.794  10.925  0.6765  0.4921 -0.0545
 3503TIP3   OH231923   4.507   0.045  13.075  0.5329 -0.0467 -0.6262
 3503TIP3    H131924   4.539   0.031  13.164 -0.4497 -1.4378 -0.4728
 3503TIP3    H231925   4.415   0.067  13.085  0.5470  0.3721 -1.2883
 3504TIP3   OH231926   6.729   3.180  12.349  0.2890  0.2594 -0.2439
 3504TIP3    H131927   6.641   3.144  12.335  0.7834 -0.6533 -1.1576
 3504TIP3    H231928   6.775   3.112  12.398  1.2625 -0.4388 -2.0572
 3505TIP3   OH231929   4.998   1.312   2.136 -0.1245  0.0546 -0.3035
 3505TIP3    H131930   4.978   1.228   2.176  1.1564 -0.8602 -1.4799
 3505TIP3    H231931   4.962   1.306   2.048  3.6031 -1.0549 -1.9427
 3506TIP3   OH231932   2.632   2.755  14.618 -0.2216  0.6169  0.2309
 3506TIP3    H131933   2.606   2.813  14.690 -0.9230 -0.1254  0.5964
 3506TIP3    H231934   2.684   2.686  14.660 -1.7970 -0.6014  0.3040
 3507TIP3   OH231935   5.258   0.740  11.754 -0.4911 -0.0125 -0.1821
 3507TIP3    H131936   5.163   0.731  11.754 -0.4372 -0.7630  0.7134
 3507TIP3    H231937   5.276   0.812  11.814 -0.4177 -1.3365  1.4658
 3508TIP3   OH231938   0.527   5.161   4.455  0.4410  0.5679 -0.1265
 3508TIP3    H131939   0.513   5.142   4.548  0.0629  0.1051 -0.2746
 3508TIP3    H231940   0.621   5.149   4.442  0.1766 -1.7221 -0.3125
 3509TIP3   OH231941   2.758   5.317  13.187 -0.3321 -0.0021  0.0071
 3509TIP3    H131942   2.707   5.280  13.115  0.9140  1.0459 -1.4804
 3509TIP3    H231943   2.849   5.300  13.163  0.1248  0.7336  1.1372
 3510TIP3   OH231944   0.706   6.548   0.465 -0.4292  0.5331 -0.0684
 3510TIP3    H131945   0.752   6.507   0.538  0.9657 -0.8664 -1.6541
 3510TIP3    H231946   0.666   6.474   0.418 -0.5108  1.3102 -1.2489
 3511TIP3   OH231947   3.161   4.060   1.078  0.4980 -0.1190 -0.4405
 3511TIP3    H131948   3.236   4.013   1.113 -0.5542 -0.2022  1.8883
 3511TIP3    H231949   3.100   3.991   1.052  0.3462 -0.0578 -0.2502
 3512TIP3   OH231950   2.227   2.587  15.413  0.2523 -0.1860 -0.7092
 3512TIP3    H131951   2.206   2.680  15.402  3.2261  0.4396 -1.9613
 3512TIP3    H231952   2.237   2.576  15.507  1.5091  1.2072 -0.6491
 3513TIP3   OH231953   5.939   5.516   3.688  0.3960  0.4821 -0.6990
 3513TIP3    H131954   5.990   5.535   3.609  1.6882 -0.1757 -0.0582
 3513TIP3    H231955   5.868   5.459   3.657  1.2991 -0.3597 -1.2958
 3514TIP3   OH231956   4.247   0.465   5.097  0.2774 -0.6639 -0.3837
 3514TIP3    H131957   4.155   0.443   5.083  0.0957 -0.3561  0.2726
 3514TIP3    H231958   4.275   0.506   5.016 -0.6677  0.8846  0.0361
 3515TIP3   OH231959   0.587   2.858  11.875  0.4423 -0.0148  0.7585
 3515TIP3    H131960   0.576   2.883  11.784 -0.3580 -2.7960 -0.0197
 3515TIP3    H231961   0.680   2.868  11.892  0.7273 -0.1777 -0.6208
 3516TIP3   OH231962   1.275   0.232  15.068 -0.1332 -0.2737  0.5300
 3516TIP3    H131963   1.218   0.177  15.122 -0.1662 -0.1140  0.6571
 3516TIP3    H231964   1.237   0.320  15.074 -1.2092 -0.5657 -1.1912
 3517TIP3   OH231965   1.109   4.065   0.447 -0.1374  0.1844 -0.2619
 3517TIP3    H131966   1.077   4.037   0.362  1.7746  1.7483 -1.5652
 3517TIP3    H231967   1.079   4.156   0.456  2.0917  1.0200 -0.6364
 3518TIP3   OH231968   6.010   0.600   2.806  0.2966  0.2946  0.7296
 3518TIP3    H131969   5.938   0.573   2.864  1.2044 -1.9512  0.9198
 3518TIP3    H231970   6.075   0.531   2.816  2.1350  1.8383 -0.1027
 3519TIP3   OH231971   1.145   4.615   0.386 -0.6578 -0.1308  0.2798
 3519TIP3    H131972   1.135   4.681   0.454  1.2796  0.9537 -0.3812
 3519TIP3    H231973   1.240   4.602   0.379 -0.8692 -1.1946 -1.2931
 3520TIP3   OH231974   5.423   0.833   1.846 -0.4251 -0.1843 -0.0895
 3520TIP3    H131975   5.355   0.780   1.888 -1.9632  1.0972 -0.8823
 3520TIP3    H231976   5.387   0.921   1.843  0.8135  0.3170 -1.5217
 3521TIP3   OH231977   5.124   5.272   4.094  0.4176 -0.1135 -0.5406
 3521TIP3    H131978   5.032   5.270   4.120  0.3374 -0.6159 -0.8649
 3521TIP3    H231979   5.164   5.335   4.155 -0.0720 -0.1376 -0.1860
 3522TIP3   OH231980   0.571   5.735  13.054 -0.5463 -0.1949  0.3936
 3522TIP3    H131981   0.617   5.758  13.135 -2.1047 -1.5181  1.7132
 3522TIP3    H231982   0.549   5.820  13.015 -0.1833  0.4807  1.5933
 3523TIP3   OH231983   1.474   5.390   3.233 -0.0694 -0.2046  0.2505
 3523TIP3    H131984   1.436   5.350   3.155 -1.4196  0.9928  0.2591
 3523TIP3    H231985   1.401   5.432   3.277  0.8675  0.1052  1.5858
 3524TIP3   OH231986   0.511   5.842   1.006  0.2251  0.0047  0.2138
 3524TIP3    H131987   0.549   5.762   0.971 -3.0559 -0.3547 -3.1307
 3524TIP3    H231988   0.490   5.821   1.098  1.8271 -1.9905  0.1830
 3525TIP3   OH231989   3.612   4.468  15.045 -0.4679 -0.4886  0.7403
 3525TIP3    H131990   3.671   4.392  15.051 -2.4577 -2.1133  1.0425
 3525TIP3    H231991   3.587   4.485  15.135  0.4821  1.0456  0.7556
 3526TIP3   OH231992   3.132   1.576   1.328  0.4682  0.7104 -0.0691
 3526TIP3    H131993   3.108   1.492   1.288  0.4220 -0.6858  2.6340
 3526TIP3    H231994   3.180   1.622   1.260  0.7564 -1.6350 -1.5883
 3527TIP3   OH231995   6.121   1.257   5.343 -0.0084  0.0580  0.5766
 3527TIP3    H131996   6.128   1.215   5.257  0.3230  0.2257  0.5235
 3527TIP3    H231997   6.102   1.349   5.323  1.4394  0.3869  0.6575
 3528TIP3   OH231998   4.194   3.800  15.283 -1.0207  0.2369 -0.2573
 3528TIP3    H131999   4.175   3.743  15.358  1.8086 -1.7748 -0.9218
 3528TIP3    H232000   4.112   3.802  15.233 -1.6987 -1.8822  0.6751
 3529TIP3   OH232001   1.521   0.329  14.901 -0.1027 -0.0878 -0.2762
 3529TIP3    H132002   1.508   0.262  14.834 -1.5973  0.6377 -0.7721
 3529TIP3    H232003   1.446   0.318  14.959  1.3337 -0.9058  1.5039
 3530TIP3   OH232004   0.468   6.216   5.839  0.2872 -0.5597 -0.3001
 3530TIP3    H132005   0.401   6.204   5.906 -0.0638 -1.3125 -0.7701
 3530TIP3    H232006   0.551   6.209   5.887  0.0346 -0.2453  0.1871
 3531TIP3   OH232007   3.158   4.127  14.521  0.1536  0.2574  0.0604
 3531TIP3    H132008   3.083   4.094  14.571 -0.7568  1.3191 -0.5888
 3531TIP3    H232009   3.230   4.067  14.545 -1.7301 -3.3007 -2.2577
 3532TIP3   OH232010   3.041   5.330   5.773  0.0235  0.1651 -0.0265
 3532TIP3    H132011   3.007   5.379   5.698 -0.0448  0.1015 -0.0371
 3532TIP3    H232012   3.081   5.397   5.828 -0.5201  0.3029  0.2066
 3533TIP3   OH232013   6.033   6.347   0.393 -0.1567  0.0059  0.4117
 3533TIP3    H132014   5.939   6.349   0.409 -0.2436  1.5230 -0.1234
 3533TIP3    H232015   6.066   6.277   0.450 -1.2586  1.0444  2.4264
 3534TIP3   OH232016   2.122   1.912   2.972  0.3032  0.0811 -0.3499
 3534TIP3    H132017   2.178   1.904   3.049 -0.6246 -0.0808  0.3202
 3534TIP3    H232018   2.182   1.902   2.898  1.1216 -0.3319  0.3507
 3535TIP3   OH232019   6.362   1.544   5.617  0.9507 -0.2987 -0.2881
 3535TIP3    H132020   6.340   1.630   5.581  2.1845 -0.1111 -0.6314
 3535TIP3    H232021   6.452   1.528   5.589  0.4549 -2.1243 -1.0312
 3536TIP3   OH232022   2.120   2.240  14.042  0.1591  0.1376 -0.0775
 3536TIP3    H132023   2.122   2.163  14.100  2.2384 -0.4149 -0.7740
 3536TIP3    H232024   2.064   2.214  13.970  0.8785 -0.7931 -0.3285
 3537TIP3   OH232025   3.272   1.153   5.537 -0.0174 -0.5249  0.7518
 3537TIP3    H132026   3.246   1.082   5.479  1.9780 -0.2912 -0.5019
 3537TIP3    H232027   3.304   1.109   5.616 -0.3989 -0.9276  0.6889
 3538TIP3   OH232028   3.143   6.745  15.046  0.7157 -0.3163 -0.0564
 3538TIP3    H132029   3.192   6.750  14.964 -1.9091 -0.1866 -1.7158
 3538TIP3    H232030   3.121   6.652  15.056 -2.1399  0.0803 -1.6069
 3539TIP3   OH232031   3.305   2.873   3.755 -0.3827 -0.3919 -0.2014
 3539TIP3    H132032   3.331   2.796   3.704 -0.7027 -0.5895 -0.0671
 3539TIP3    H232033   3.318   2.846   3.846  0.7784  0.1639 -0.1815
 3540TIP3   OH232034   2.913   4.024   1.681  0.1816 -0.0193  0.1559
 3540TIP3    H132035   2.996   4.039   1.726 -0.5668 -0.0498  1.6055
 3540TIP3    H232036   2.933   4.038   1.588  1.5601  0.9842  0.5733
 3541TIP3   OH232037   3.423   0.360   3.290  0.3094 -0.8157 -0.2560
 3541TIP3    H132038   3.369   0.380   3.213  0.7721 -0.3351 -0.4564
 3541TIP3    H232039   3.466   0.442   3.311  0.6157 -1.0889  0.1818
 3542TIP3   OH232040   0.504   0.203   2.802  0.5082 -0.2753  0.3598
 3542TIP3    H132041   0.417   0.219   2.839 -1.2976 -3.3767 -2.0318
 3542TIP3    H232042   0.533   0.289   2.772 -1.5547  0.9147  1.5144
 3543TIP3   OH232043   0.549   4.222  15.088  0.5065 -0.1424  0.1159
 3543TIP3    H132044   0.598   4.174  15.022 -0.2369 -0.9415  0.1178
 3543TIP3    H232045   0.608   4.227  15.163  2.1456  2.5449 -1.2020
 3544TIP3   OH232046   5.008   1.219   0.890  0.7540 -0.4772 -0.3742
 3544TIP3    H132047   5.042   1.236   0.978  1.6469 -2.8088 -0.2119
 3544TIP3    H232048   5.084   1.190   0.840  0.2017  0.5383 -1.8783
 3545TIP3   OH232049   2.754   2.106  16.604  0.2337 -0.0148  0.7908
 3545TIP3    H132050   2.723   2.194  16.625  2.4041  0.8480  0.6961
 3545TIP3    H232051   2.680   2.049  16.624 -1.4275  1.8574  0.3506
 3546TIP3   OH232052   5.649   5.799   2.108 -0.2183 -0.7361 -0.2417
 3546TIP3    H132053   5.644   5.747   2.189  2.7844  0.7339  1.0434
 3546TIP3    H232054   5.707   5.749   2.051 -0.7324 -0.8139 -0.6948
 3547TIP3   OH232055   4.967   6.743  16.979  0.1264  0.1705 -0.1883
 3547TIP3    H132056   4.889   6.687  16.978  0.5055 -0.3638  0.0634
 3547TIP3    H232057   5.024   6.704  17.045  1.5488 -0.6933 -1.8522
 3548TIP3   OH232058   0.811   4.474   1.991 -0.2580 -0.2722 -0.2827
 3548TIP3    H132059   0.884   4.528   1.961  0.7750 -0.5687  1.5557
 3548TIP3    H232060   0.735   4.510   1.946  0.7712  1.0277 -1.0836
 3549TIP3   OH232061   1.036   2.653   5.060  0.7914 -0.2135 -0.3157
 3549TIP3    H132062   1.127   2.677   5.044  0.5608  0.6456 -0.4015
 3549TIP3    H232063   1.000   2.634   4.973 -0.0200  2.8520 -0.7673
 3550TIP3   OH232064   5.407   3.533  13.395 -0.0434  0.1780  0.2575
 3550TIP3    H132065   5.365   3.467  13.340  0.1285  0.0955  0.2250
 3550TIP3    H232066   5.427   3.605  13.335 -0.0991  0.1994  0.2647
 3551TIP3   OH232067   3.727   4.324   4.653 -0.3347  0.2591 -0.0933
 3551TIP3    H132068   3.792   4.328   4.582 -0.6308 -0.9386 -0.4500
 3551TIP3    H232069   3.764   4.381   4.721  1.1082 -0.3866 -0.2820
 3552TIP3   OH232070   1.990   2.545  12.594  0.2078 -0.2606 -0.4817
 3552TIP3    H132071   1.907   2.503  12.614  1.0379 -1.7183  0.0755
 3552TIP3    H232072   2.017   2.507  12.510  1.0704 -1.0354  0.1304
 3553TIP3   OH232073   5.952   2.298  13.540  0.3088  0.5545  0.3576
 3553TIP3    H132074   5.991   2.300  13.627 -0.1830 -2.6896  0.7779
 3553TIP3    H232075   5.870   2.250  13.552  0.2293  0.0324 -1.8684
 3554TIP3   OH232076   3.904   4.707   0.580 -0.3691 -0.2732 -0.0455
 3554TIP3    H132077   3.955   4.649   0.637  1.3371  2.5538  1.5888
 3554TIP3    H232078   3.819   4.715   0.623 -0.6904 -1.6746 -0.4014
 3555TIP3   OH232079   0.679   4.879  14.077 -0.0877 -0.9447  0.5368
 3555TIP3    H132080   0.656   4.830  14.156 -0.4497  0.1281  1.1193
 3555TIP3    H232081   0.605   4.938  14.063  0.3491 -0.5372 -0.1297
 3556TIP3   OH232082   0.322   3.210  15.618 -0.5471  0.3485  0.1710
 3556TIP3    H132083   0.374   3.252  15.550  1.1999 -1.6139  0.1829
 3556TIP3    H232084   0.245   3.266  15.627  1.6348  3.6008  0.3469
 3557TIP3   OH232085   0.454   4.626   4.151 -0.8419  0.0178  0.7517
 3557TIP3    H132086   0.458   4.640   4.056  0.9793  1.7004  0.9887
 3557TIP3    H232087   0.420   4.709   4.186 -1.1226 -0.4365  1.5895
 3558TIP3   OH232088   5.529   0.397   2.658 -0.3860 -0.4901  0.1012
 3558TIP3    H132089   5.484   0.378   2.576  0.7793 -1.2828 -0.3908
 3558TIP3    H232090   5.465   0.443   2.712 -0.8868  0.8662 -1.5923
 3559TIP3   OH232091   6.632   2.277   0.884 -0.6078 -0.1099  0.4079
 3559TIP3    H132092   6.615   2.370   0.873  1.2750  0.2236 -0.1952
 3559TIP3    H232093   6.573   2.249   0.953  0.0892  1.9634  1.9278
 3560TIP3   OH232094   0.250   5.781  15.947  0.2354  0.1693 -0.0623
 3560TIP3    H132095   0.180   5.846  15.955  1.3304  1.5221 -0.9217
 3560TIP3    H232096   0.207   5.697  15.961 -1.3511  1.0277  0.4654
 3561TIP3   OH232097   3.683   4.654   3.764  0.2953 -0.6320  0.7134
 3561TIP3    H132098   3.615   4.717   3.788 -0.7552  0.3797 -3.9083
 3561TIP3    H232099   3.634   4.574   3.743  0.8316 -0.7485 -0.0955
 3562TIP3   OH232100   1.495   4.704   3.633 -0.4502  0.3828 -0.1731
 3562TIP3    H132101   1.536   4.620   3.654  0.9293  0.3864 -2.5480
 3562TIP3    H232102   1.555   4.746   3.572 -1.8014  2.4964 -0.1542
 3563TIP3   OH232103   0.768   3.080  15.140 -0.1220 -0.7992  0.1978
 3563TIP3    H132104   0.851   3.125  15.128 -0.1397 -1.3116 -2.3864
 3563TIP3    H232105   0.702   3.149  15.139  0.0999 -0.5958 -0.1527
 3564TIP3   OH232106   1.343   0.986  14.969  0.0772 -0.2736  0.2470
 3564TIP3    H132107   1.251   1.000  14.948 -0.4914 -1.6570  1.5616
 3564TIP3    H232108   1.355   0.891  14.962  1.3190 -0.1423  0.3770
 3565TIP3   OH232109   6.469   1.622  12.459  0.2004  0.1630 -0.1785
 3565TIP3    H132110   6.514   1.579  12.386 -0.4295  0.1088 -0.5378
 3565TIP3    H232111   6.505   1.710  12.461  0.9050 -0.1245  0.0448
 3566TIP3   OH232112   1.407   3.742  17.022  0.1393  0.3951  0.0568
 3566TIP3    H132113   1.319   3.780  17.016 -0.0267  0.4080  2.0343
 3566TIP3    H232114   1.391   3.647  17.026  0.1868  0.4059  0.5942
 3567TIP3   OH232115   0.867   6.679   5.691  0.0145 -0.4423  0.6953
 3567TIP3    H132116   0.848   6.681   5.785 -2.1840  0.0370  0.2881
 3567TIP3    H232117   0.857   6.588   5.666 -0.9055 -0.3419  0.6679
 3568TIP3   OH232118   0.582   3.056   1.578 -0.3660  0.5306 -0.0489
 3568TIP3    H132119   0.622   3.011   1.652  1.5726  0.7393 -0.9035
 3568TIP3    H232120   0.491   3.068   1.604 -0.7740 -2.9392  0.6590
 3569TIP3   OH232121   5.110   0.213   2.883 -0.2600 -0.4406 -0.3226
 3569TIP3    H132122   5.132   0.126   2.851  0.8505 -0.4062  0.3075
 3569TIP3    H232123   5.096   0.265   2.803 -2.5458 -1.5430 -0.7238
 3570TIP3   OH232124   5.782   0.304   5.027 -0.4012  0.4230  0.0992
 3570TIP3    H132125   5.720   0.250   5.076 -2.2448  2.0643 -0.2844
 3570TIP3    H232126   5.800   0.253   4.948 -2.6755  0.5738 -0.6050
 3571TIP3   OH232127   0.613   4.988  11.368  0.4236  0.2444  0.2359
 3571TIP3    H132128   0.554   4.992  11.292  0.5720 -3.1537 -0.2019
 3571TIP3    H232129   0.564   5.030  11.438 -0.4092  1.9751 -1.2899
 3572TIP3   OH232130   2.725   0.318  12.238  0.0838 -0.0311  0.1012
 3572TIP3    H132131   2.638   0.292  12.209 -0.9603 -0.0171  2.9377
 3572TIP3    H232132   2.725   0.414  12.230 -0.0841 -0.0489 -0.1123
 3573TIP3   OH232133   1.578   0.211   1.468  0.1922 -0.4712 -0.0807
 3573TIP3    H132134   1.555   0.122   1.442 -0.1289 -0.0139 -1.4245
 3573TIP3    H232135   1.668   0.222   1.438  0.2058 -0.3219  0.0143
 3574TIP3   OH232136   2.467   6.464   6.428 -0.5832 -0.6852  0.0440
 3574TIP3    H132137   2.400   6.416   6.380  0.0456  1.7192 -3.6570
 3574TIP3    H232138   2.428   6.550   6.444  0.7793 -0.0252 -0.0592
 3575TIP3   OH232139   0.872   3.226  14.039 -0.0889  0.4619  0.1353
 3575TIP3    H132140   0.847   3.133  14.033  0.1891  0.3257  0.9613
 3575TIP3    H232141   0.931   3.230  14.114  0.4219  1.2029 -0.3004
 3576TIP3   OH232142   6.238   1.675   0.770 -0.4468 -0.1959 -0.0330
 3576TIP3    H132143   6.182   1.685   0.847 -1.4122 -0.0879 -0.7340
 3576TIP3    H232144   6.327   1.680   0.805 -0.7986 -2.3209  1.4126
 3577TIP3   OH232145   0.349   5.124  14.157  0.1010  0.3744 -0.5780
 3577TIP3    H132146   0.407   5.095  14.227 -1.2870 -0.5896  0.2095
 3577TIP3    H232147   0.406   5.172  14.097  1.8249 -1.0272 -0.1432
 3578TIP3   OH232148   2.126   6.514   5.011 -0.2235 -1.1968  0.2939
 3578TIP3    H132149   2.101   6.606   5.023 -0.5366 -1.3673  1.0024
 3578TIP3    H232150   2.050   6.464   5.040  0.4507 -1.6953  1.2519
 3579TIP3   OH232151   0.426   1.243   4.988  0.2792 -0.2625 -0.4656
 3579TIP3    H132152   0.371   1.271   4.915  1.4787 -0.5665 -1.5040
 3579TIP3    H232153   0.498   1.195   4.948  1.1787 -0.0945  0.8813
 3580TIP3   OH232154   1.710   3.982  11.379 -0.4705 -0.3041 -0.2279
 3580TIP3    H132155   1.783   3.968  11.439 -1.1188 -1.6150  0.2891
 3580TIP3    H232156   1.645   4.030  11.431 -0.3215  0.1404 -0.4422
 3581TIP3   OH232157   3.671   0.621   1.027  0.0495 -0.1141  0.4735
 3581TIP3    H132158   3.661   0.529   1.002 -0.8280 -0.0758  0.6419
 3581TIP3    H232159   3.675   0.668   0.944 -2.5545 -0.0141  0.3177
 3582TIP3   OH232160   0.638   5.465  10.815 -0.8842 -0.0216  0.4542
 3582TIP3    H132161   0.548   5.434  10.827 -0.4091 -1.7693 -0.2403
 3582TIP3    H232162   0.632   5.560  10.822 -2.8608 -0.0796 -0.0050
 3583TIP3   OH232163   3.908   2.955   2.695  0.3303 -0.0553  0.0546
 3583TIP3    H132164   3.872   3.042   2.677 -0.9631 -0.3257  1.1070
 3583TIP3    H232165   3.988   2.950   2.643  0.4172  1.7448 -0.0437
 3584TIP3   OH232166   4.293   6.311   0.359  0.5721  0.1321  0.0676
 3584TIP3    H132167   4.267   6.374   0.291  0.1484 -1.0040 -0.8553
 3584TIP3    H232168   4.346   6.246   0.312  0.7408 -0.3713  0.9383
 3585TIP3   OH232169   4.841   4.882  16.415 -0.3531  0.2044 -0.7099
 3585TIP3    H132170   4.887   4.800  16.431 -0.2029 -0.4230 -3.7349
 3585TIP3    H232171   4.897   4.950  16.454  0.8492 -0.9036 -0.4481
 3586TIP3   OH232172   5.808   2.912   5.255  0.3674  0.0147  0.5075
 3586TIP3    H132173   5.850   2.997   5.267 -0.2558  0.3227  0.5636
 3586TIP3    H232174   5.779   2.887   5.343 -0.6032  0.3661  0.3039
 3587TIP3   OH232175   3.312   1.507  14.272  0.1141 -0.2140  0.1214
 3587TIP3    H132176   3.260   1.446  14.221  1.8610 -2.9335  1.3558
 3587TIP3    H232177   3.267   1.514  14.356  0.4473 -0.6248  0.3361
 3588TIP3   OH232178   0.410   5.997   5.297  0.6519  0.2038 -0.0325
 3588TIP3    H132179   0.411   6.068   5.234 -0.8256 -0.4754 -0.8821
 3588TIP3    H232180   0.500   5.964   5.299  0.9029  0.7878 -1.1429
 3589TIP3   OH232181   0.828   0.222   4.328  0.3617  0.4386  0.1713
 3589TIP3    H132182   0.762   0.252   4.265  0.5330  0.4209 -0.0186
 3589TIP3    H232183   0.869   0.146   4.286  1.0694  0.9441 -0.0754
 3590TIP3   OH232184   1.720   5.049  15.688  0.6946  0.3515 -0.5190
 3590TIP3    H132185   1.782   5.099  15.634 -1.0074  3.8267  0.4304
 3590TIP3    H232186   1.645   5.034  15.629  0.7184 -0.0090 -0.4563
 3591TIP3   OH232187   6.425   4.609  13.953  0.4992 -0.3371 -0.5144
 3591TIP3    H132188   6.338   4.569  13.949  1.5631 -2.7016 -2.1442
 3591TIP3    H232189   6.483   4.538  13.981  2.4088  0.1377 -2.9621
 3592TIP3   OH232190   5.453   4.587   0.553 -0.8784  0.6606  0.0151
 3592TIP3    H132191   5.505   4.533   0.613  0.6588  0.6792 -1.2380
 3592TIP3    H232192   5.364   4.551   0.560 -0.4283 -0.3101  1.1521
 3593TIP3   OH232193   4.771   4.657   1.611 -0.6077  0.0962  0.3039
 3593TIP3    H132194   4.822   4.732   1.643 -1.7592  1.5285 -1.0586
 3593TIP3    H232195   4.702   4.645   1.676 -2.6202  2.6531 -1.1605
 3594TIP3   OH232196   2.517   6.130  13.267 -0.5759  0.1784 -0.0071
 3594TIP3    H132197   2.489   6.048  13.226 -0.3243 -0.6877  1.4496
 3594TIP3    H232198   2.558   6.180  13.197  0.8982 -1.7254 -0.5843
 3595TIP3   OH232199   4.803   5.428   3.614  0.6885 -0.5046  0.2594
 3595TIP3    H132200   4.772   5.357   3.670  2.2818 -0.7530  0.8714
 3595TIP3    H232201   4.770   5.407   3.527  0.1628 -1.3597  0.6537
 3596TIP3   OH232202   2.890   0.331  15.774  0.0447  0.6248 -0.3657
 3596TIP3    H132203   2.872   0.422  15.751 -0.9668  0.8622  1.1947
 3596TIP3    H232204   2.972   0.334  15.824  0.4489  0.5526 -1.0121
 3597TIP3   OH232205   1.188   2.650  12.532  0.1954  0.6339 -0.0779
 3597TIP3    H132206   1.110   2.698  12.559 -1.1078 -2.1786  1.7909
 3597TIP3    H232207   1.254   2.673  12.597 -0.7235 -0.6681  1.4090
 3598TIP3   OH232208   4.379   3.548  16.113 -0.0546 -0.2644 -0.0746
 3598TIP3    H132209   4.379   3.630  16.163 -2.4255  1.8376 -3.0856
 3598TIP3    H232210   4.470   3.539  16.083  0.2078  1.5252  0.0265
 3599TIP3   OH232211   6.680   5.106   0.544  0.2818 -0.5995  0.0044
 3599TIP3    H132212   6.743   5.046   0.582  0.4752 -0.1592  0.3898
 3599TIP3    H232213   6.677   5.180   0.605 -0.3140 -0.4387 -0.2079
 3600TIP3   OH232214   2.731   4.269   2.394 -0.6729  0.1223  0.1866
 3600TIP3    H132215   2.818   4.229   2.395 -1.5655 -1.9458  0.2868
 3600TIP3    H232216   2.731   4.323   2.315  1.0226  1.0156  0.7319
 3601TIP3   OH232217   0.769   2.632   1.591  0.1943  0.6181  0.4347
 3601TIP3    H132218   0.826   2.688   1.538 -0.4300  1.1265  0.2762
 3601TIP3    H232219   0.791   2.653   1.681  1.1651 -0.1481  0.3918
 3602TIP3   OH232220   1.277   6.186   3.015  0.6127 -0.9489 -0.1855
 3602TIP3    H132221   1.294   6.280   3.006 -3.1499  0.0308  0.8505
 3602TIP3    H232222   1.256   6.157   2.927 -2.5746  0.4038 -0.0224
 3603TIP3   OH232223   4.010   1.369   5.819 -0.0631 -0.5644 -0.3390
 3603TIP3    H132224   4.087   1.355   5.873 -0.8342  0.3756  1.0594
 3603TIP3    H232225   3.949   1.417   5.875 -1.4606 -0.8017 -1.5780
 3604TIP3   OH232226   0.154   6.632   4.811  0.0498 -0.1233 -0.4362
 3604TIP3    H132227   0.168   6.702   4.875 -1.4260 -0.8025  0.6732
 3604TIP3    H232228   0.094   6.669   4.747  0.2494  0.0259 -0.5376
 3605TIP3   OH232229   5.333   3.027   0.198 -0.3648  0.7775  0.3826
 3605TIP3    H132230   5.251   3.068   0.224 -0.5826  1.1038 -0.7415
 3605TIP3    H232231   5.380   3.097   0.151  0.4108  0.5029  0.7374
 3606TIP3   OH232232   5.763   5.855  16.247 -0.1326 -0.3187 -0.4848
 3606TIP3    H132233   5.719   5.814  16.172  0.0394 -0.0288 -0.7508
 3606TIP3    H232234   5.822   5.787  16.280  2.9760  0.7553 -3.2308
 3607TIP3   OH232235   6.343   5.180   6.321  0.6096 -0.5606  0.3773
 3607TIP3    H132236   6.351   5.274   6.336 -1.4952 -0.1721 -0.5587
 3607TIP3    H232237   6.255   5.158   6.352  1.2622 -2.3672  1.1190
 3608TIP3   OH232238   0.906   0.273   4.830 -0.2515 -0.2148 -0.1430
 3608TIP3    H132239   0.854   0.334   4.881 -1.1718 -0.8395 -0.3122
 3608TIP3    H232240   0.895   0.300   4.739  0.3453  0.1162 -0.1200
 3609TIP3   OH232241   5.215   0.388   0.693 -0.5702 -0.3023  0.0973
 3609TIP3    H132242   5.300   0.345   0.706  1.1959  2.3086 -1.7204
 3609TIP3    H232243   5.221   0.469   0.743 -1.2112  0.7879 -1.5119
 3610TIP3   OH232244   2.521   3.919   3.418 -0.0524  0.6213  0.3694
 3610TIP3    H132245   2.474   3.854   3.365  1.6361  0.0227 -0.4713
 3610TIP3    H232246   2.452   3.965   3.466 -1.4746 -0.2794 -0.7194
 3611TIP3   OH232247   1.522   6.285  14.857 -0.1209 -0.0737  0.6435
 3611TIP3    H132248   1.503   6.339  14.933  0.8669 -0.1857  0.9851
 3611TIP3    H232249   1.504   6.341  14.782  0.8984  0.7605  0.9891
 3612TIP3   OH232250   6.623   2.089  13.894 -0.4229  0.2425  0.4917
 3612TIP3    H132251   6.673   2.012  13.868 -2.0937 -0.9111  0.5543
 3612TIP3    H232252   6.619   2.143  13.815  0.1487 -0.0788  0.2377
 3613TIP3   OH232253   3.678   6.313   2.743  0.5012 -0.1977  0.5924
 3613TIP3    H132254   3.666   6.232   2.692 -0.1867 -0.4763  1.1880
 3613TIP3    H232255   3.589   6.339   2.767  0.5667  1.6016 -0.8962
 3614TIP3   OH232256   3.836   1.335  13.983  0.9962  0.1422 -0.4419
 3614TIP3    H132257   3.854   1.401  14.049 -1.0522 -0.3517  0.7005
 3614TIP3    H232258   3.756   1.365  13.939  0.8897 -0.8166 -0.9380
 3615TIP3   OH232259   1.434   1.454  11.546 -0.5015 -0.2509  0.6101
 3615TIP3    H132260   1.454   1.468  11.453 -0.0393 -2.6419  0.2963
 3615TIP3    H232261   1.519   1.462  11.590 -0.0844 -2.4711  0.3250
 3616TIP3   OH232262   3.214   0.224  16.538 -0.2602 -0.1231 -0.2457
 3616TIP3    H132263   3.275   0.152  16.555 -1.5701 -1.2682 -0.1692
 3616TIP3    H232264   3.268   0.293  16.501  0.9217 -1.4515 -1.1147
 3617TIP3   OH232265   0.960   5.767  13.445 -0.2441  0.4168 -0.3773
 3617TIP3    H132266   1.020   5.745  13.517  1.2946 -0.5813 -1.8965
 3617TIP3    H232267   0.952   5.862  13.449  0.3477  0.4418  0.7169
 3618TIP3   OH232268   2.626   2.300   5.456  0.2028 -0.1844  0.6184
 3618TIP3    H132269   2.552   2.240   5.453  0.8995 -1.0574  0.1771
 3618TIP3    H232270   2.588   2.387   5.447 -0.5452 -0.7416 -3.4712
 3619TIP3   OH232271   4.976   4.105   0.656  0.1111 -0.1013  0.1860
 3619TIP3    H132272   5.044   4.039   0.652 -0.2353 -0.4453 -0.1577
 3619TIP3    H232273   4.907   4.072   0.598  0.7417  1.4824 -1.5859
 3620TIP3   OH232274   3.099   3.889  13.036 -1.1347  0.8917 -0.3962
 3620TIP3    H132275   3.040   3.824  13.075  0.5359 -1.3539 -1.3785
 3620TIP3    H232276   3.043   3.939  12.976 -2.2585 -0.5457 -0.6077
 3621TIP3   OH232277   1.199   0.124  14.799 -0.7044  0.1439 -0.0333
 3621TIP3    H132278   1.239   0.175  14.870  0.0994  0.0473 -0.4092
 3621TIP3    H232279   1.115   0.094  14.836 -0.0368 -0.4151  1.0956
 3622TIP3   OH232280   6.151   0.895  14.314  1.1472  0.3947 -0.4687
 3622TIP3    H132281   6.127   0.899  14.221 -0.3185  0.5153 -0.1096
 3622TIP3    H232282   6.170   0.986  14.337  0.2385  0.5531 -0.3379
 3623TIP3   OH232283   1.917   1.284   0.411  0.0289 -0.2057 -0.6525
 3623TIP3    H132284   2.006   1.252   0.426 -0.1660 -0.7768 -0.6953
 3623TIP3    H232285   1.867   1.206   0.388 -0.6028  0.0306 -0.1091
 3624TIP3   OH232286   3.220   3.123   1.680 -0.2478 -0.7348  0.4296
 3624TIP3    H132287   3.247   3.183   1.611  0.9963  0.6634  2.0552
 3624TIP3    H232288   3.301   3.082   1.710 -0.6528 -0.7056  1.6167
 3625TIP3   OH232289   1.015   2.534   1.760 -0.3629 -0.2538 -0.2490
 3625TIP3    H132290   1.012   2.617   1.711  0.4581 -0.5342 -0.7833
 3625TIP3    H232291   1.064   2.555   1.840 -2.0507  0.3079  0.7093
 3626TIP3   OH232292   2.236   4.308   5.391 -0.4075 -0.3861  0.4446
 3626TIP3    H132293   2.192   4.355   5.462 -1.2664 -0.3690 -0.0786
 3626TIP3    H232294   2.325   4.344   5.389 -1.3105  2.0287 -0.6302
 3627TIP3   OH232295   2.783   5.452   3.909  0.4981 -0.2103  0.0612
 3627TIP3    H132296   2.798   5.546   3.907 -0.5072 -0.0250  0.3595
 3627TIP3    H232297   2.705   5.441   3.964  1.0409 -1.2791  0.6481
 3628TIP3   OH232298   0.282   6.633   2.716  0.1317 -0.0868  0.1017
 3628TIP3    H132299   0.296   6.671   2.629 -0.3038 -0.8387 -0.3116
 3628TIP3    H232300   0.268   6.708   2.773 -2.5564  0.3732 -1.0190
 3629TIP3   OH232301   6.226   0.093   2.207  0.4525 -0.4772 -0.5319
 3629TIP3    H132302   6.133   0.092   2.184  0.3032  0.6286 -0.0558
 3629TIP3    H232303   6.268   0.037   2.142 -0.6060 -1.3512 -0.4767
 3630TIP3   OH232304   6.456   5.784   2.073 -0.5308  0.6192  0.5759
 3630TIP3    H132305   6.463   5.871   2.032  2.3635 -0.3329 -1.2366
 3630TIP3    H232306   6.383   5.743   2.027 -0.9018  1.5365  0.3103
 3631TIP3   OH232307   3.005   3.258   6.381 -0.0838 -0.5063  0.3934
 3631TIP3    H132308   3.080   3.253   6.441  0.4152 -0.7315 -0.2313
 3631TIP3    H232309   3.044   3.280   6.296 -0.8187  0.1573  0.2207
 3632TIP3   OH232310   1.690   1.797  11.105 -0.1425  0.1748  0.1146
 3632TIP3    H132311   1.777   1.839  11.104 -0.7508  1.5675 -2.5828
 3632TIP3    H232312   1.629   1.867  11.086 -1.7707 -1.0566  0.5572
 3633TIP3   OH232313   3.832   3.434   2.764  0.3805  0.7466  0.1329
 3633TIP3    H132314   3.865   3.387   2.840  1.6775  0.8026 -0.3663
 3633TIP3    H232315   3.871   3.521   2.770 -1.5383  1.6288  0.7360
 3634TIP3   OH232316   5.514   0.346  13.313  0.1671  0.2405 -0.1198
 3634TIP3    H132317   5.543   0.262  13.279 -0.5187 -0.1588  0.2547
 3634TIP3    H232318   5.434   0.366  13.263 -0.3259  0.0954  0.5866
 3635TIP3   OH232319   4.128   0.750   5.085 -0.6797 -0.0699  0.0475
 3635TIP3    H132320   4.049   0.802   5.098 -0.0012  0.8133  0.8003
 3635TIP3    H232321   4.122   0.720   4.994 -2.7525 -1.5641  0.6026
 3636TIP3   OH232322   2.932   4.362  14.307  0.2429  0.1819 -0.0596
 3636TIP3    H132323   2.935   4.268  14.292 -0.2368  0.1196  0.2305
 3636TIP3    H232324   2.916   4.400  14.221  0.8175  0.0284 -0.2420
 3637TIP3   OH232325   6.596   0.824   4.933 -0.3015  0.0288 -0.4038
 3637TIP3    H132326   6.519   0.771   4.912 -1.9253  0.8595  2.7829
 3637TIP3    H232327   6.568   0.914   4.918  0.4773  0.2902 -0.3433
 3638TIP3   OH232328   0.098   2.354   0.515 -0.5635  0.0742  0.1574
 3638TIP3    H132329   0.065   2.425   0.460 -0.9603  0.2887  0.6643
 3638TIP3    H232330   0.075   2.274   0.468 -1.3088  0.2416  0.2285
 3639TIP3   OH232331   6.580   4.470  14.364 -0.4966  0.2275 -0.7119
 3639TIP3    H132332   6.576   4.546  14.423 -0.7355  0.1418 -0.6177
 3639TIP3    H232333   6.632   4.500  14.290  0.9518 -0.0759  0.1476
 3640TIP3   OH232334   6.355   1.881  15.880 -0.3407  0.7148 -0.9644
 3640TIP3    H132335   6.301   1.802  15.889 -0.4024  0.7989 -0.5757
 3640TIP3    H232336   6.393   1.894  15.967 -2.0264  2.3337 -0.4009
 3641TIP3   OH232337   4.171   2.168  14.002  0.4034  0.7329  0.5123
 3641TIP3    H132338   4.248   2.168  14.060 -0.6288  0.5334  1.9241
 3641TIP3    H232339   4.186   2.094  13.943  1.3680  0.7851  0.6699
 3642TIP3   OH232340   2.418   1.036  15.305 -0.0837 -0.1877 -0.0016
 3642TIP3    H132341   2.513   1.026  15.304 -0.0352 -0.0217  1.5185
 3642TIP3    H232342   2.384   0.946  15.298  0.1550 -0.2015 -1.1911
 3643TIP3   OH232343   4.836   0.284  15.119 -0.2356  0.0771  0.0340
 3643TIP3    H132344   4.750   0.325  15.129  0.1116  0.9435 -0.4830
 3643TIP3    H232345   4.895   0.356  15.098  1.2977  0.1047  3.6719
 3644TIP3   OH232346   0.622   1.010  16.214 -0.4685  0.4021  0.5250
 3644TIP3    H132347   0.578   1.073  16.157  1.1958  0.8694 -0.3098
 3644TIP3    H232348   0.578   0.927  16.194 -1.3692  0.9391  0.1782
 3645TIP3   OH232349   4.324   0.228  12.721  0.5940 -0.3043  0.4685
 3645TIP3    H132350   4.323   0.145  12.673  0.4235  0.4600 -0.9055
 3645TIP3    H232351   4.416   0.252  12.726  0.5706 -0.1216  0.0403
 3646TIP3   OH232352   0.908   1.279  14.150  0.6883  0.0082  0.1407
 3646TIP3    H132353   0.907   1.185  14.132  0.1329  0.1288 -0.5017
 3646TIP3    H232354   0.825   1.295  14.195  0.2693  0.3591 -0.7289
 3647TIP3   OH232355   1.330   1.322  13.588 -0.2707  0.2309  0.1146
 3647TIP3    H132356   1.268   1.261  13.547 -2.2371  1.5014  1.0148
 3647TIP3    H232357   1.281   1.404  13.595  1.8568  1.5706  0.1111
 3648TIP3   OH232358   2.022   1.926  13.075  0.1569 -0.5001  0.1517
 3648TIP3    H132359   2.073   1.935  13.155  1.6033  0.7102 -0.8557
 3648TIP3    H232360   1.942   1.976  13.092 -0.2730 -1.5378  1.3631
 3649TIP3   OH232361   2.056   5.326   1.778 -0.3585 -0.0994  0.4435
 3649TIP3    H132362   2.010   5.356   1.856 -0.2998  2.6426 -0.4469
 3649TIP3    H232363   2.012   5.245   1.754 -0.1268 -1.2363  3.4596
 3650TIP3   OH232364   0.510   6.136   1.309 -0.9967  0.4742 -0.0162
 3650TIP3    H132365   0.426   6.125   1.264 -0.8732  0.8612 -0.3366
 3650TIP3    H232366   0.506   6.072   1.381 -0.7433 -0.9287 -1.2174
 3651TIP3   OH232367   0.308   4.669   1.527 -0.5980  0.2869 -0.3268
 3651TIP3    H132368   0.313   4.579   1.494 -0.5093 -0.7773  2.3221
 3651TIP3    H232369   0.399   4.692   1.549 -0.8728  0.1602  1.0237
 3652TIP3   OH232370   1.161   2.565   0.943 -0.0127  0.4620  0.3783
 3652TIP3    H132371   1.194   2.638   0.995  0.3950  0.7662 -0.3057
 3652TIP3    H232372   1.113   2.606   0.871  1.3921  0.1152 -0.8062
 3653TIP3   OH232373   0.619   5.500   3.703 -0.2776  0.3890  0.0667
 3653TIP3    H132374   0.531   5.494   3.667  0.0243  0.9822 -0.8049
 3653TIP3    H232375   0.674   5.522   3.628  0.3036  2.2139  0.9609
 3654TIP3   OH232376   1.855   6.569   4.872  0.2608  0.5227  0.2488
 3654TIP3    H132377   1.862   6.477   4.846 -1.4482 -0.2135  2.1324
 3654TIP3    H232378   1.839   6.615   4.790 -0.3727 -1.0495 -0.5622
 3655TIP3   OH232379   4.195   2.413  12.701  0.6249  0.8680  0.2129
 3655TIP3    H132380   4.274   2.361  12.690  0.5822  1.2485 -2.6227
 3655TIP3    H232381   4.171   2.401  12.793  1.7656 -2.4247  0.2298
 3656TIP3   OH232382   0.013   5.329  12.520  0.2912  0.1612 -0.2758
 3656TIP3    H132383  -0.009   5.388  12.449 -0.1113 -0.0135 -0.2992
 3656TIP3    H232384  -0.000   5.380  12.599  1.0195  0.4466 -0.3321
 3657TIP3   OH232385   6.007   6.714   4.485  0.5811 -0.6452  0.0712
 3657TIP3    H132386   5.920   6.705   4.523  0.4697  0.8488  0.2083
 3657TIP3    H232387   5.991   6.737   4.393  0.7513  1.6918  0.5582
 3658TIP3   OH232388   5.444   4.678  11.535 -0.2341 -0.0938  0.3898
 3658TIP3    H132389   5.442   4.742  11.607  1.2451 -0.1281  0.5068
 3658TIP3    H232390   5.390   4.606  11.566  1.0743 -0.4966  1.9132
 3659TIP3   OH232391   2.449   0.940  15.022 -0.4045  0.2785  0.0981
 3659TIP3    H132392   2.494   0.856  15.023 -0.1332  0.3983 -0.8726
 3659TIP3    H232393   2.429   0.958  15.114 -1.5609 -1.4184  0.2320
 3660TIP3   OH232394   5.505   3.863  13.823  0.4706  0.4955  0.1295
 3660TIP3    H132395   5.484   3.781  13.867 -2.3990  1.0707  0.0630
 3660TIP3    H232396   5.525   3.924  13.895 -2.2666  0.9239  0.6374
 3661TIP3   OH232397   4.080   0.973   1.667  0.6792  0.4776 -0.2370
 3661TIP3    H132398   4.083   0.910   1.595  1.8830  0.9949 -0.6599
 3661TIP3    H232399   4.114   1.054   1.630 -0.3841  1.2619  0.4379
 3662TIP3   OH232400   6.403   4.094  10.947  0.2902 -0.3255  0.2436
 3662TIP3    H132401   6.342   4.139  10.888  2.1240  1.1547 -0.6220
 3662TIP3    H232402   6.361   4.009  10.963 -3.2289  1.4742  1.7705
 3663TIP3   OH232403   2.180   1.182   4.880 -0.2719  0.1995  0.5200
 3663TIP3    H132404   2.149   1.271   4.867 -0.7185 -0.0315 -0.0462
 3663TIP3    H232405   2.246   1.169   4.813 -1.0728 -0.2868 -0.2062
 3664TIP3   OH232406   0.033   0.595   5.303  0.5495 -0.2508 -0.1727
 3664TIP3    H132407   0.015   0.688   5.312 -0.2106 -0.5991  2.7125
 3664TIP3    H232408   0.073   0.569   5.385  2.6033 -2.1426 -1.6366
 3665TIP3   OH232409   3.827   2.271  13.094  0.2419 -0.1279 -0.8023
 3665TIP3    H132410   3.849   2.193  13.044 -1.0421 -0.8249 -0.3287
 3665TIP3    H232411   3.743   2.299  13.058  0.7478  1.1402 -1.0638
 3666TIP3   OH232412   4.570   2.642  14.231  0.0709  0.2985  0.2746
 3666TIP3    H132413   4.649   2.696  14.223 -0.9154  1.8384  0.3985
 3666TIP3    H232414   4.573   2.584  14.155  0.5607  1.4024 -0.5876
 3667TIP3   OH232415   4.079   4.810  12.546  0.0677 -0.4123  0.0194
 3667TIP3    H132416   4.046   4.892  12.581  1.7333 -0.3613  1.6112
 3667TIP3    H232417   4.088   4.753  12.622  1.5088 -1.1389 -0.6573
 3668TIP3   OH232418   2.312   4.626  16.494  0.3129 -0.2177 -0.1203
 3668TIP3    H132419   2.395   4.604  16.452 -0.1543 -1.5165 -0.4446
 3668TIP3    H232420   2.315   4.580  16.578  0.4260  0.7521  0.4155
 3669TIP3   OH232421   5.880   1.540  16.243 -0.0325  0.4403 -0.3404
 3669TIP3    H132422   5.850   1.571  16.157  1.9662  1.3635 -0.7507
 3669TIP3    H232423   5.800   1.514  16.288 -1.0424 -2.1180 -3.2315
 3670TIP3   OH232424   5.246   6.287  13.754  0.1304 -0.2675 -0.5453
 3670TIP3    H132425   5.273   6.338  13.831 -1.2577 -0.3014 -0.0010
 3670TIP3    H232426   5.308   6.214  13.750 -0.6227 -1.0857  1.4315
 3671TIP3   OH232427   3.134   6.752   2.664 -0.1298 -0.3790  0.0507
 3671TIP3    H132428   3.072   6.736   2.735 -0.3599 -0.7165 -0.2242
 3671TIP3    H232429   3.219   6.727   2.700 -0.0276  0.8683  0.7059
 3672TIP3   OH232430   3.079   0.377   2.215 -0.0861  0.2507  0.5148
 3672TIP3    H132431   3.133   0.300   2.198  0.8740  1.0976 -0.4275
 3672TIP3    H232432   3.131   0.429   2.276  0.5778  1.4218 -0.9657
 3673TIP3   OH232433   1.498   2.476  13.094  0.4929 -0.7278  0.3439
 3673TIP3    H132434   1.476   2.430  13.013  0.0839 -1.2399  0.7353
 3673TIP3    H232435   1.526   2.563  13.066 -0.5680 -0.5736 -0.2806
 3674TIP3   OH232436   4.966   3.648   2.817 -0.1641 -0.2467 -0.5214
 3674TIP3    H132437   4.943   3.615   2.729  1.6638  1.1717 -1.5971
 3674TIP3    H232438   4.980   3.741   2.804  0.3092 -0.0417  1.2808
 3675TIP3   OH232439   5.705   4.340   0.211 -0.2247 -0.2871  0.3662
 3675TIP3    H132440   5.695   4.372   0.301 -0.5384 -0.3490  0.3539
 3675TIP3    H232441   5.719   4.246   0.221  0.2913 -0.2158  0.3785
 3676TIP3   OH232442   5.630   3.257   1.135 -0.1402 -0.4645  0.0921
 3676TIP3    H132443   5.542   3.287   1.111  0.8495  0.4785 -2.8021
 3676TIP3    H232444   5.626   3.162   1.126 -0.4112 -0.2953 -1.9504
 3677TIP3   OH232445   4.195   5.532  15.319 -0.4832  0.3115 -0.0610
 3677TIP3    H132446   4.181   5.477  15.242 -0.7991  1.0897 -0.5693
 3677TIP3    H232447   4.233   5.473  15.384 -0.4556 -0.4145 -0.7234
 3678TIP3   OH232448   0.030   4.153  17.241 -0.2064  0.0866 -0.0942
 3678TIP3    H132449  -0.030   4.214  17.283 -0.3007 -0.4344  0.5395
 3678TIP3    H232450  -0.006   4.066  17.260 -0.5277 -0.1642 -1.6486
 3679TIP3   OH232451   6.285   0.174   5.394 -0.2679 -0.0088  0.0083
 3679TIP3    H132452   6.338   0.099   5.417  0.1647 -0.4935 -2.2818
 3679TIP3    H232453   6.274   0.223   5.475 -0.2153 -2.3028  1.4772
 3680TIP3   OH232454   6.546   3.181  15.970  0.0303  0.0087 -0.0096
 3680TIP3    H132455   6.474   3.210  15.914  1.1775  2.7675 -0.2182
 3680TIP3    H232456   6.520   3.204  16.059 -0.8085 -2.3001  0.4135
 3681TIP3   OH232457   0.384   2.358   0.642  0.3101  0.0617 -0.4272
 3681TIP3    H132458   0.454   2.340   0.579  0.7276  0.4747 -0.0910
 3681TIP3    H232459   0.303   2.333   0.596  0.7200 -1.0387 -0.5733
 3682TIP3   OH232460   1.618   0.291  13.041  0.0986  0.0242  0.6080
 3682TIP3    H132461   1.692   0.230  13.042  1.0046  1.0730  0.4323
 3682TIP3    H232462   1.564   0.265  13.115 -0.7630 -2.4017 -0.7616
 3683TIP3   OH232463   4.498   3.471   4.222  0.0404  0.0250 -0.4220
 3683TIP3    H132464   4.561   3.422   4.275 -0.4401 -1.5241 -1.2145
 3683TIP3    H232465   4.432   3.501   4.285  0.8358  0.4830  0.2118
 3684TIP3   OH232466   4.776   5.411  14.785 -0.1882 -0.2674  0.4586
 3684TIP3    H132467   4.682   5.430  14.791 -0.3350 -1.3763  2.0474
 3684TIP3    H232468   4.804   5.456  14.705 -1.6143  1.9340  1.0969
 3685TIP3   OH232469   6.099   0.025   3.712 -0.0411 -0.4843  0.5266
 3685TIP3    H132470   6.166   0.092   3.694 -0.1457 -0.3128  0.7680
 3685TIP3    H232471   6.040   0.030   3.638 -1.4784  1.4497  1.6803
 3686TIP3   OH232472   6.524   3.428  11.716  0.5167 -0.2429  0.4779
 3686TIP3    H132473   6.429   3.431  11.726  0.5527  0.9638  0.5458
 3686TIP3    H232474   6.556   3.389  11.797  0.0582 -1.1622  0.2339
 3687TIP3   OH232475   5.753   2.422   4.589  0.0021  0.1692 -0.5801
 3687TIP3    H132476   5.669   2.380   4.602  0.3612 -0.2857  0.3189
 3687TIP3    H232477   5.806   2.356   4.544  0.2869 -0.0223  0.0333
 3688TIP3   OH232478   5.361   6.385   0.545 -0.3582  0.1713 -0.3853
 3688TIP3    H132479   5.286   6.423   0.592  1.1634  0.5567  1.8846
 3688TIP3    H232480   5.386   6.453   0.482 -0.7920  0.8169  0.1188
 3689TIP3   OH232481   5.949   3.705  12.849 -0.0574 -0.3548  0.1415
 3689TIP3    H132482   6.003   3.765  12.901  0.2674  0.4239 -1.0616
 3689TIP3    H232483   5.942   3.746  12.763 -0.4882 -1.6702 -0.4867
 3690TIP3   OH232484   3.450   2.561  12.813  0.1508 -0.1629  0.2009
 3690TIP3    H132485   3.413   2.474  12.829 -0.6722 -0.0405 -0.8797
 3690TIP3    H232486   3.411   2.588  12.730  1.1575  0.8319  0.0296
 3691TIP3   OH232487   4.187   3.638   3.349  0.4031  0.2840 -0.2720
 3691TIP3    H132488   4.196   3.730   3.375 -2.4533  0.5311  0.1695
 3691TIP3    H232489   4.152   3.594   3.426  1.5109 -1.1510 -0.5582
 3692TIP3   OH232490   3.526   5.967  14.439  0.0345  1.0976  0.0053
 3692TIP3    H132491   3.575   5.895  14.479  0.9763 -0.3763 -3.3774
 3692TIP3    H232492   3.562   6.046  14.479  0.1622 -0.1915  2.6443
 3693TIP3   OH232493   1.388   3.694   1.245 -0.4131  0.3113 -0.2205
 3693TIP3    H132494   1.336   3.629   1.292  0.7624 -0.2026  0.4045
 3693TIP3    H232495   1.463   3.710   1.301 -0.4154  1.8410 -0.6114
 3694TIP3   OH232496   4.946   2.707   1.479 -0.3027  0.0774 -0.2133
 3694TIP3    H132497   4.986   2.706   1.392  0.5414 -1.7145  0.1353
 3694TIP3    H232498   4.891   2.629   1.480  0.8512 -0.7729  1.3155
 3695TIP3   OH232499   5.912   4.708  13.921  0.2618  0.3991  0.5225
 3695TIP3    H132500   5.868   4.753  13.849  0.0622  0.0474  0.4271
 3695TIP3    H232501   5.842   4.675  13.977  0.4148  1.0263  1.1080
 3696TIP3   OH232502   4.480   0.421  15.520  0.6155 -0.4756 -0.0753
 3696TIP3    H132503   4.559   0.392  15.475  1.1838  0.6382  0.1658
 3696TIP3    H232504   4.412   0.419  15.453  0.6930 -1.9743 -0.1548
 3697TIP3   OH232505   6.598   5.741  14.329 -0.2916  0.3211 -0.6414
 3697TIP3    H132506   6.663   5.793  14.283 -1.0623 -0.5813 -2.8776
 3697TIP3    H232507   6.617   5.651  14.303  0.0529 -0.4350  1.9199
 3698TIP3   OH232508   2.674   4.286   5.974 -0.4992  0.4008 -0.5869
 3698TIP3    H132509   2.611   4.231   5.928 -0.8162  0.2627  0.0007
 3698TIP3    H232510   2.625   4.323   6.047  0.0864  0.3317 -0.1516
 3699TIP3   OH232511   6.340   5.643  12.604 -0.0820  0.2077  0.1616
 3699TIP3    H132512   6.261   5.682  12.642  0.0984  0.5401  0.1959
 3699TIP3    H232513   6.400   5.717  12.591  0.7572 -0.2277  1.4257
 3700TIP3   OH232514   5.587   2.971   1.112  0.1319  0.4721 -0.3215
 3700TIP3    H132515   5.570   2.917   1.035 -0.6432  1.9116 -1.2122
 3700TIP3    H232516   5.501   2.990   1.148  0.4242  0.7278  0.2616
 3701TIP3   OH232517   4.404   4.512  15.696 -0.1561  0.6561 -0.4635
 3701TIP3    H132518   4.459   4.579  15.655 -1.1764  0.8808 -1.5318
 3701TIP3    H232519   4.465   4.445  15.725  0.6354  0.2874 -2.7734
 3702TIP3   OH232520   4.492   3.572   4.846 -0.0299 -0.0541 -0.4654
 3702TIP3    H132521   4.411   3.622   4.856 -0.0459 -0.4885  4.2021
 3702TIP3    H232522   4.476   3.492   4.896  2.1284 -1.8186 -2.4338
 3703TIP3   OH232523   3.586   5.147  15.693 -0.3577 -0.1608  0.2189
 3703TIP3    H132524   3.513   5.199  15.728  0.4616  1.1664  0.0450
 3703TIP3    H232525   3.555   5.113  15.610 -0.8453  0.2218  0.2448
 3704TIP3   OH232526   4.808   6.378   2.402 -0.5651 -0.1048 -0.1413
 3704TIP3    H132527   4.862   6.370   2.324  0.5767  0.1598  0.5971
 3704TIP3    H232528   4.720   6.397   2.369  0.0816  0.9731 -1.3384
 3705TIP3   OH232529   5.828   5.475  11.482 -0.4207 -0.8630  0.0703
 3705TIP3    H132530   5.897   5.511  11.537 -0.7398 -0.2982  0.1165
 3705TIP3    H232531   5.787   5.408  11.535  1.6664 -3.0012 -0.8363
 3706TIP3   OH232532   5.353   0.349  13.587 -0.2532 -0.1370  0.0403
 3706TIP3    H132533   5.390   0.289  13.651 -1.3908 -1.3718 -0.4263
 3706TIP3    H232534   5.414   0.345  13.513  1.0915  1.3293  0.9915
 3707TIP3   OH232535   0.438   6.002   1.894 -0.5204  0.0597  0.3136
 3707TIP3    H132536   0.383   5.953   1.955  0.3398 -0.1097  0.9795
 3707TIP3    H232537   0.379   6.028   1.823 -1.5794  0.3502  1.2670
 3708TIP3   OH232538   5.910   2.204  14.786 -0.4006 -0.1109  0.2410
 3708TIP3    H132539   5.923   2.286  14.834 -1.3790 -0.4580  1.1193
 3708TIP3    H232540   5.982   2.148  14.815  0.6289  0.6045 -0.8105
 3709TIP3   OH232541   3.128   0.107   4.827 -0.1628 -0.3705  0.3784
 3709TIP3    H132542   3.208   0.072   4.866  1.5183  2.6465 -0.1070
 3709TIP3    H232543   3.105   0.182   4.880 -1.6223 -0.0696 -0.6069
 3710TIP3   OH232544   2.342   1.030  13.656 -0.1915 -0.6877  0.2432
 3710TIP3    H132545   2.304   0.943  13.668 -0.0363 -0.9898 -1.2281
 3710TIP3    H232546   2.282   1.089  13.702 -0.7721 -1.4765  0.5203
 3711TIP3   OH232547   0.607   1.239  15.801 -0.0037 -0.3200  0.4462
 3711TIP3    H132548   0.547   1.202  15.866  1.6060 -1.3781  1.3983
 3711TIP3    H232549   0.600   1.180  15.726 -0.4381 -0.2211  0.4086
 3712TIP3   OH232550   0.126   6.097   4.764  0.7798  0.1200 -0.0574
 3712TIP3    H132551   0.167   6.183   4.767 -0.8376  1.0692 -2.3873
 3712TIP3    H232552   0.066   6.101   4.690  0.4514 -2.9495 -0.1112
 3713TIP3   OH232553   5.451   2.971  15.314  0.3433  0.0245 -0.0463
 3713TIP3    H132554   5.510   3.042  15.289 -0.3009  0.1114 -1.4339
 3713TIP3    H232555   5.367   3.013  15.328  0.2916 -0.2762  0.5521
 3714TIP3   OH232556   0.005   3.599   0.043 -0.5909  0.4166  0.1535
 3714TIP3    H132557   0.076   3.534   0.048 -0.2104  0.7845 -0.3502
 3714TIP3    H232558   0.044   3.672  -0.004 -1.0683  0.9481  0.5760
 3715TIP3   OH232559   0.970   2.227   3.938 -0.0667 -0.3642 -0.4075
 3715TIP3    H132560   0.924   2.264   4.014  2.0338 -0.8907  1.2000
 3715TIP3    H232561   1.024   2.300   3.907  0.0944 -0.5429 -0.5407
 3716TIP3   OH232562   3.246   4.932  13.084  0.1486  0.2262 -0.3474
 3716TIP3    H132563   3.172   4.983  13.116  1.1679  1.0938  0.7067
 3716TIP3    H232564   3.217   4.899  12.999 -1.4945  0.4029  0.1012
 3717TIP3   OH232565   1.112   6.772   0.923  0.0365 -0.5628  0.1340
 3717TIP3    H132566   1.075   6.856   0.895 -0.3044 -1.4632 -2.3547
 3717TIP3    H232567   1.206   6.789   0.929 -0.2304  0.5839  2.1492
 3718TIP3   OH232568   5.813   1.130   3.022 -0.2526 -0.1436 -0.2314
 3718TIP3    H132569   5.834   1.222   3.039 -1.6005  0.4757 -1.6055
 3718TIP3    H232570   5.801   1.091   3.109 -2.7940  1.7961  0.4004
 3719TIP3   OH232571   2.217   4.121   1.442 -0.0276 -0.4087 -0.1345
 3719TIP3    H132572   2.193   4.141   1.352 -2.0567 -0.4900  0.3211
 3719TIP3    H232573   2.297   4.172   1.458 -0.1434  0.3171 -1.6855
 3720TIP3   OH232574   3.030   5.809  14.043  0.2617  0.4658  0.3203
 3720TIP3    H132575   2.959   5.784  13.983 -0.0150 -0.7341  1.1049
 3720TIP3    H232576   3.029   5.741  14.110  1.6754  0.8530  0.7657
 3721TIP3   OH232577   4.785   4.945  11.377  0.6118 -0.1765 -0.3423
 3721TIP3    H132578   4.774   5.011  11.308  1.6174 -0.4214 -0.7453
 3721TIP3    H232579   4.786   4.862  11.330 -1.2094 -0.5623  0.2072
 3722TIP3   OH232580   4.562   4.271  11.782 -0.2897 -0.7121 -0.2533
 3722TIP3    H132581   4.506   4.300  11.854 -1.0273 -0.9830 -0.7079
 3722TIP3    H232582   4.588   4.182  11.806 -0.1580 -0.6329 -0.1019
 3723TIP3   OH232583   2.634   2.888   2.126 -0.3390  0.1112  0.2086
 3723TIP3    H132584   2.693   2.946   2.078 -0.3619 -0.1986 -0.2042
 3723TIP3    H232585   2.620   2.932   2.210 -1.6762  1.5593 -0.7055
 3724TIP3   OH232586   3.362   4.348  13.473  0.0695 -0.0520  0.2112
 3724TIP3    H132587   3.359   4.444  13.464 -2.8472 -0.0874 -0.2839
 3724TIP3    H232588   3.383   4.317  13.385 -1.2835  0.1579 -0.2234
 3725TIP3   OH232589   0.078   1.338  14.532  0.1048 -0.2006  0.1232
 3725TIP3    H132590   0.081   1.433  14.541 -2.2583 -0.0284 -0.2007
 3725TIP3    H232591   0.127   1.319  14.453  0.2341  0.7949 -0.0429
 3726TIP3   OH232592   1.819   3.177  16.515  0.0506  0.1622  0.1033
 3726TIP3    H132593   1.768   3.210  16.589  0.6428 -1.1593  1.1650
 3726TIP3    H232594   1.907   3.211  16.530 -0.2284  1.5002 -1.1021
 3727TIP3   OH232595   2.851   6.470   0.407 -0.4121 -0.1566 -0.0587
 3727TIP3    H132596   2.887   6.501   0.491 -1.8455  1.3781  0.0429
 3727TIP3    H232597   2.757   6.486   0.414 -0.4875  0.5515 -2.1765
 3728TIP3   OH232598   1.109   3.925  13.227  0.0188 -0.6571 -0.7317
 3728TIP3    H132599   1.151   3.945  13.143  0.8670 -0.4476 -0.2737
 3728TIP3    H232600   1.088   3.832  13.222 -0.0180 -0.6288 -1.2049
 3729TIP3   OH232601   2.386   1.303   0.674  0.0811  0.3483  0.2999
 3729TIP3    H132602   2.404   1.254   0.595 -2.4508  2.8651 -2.0401
 3729TIP3    H232603   2.460   1.283   0.732  3.2460 -0.0191 -3.4648
 3730TIP3   OH232604   3.248   5.734  12.821  0.2118  0.0300 -0.1457
 3730TIP3    H132605   3.289   5.714  12.905  0.7382  3.0280  0.4369
 3730TIP3    H232606   3.154   5.734  12.840  0.3370  0.8819  0.5290
 3731TIP3   OH232607   5.539   0.711  16.797 -0.1855 -0.5212 -0.3755
 3731TIP3    H132608   5.585   0.752  16.724 -1.0612  1.2047 -0.0067
 3731TIP3    H232609   5.453   0.690  16.763 -0.1009 -1.0838 -0.2528
 3732TIP3   OH232610   2.220   2.996   4.734 -0.2527  0.2870 -0.1668
 3732TIP3    H132611   2.195   2.953   4.653 -1.2557 -0.1611  0.3565
 3732TIP3    H232612   2.212   3.089   4.716 -2.3819  0.1783 -0.0471
 3733TIP3   OH232613   2.837   5.376   0.542 -0.0773  0.2468 -0.0261
 3733TIP3    H132614   2.797   5.462   0.551  0.7684  0.6951 -0.3838
 3733TIP3    H232615   2.890   5.366   0.621 -3.0045 -1.5620  1.8859
 3734TIP3   OH232616   5.211   5.758   6.073  0.7432 -0.0210 -0.0316
 3734TIP3    H132617   5.264   5.691   6.116  3.3280  0.0458 -2.8696
 3734TIP3    H232618   5.224   5.837   6.127  1.3295 -0.6601  0.7844
 3735TIP3   OH232619   5.465   5.271  16.480 -0.3849  0.0821  0.1562
 3735TIP3    H132620   5.457   5.341  16.546 -0.3251 -0.1802  0.4461
 3735TIP3    H232621   5.383   5.274  16.431 -0.7378 -0.1860  0.7119
 3736TIP3   OH232622   6.286   0.136  14.562 -0.2174 -0.5723  0.2205
 3736TIP3    H132623   6.270   0.149  14.656  0.4599 -3.8328  0.9197
 3736TIP3    H232624   6.382   0.136  14.555 -0.2358  1.4070 -0.8761
 3737TIP3   OH232625   1.711   5.340   0.577  0.3391 -0.0090  0.2250
 3737TIP3    H132626   1.642   5.343   0.511  1.4335  0.3935 -0.9230
 3737TIP3    H232627   1.698   5.420   0.628  0.3770  0.4081 -0.4142
 3738TIP3   OH232628   6.402   3.409   5.037 -0.2034  0.1968  0.5485
 3738TIP3    H132629   6.342   3.337   5.055  0.0957 -0.1777  0.0720
 3738TIP3    H232630   6.422   3.446   5.123  1.1491 -1.5050  1.0122
 3739TIP3   OH232631   1.359   2.067  14.850  0.6671  0.8885 -0.2746
 3739TIP3    H132632   1.302   2.002  14.892 -2.1739  2.8948 -0.7237
 3739TIP3    H232633   1.362   2.040  14.758 -2.0529  2.1999 -0.8711
 3740TIP3   OH232634   5.107   3.927   3.996  0.0381  0.2705  0.4355
 3740TIP3    H132635   5.019   3.948   3.967 -0.4952 -0.6155  1.3524
 3740TIP3    H232636   5.164   3.964   3.929 -0.9914  1.4358  0.1758
 3741TIP3   OH232637   3.524   2.289   1.153  0.3500  0.3477 -0.2476
 3741TIP3    H132638   3.575   2.329   1.224  1.5248  2.7586 -2.2562
 3741TIP3    H232639   3.433   2.299   1.180  0.7986 -0.5464  1.7337
 3742TIP3   OH232640   4.637   6.747  11.660  0.3390 -0.1332 -0.2040
 3742TIP3    H132641   4.556   6.697  11.649  0.4317  0.1410 -2.6608
 3742TIP3    H232642   4.688   6.696  11.723 -1.3697 -0.7552  0.7256
 3743TIP3   OH232643   2.248   2.702  15.700  0.8065  0.1028 -0.1951
 3743TIP3    H132644   2.163   2.657  15.701  1.6469 -1.6130 -1.3626
 3743TIP3    H232645   2.283   2.687  15.788  0.8079 -1.0775 -0.3760
 3744TIP3   OH232646   1.971   5.837  12.674  0.1125 -0.0201  0.2658
 3744TIP3    H132647   2.016   5.773  12.728 -2.0174 -0.3170  1.8059
 3744TIP3    H232648   2.004   5.922  12.705 -0.0595 -0.2459  1.0884
 3745TIP3   OH232649   5.773   2.536   5.061  0.1174 -0.5223 -0.2681
 3745TIP3    H132650   5.703   2.548   5.126 -0.3836 -0.7185 -0.7668
 3745TIP3    H232651   5.772   2.616   5.010 -1.5670 -1.5544 -1.9981
 3746TIP3   OH232652   3.952   6.190  15.990  0.0182 -0.3055 -0.1590
 3746TIP3    H132653   4.045   6.175  15.969  0.1335 -0.5601  0.5133
 3746TIP3    H232654   3.948   6.185  16.085 -0.2500  2.2510  0.0195
 3747TIP3   OH232655   2.130   1.528   0.829 -0.0617 -0.0893 -0.0227
 3747TIP3    H132656   2.167   1.522   0.741  0.7167 -2.1513  0.3888
 3747TIP3    H232657   2.195   1.575   0.880 -0.6550  1.3942 -0.5781
 3748TIP3   OH232658   1.307   0.987  12.247 -0.2359 -0.2660  0.4358
 3748TIP3    H132659   1.267   0.975  12.333 -2.1700  2.5985  0.0988
 3748TIP3    H232660   1.359   1.067  12.255 -1.1373  0.5454 -1.1953
 3749TIP3   OH232661   0.213   3.668   2.328 -0.4830 -0.7424 -0.1213
 3749TIP3    H132662   0.152   3.724   2.376  0.4639 -1.0768  1.5509
 3749TIP3    H232663   0.223   3.712   2.243 -1.7599  0.1967  0.1730
 3750TIP3   OH232664   2.870   5.584   4.314  0.3335 -0.2048 -0.8678
 3750TIP3    H132665   2.810   5.516   4.343 -0.1479  0.2567 -0.7515
 3750TIP3    H232666   2.875   5.574   4.219 -1.3222  0.8348 -1.1098
 3751TIP3   OH232667   5.211   2.508   3.357  0.2817  0.0705 -0.2047
 3751TIP3    H132668   5.228   2.447   3.428  2.1613 -2.1118 -2.3318
 3751TIP3    H232669   5.125   2.483   3.323  0.4972 -0.6157 -0.2704
 3752TIP3   OH232670   6.166   1.877   0.571  0.0750  0.2640 -0.2816
 3752TIP3    H132671   6.225   1.948   0.548 -0.9993  1.2506 -0.0531
 3752TIP3    H232672   6.221   1.814   0.618  1.4372  0.0669 -2.0574
 3753TIP3   OH232673   2.584   2.009  11.345  0.6306  0.3885 -0.7317
 3753TIP3    H132674   2.626   2.069  11.407  2.1877  0.9396 -2.2220
 3753TIP3    H232675   2.492   2.032  11.347  0.5210 -0.0067  1.7584
 3754TIP3   OH232676   3.055   6.098   4.260 -0.3228 -0.1207 -0.3609
 3754TIP3    H132677   3.001   6.177   4.261 -0.5266 -0.2664  1.0296
 3754TIP3    H232678   3.145   6.131   4.253 -0.4363  0.2153 -0.2701
 3755TIP3   OH232679   2.634   1.052  14.860 -0.1789 -0.6508 -0.4915
 3755TIP3    H132680   2.669   0.969  14.829  2.3322  0.0198  0.3255
 3755TIP3    H232681   2.559   1.027  14.915  2.5830 -2.7701  2.6865
 3756TIP3   OH232682   1.431   4.051  13.253 -0.4464 -0.0748  0.0451
 3756TIP3    H132683   1.449   4.084  13.165  1.2719 -1.9413 -0.3985
 3756TIP3    H232684   1.518   4.028  13.287 -1.3106 -2.0475  1.0792
 3757TIP3   OH232685   4.983   0.847   1.460  0.0915 -0.0768 -0.2325
 3757TIP3    H132686   4.978   0.866   1.367 -1.8799  2.0064  0.2038
 3757TIP3    H232687   4.911   0.785   1.475  0.7791 -0.8734 -0.1705
 3758TIP3   OH232688   3.510   5.920   1.942  0.2495  0.4796  0.1883
 3758TIP3    H132689   3.545   5.991   1.888  2.6147  0.4533  1.5582
 3758TIP3    H232690   3.531   5.946   2.032 -1.9238 -0.3631  1.0204
 3759TIP3   OH232691   4.105   4.215  13.386 -0.9466 -0.3109  0.0218
 3759TIP3    H132692   4.020   4.208  13.341 -1.3059  0.2321  0.5941
 3759TIP3    H232693   4.155   4.277  13.332 -0.5431 -1.3864 -0.8592
 3760TIP3   OH232694   1.453   3.720   2.624  0.2639  0.8662 -0.2584
 3760TIP3    H132695   1.395   3.671   2.683  1.0458  0.2482  0.0252
 3760TIP3    H232696   1.541   3.701   2.657  0.8186 -0.4198 -2.2841
 3761TIP3   OH232697   3.149   5.461  14.479 -0.1159 -0.1346 -0.8987
 3761TIP3    H132698   3.105   5.381  14.449 -2.7258  1.0855 -0.5908
 3761TIP3    H232699   3.172   5.507  14.398  2.7059 -1.7483 -1.1268
 3762TIP3   OH232700   6.128   0.318  14.084  0.7543 -0.5520  0.4162
 3762TIP3    H132701   6.173   0.233  14.086  1.8600  0.0022 -0.1474
 3762TIP3    H232702   6.185   0.374  14.032  0.4389  0.7726  1.4541
 3763TIP3   OH232703   5.653   0.581  13.789  0.4950 -0.2141  0.0425
 3763TIP3    H132704   5.587   0.649  13.803  0.4183  0.1027 -1.6501
 3763TIP3    H232705   5.727   0.608  13.843  0.3499  1.0460 -0.3648
 3764TIP3   OH232706   6.343   3.262  15.815  0.0077 -0.8235  0.7651
 3764TIP3    H132707   6.287   3.311  15.876  0.1854 -1.3266  1.3423
 3764TIP3    H232708   6.356   3.321  15.741  0.0592 -0.0818  1.3657
 3765TIP3   OH232709   0.424   3.048   4.400 -0.2622 -0.0069 -0.5093
 3765TIP3    H132710   0.470   3.010   4.325  1.6277  2.3955 -0.7278
 3765TIP3    H232711   0.492   3.055   4.468 -1.9516 -2.2039  1.5367
 3766TIP3   OH232712   4.942   5.001   5.364  0.0844  0.1535 -0.4071
 3766TIP3    H132713   5.033   4.979   5.385 -0.2643  0.4465  1.5691
 3766TIP3    H232714   4.921   5.073   5.423 -1.3894  0.2008 -0.9584
 3767TIP3   OH232715   6.358   1.847  13.915  0.3994  0.0669 -0.3224
 3767TIP3    H132716   6.269   1.878  13.895 -0.9947 -2.1475  1.7942
 3767TIP3    H232717   6.402   1.924  13.952 -1.7965  0.5192  1.6404
 3768TIP3   OH232718   0.138   4.475  12.381 -0.1271  0.2143  0.3178
 3768TIP3    H132719   0.172   4.563  12.368 -0.5954  0.4652  0.7050
 3768TIP3    H232720   0.207   4.416  12.350  0.3359  0.7129  0.3958
 3769TIP3   OH232721   1.012   3.989   4.471  0.1464 -0.1335  0.1334
 3769TIP3    H132722   1.072   3.992   4.397  0.6144 -2.3119  0.3629
 3769TIP3    H232723   1.068   3.977   4.548 -0.3301  2.0184  0.9237
 3770TIP3   OH232724   4.207   0.324  16.463 -0.0947 -0.2116  0.1638
 3770TIP3    H132725   4.130   0.322  16.405  0.2299 -0.8740 -0.2625
 3770TIP3    H232726   4.208   0.236  16.503 -0.4445  0.3051  1.3642
 3771TIP3   OH232727   0.305   2.186  13.251 -0.4041 -0.4801 -0.0637
 3771TIP3    H132728   0.224   2.231  13.275 -0.0393  0.7520 -1.0131
 3771TIP3    H232729   0.338   2.235  13.175  0.3248 -2.0266 -0.7916
 3772TIP3   OH232730   4.370   5.325  11.652 -0.5248  0.2245 -0.4254
 3772TIP3    H132731   4.370   5.400  11.593 -0.9484  0.0043 -0.7119
 3772TIP3    H232732   4.388   5.250  11.595  1.7190  0.2875  0.1127
 3773TIP3   OH232733   5.143   4.404  16.916  0.0312  0.0545  0.4951
 3773TIP3    H132734   5.071   4.345  16.893  0.6134 -0.6644  0.4961
 3773TIP3    H232735   5.117   4.442  17.000 -0.4404 -0.0457  0.3966
 3774TIP3   OH232736   2.610   2.262  13.884 -0.4956  0.1236  0.0869
 3774TIP3    H132737   2.663   2.197  13.838 -0.6937  1.0290 -1.4897
 3774TIP3    H232738   2.574   2.214  13.959 -1.8484 -2.0725 -1.8224
 3775TIP3   OH232739   5.089   1.407   4.674  0.1177  0.3514  0.0474
 3775TIP3    H132740   5.073   1.496   4.642  3.0147  0.9218 -0.0953
 3775TIP3    H232741   5.054   1.407   4.763 -1.9567  0.8694 -0.7184
 3776TIP3   OH232742   5.650   3.892   4.194  0.5378 -0.3842  0.1673
 3776TIP3    H132743   5.629   3.984   4.213 -1.3170 -0.9315  0.9439
 3776TIP3    H232744   5.663   3.890   4.099  1.4888  0.8306  0.2493
 3777TIP3   OH232745   0.222   5.881  13.564 -0.4785  0.5697  0.6591
 3777TIP3    H132746   0.257   5.824  13.495  0.6957  1.2898  0.6417
 3777TIP3    H232747   0.268   5.854  13.643  0.5655  1.8900  0.5336
 3778TIP3   OH232748   5.898   2.302   2.029  0.2038 -0.1160 -0.8100
 3778TIP3    H132749   5.873   2.267   2.115 -0.6794 -2.2244 -1.8510
 3778TIP3    H232750   5.993   2.289   2.025  0.5916  1.8400  0.5692
 3779TIP3   OH232751   2.394   1.142   3.976  0.1410 -0.3065  0.2366
 3779TIP3    H132752   2.308   1.141   3.934  0.2522 -0.5849  0.0119
 3779TIP3    H232753   2.405   1.232   4.005  2.2232  1.3814 -4.8261
 3780TIP3   OH232754   0.046   0.571  11.773 -0.1189  0.6229 -0.0110
 3780TIP3    H132755   0.066   0.636  11.841 -1.0504  1.6286 -0.6593
 3780TIP3    H232756  -0.013   0.617  11.713  1.6322  0.2034 -2.2020
 3781TIP3   OH232757   0.220   6.076  11.963 -0.1297 -0.1923  0.2519
 3781TIP3    H132758   0.280   6.060  12.036  1.3327  0.9673 -0.6434
 3781TIP3    H232759   0.237   6.004  11.902  0.5522  0.2588 -0.1045
 3782TIP3   OH232760   4.920   6.750  11.805 -0.0372  0.5212 -0.5615
 3782TIP3    H132761   4.947   6.834  11.767 -0.6042  0.6163 -0.7653
 3782TIP3    H232762   4.964   6.684  11.752 -0.6802  0.6564 -1.2787
 3783TIP3   OH232763   6.250   6.433  13.971 -1.1456  0.4482  0.3780
 3783TIP3    H132764   6.299   6.485  14.035 -0.0998 -0.5078  0.3914
 3783TIP3    H232765   6.173   6.486  13.950 -0.9586  1.2513  1.6255
 3784TIP3   OH232766   4.295   0.230   4.178  0.9046  0.1899 -0.6826
 3784TIP3    H132767   4.305   0.257   4.269  0.3696 -1.3670 -0.1341
 3784TIP3    H232768   4.273   0.311   4.132  2.2147  1.1957  0.3724
 3785TIP3   OH232769   4.075   5.143  13.068  0.2430 -0.1755 -0.1923
 3785TIP3    H132770   4.154   5.092  13.086  0.3267  0.1963  0.5405
 3785TIP3    H232771   4.072   5.208  13.138 -1.3461 -0.9235  0.4738
 3786TIP3   OH232772   5.490   3.996   4.969 -0.1032 -0.2961  0.1397
 3786TIP3    H132773   5.555   3.938   5.009 -1.1683 -1.8117 -0.2483
 3786TIP3    H232774   5.435   4.023   5.042 -1.0979 -1.8106  0.0057
 3787TIP3   OH232775   0.344   2.911   0.439 -0.0712  0.4177  0.1158
 3787TIP3    H132776   0.302   2.862   0.368  1.4194 -0.2856 -0.3204
 3787TIP3    H232777   0.343   2.850   0.513 -1.6975  1.1787  0.7803
 3788TIP3   OH232778   3.358   4.351   1.677  0.3478 -0.3644 -0.2627
 3788TIP3    H132779   3.264   4.336   1.681  0.3199 -0.4516 -1.0500
 3788TIP3    H232780   3.395   4.267   1.650  0.8341 -0.8288  1.6621
 3789TIP3   OH232781   4.616   6.294  16.833 -0.0247 -0.4403 -0.4907
 3789TIP3    H132782   4.699   6.337  16.853  0.5122 -0.2884 -2.8331
 3789TIP3    H232783   4.562   6.363  16.794 -0.5470 -1.0125 -0.7942
 3790TIP3   OH232784   6.692   1.515   4.339 -0.0100  0.1103 -0.3796
 3790TIP3    H132785   6.721   1.605   4.350 -0.1489  0.4066 -2.0875
 3790TIP3    H232786   6.753   1.463   4.392 -0.5453  1.2520  1.4344
 3791TIP3   OH232787   2.640   5.581  10.647  0.4334  0.3796  0.2938
 3791TIP3    H132788   2.577   5.585  10.575  0.9115  0.6962 -0.1133
 3791TIP3    H232789   2.588   5.600  10.725  0.0660  0.8919 -0.0653
 3792TIP3   OH232790   3.975   0.163  16.086  0.2027  0.1200  0.0496
 3792TIP3    H132791   3.945   0.247  16.052  1.1819  0.7437  0.6740
 3792TIP3    H232792   4.056   0.145  16.038  0.5552  0.0561  0.6536
 3793TIP3   OH232793   1.974   0.227  12.314 -0.6220 -0.3453  0.0020
 3793TIP3    H132794   2.028   0.291  12.267  1.4364 -0.8104  1.5946
 3793TIP3    H232795   1.895   0.276  12.339 -0.0238  0.9772 -0.6026
 3794TIP3   OH232796   2.611   6.403   6.710  0.5691  0.2069  0.1401
 3794TIP3    H132797   2.610   6.476   6.649 -0.1545 -0.3985 -0.5891
 3794TIP3    H232798   2.678   6.427   6.775  1.8279  0.5580 -1.2318
 3795TIP3   OH232799   6.475   5.056   4.810 -0.4169  0.3882  0.3119
 3795TIP3    H132800   6.479   5.065   4.905 -1.0801  0.8590  0.2992
 3795TIP3    H232801   6.392   5.011   4.794 -0.4195  0.5273 -0.0655
 3796TIP3   OH232802   2.099   3.013   4.186  0.6133 -0.2281  0.4083
 3796TIP3    H132803   2.175   3.001   4.129  0.0872  0.1823 -0.3813
 3796TIP3    H232804   2.042   3.074   4.139 -0.6497 -1.2505  0.5512
 3797TIP3   OH232805   6.030   3.980  11.158 -0.4022  0.5777 -0.1018
 3797TIP3    H132806   5.982   4.053  11.196 -1.0693  0.6519 -1.0607
 3797TIP3    H232807   6.082   4.019  11.088  0.9877  0.4813  0.8355
 3798TIP3   OH232808   2.875   2.613  16.954 -0.1354 -0.5134 -0.3852
 3798TIP3    H132809   2.918   2.674  17.014 -0.2821 -0.9225  0.1435
 3798TIP3    H232810   2.781   2.629  16.968 -0.1899 -1.2926  0.2228
 3799TIP3   OH232811   5.055   3.884   6.430 -0.3167  0.4039  0.9235
 3799TIP3    H132812   5.050   3.957   6.368  0.2811  1.5268  2.1682
 3799TIP3    H232813   5.075   3.808   6.375 -1.3593  1.0839 -0.4462
 3800TIP3   OH232814   6.277   3.565  16.812 -0.0500 -0.2543  0.1751
 3800TIP3    H132815   6.257   3.540  16.903  0.8681 -1.5240  0.0464
 3800TIP3    H232816   6.356   3.619  16.819 -0.6187  0.5931  0.2171
 3801TIP3   OH232817   5.247   6.758  11.983 -0.1960 -0.4772  0.9012
 3801TIP3    H132818   5.234   6.685  11.922 -0.2769 -0.3863  0.8093
 3801TIP3    H232819   5.312   6.814  11.940 -0.2872 -0.3898  0.8770
 3802TIP3   OH232820   1.815   1.879  13.756 -0.1138  0.3606  0.2485
 3802TIP3    H132821   1.901   1.837  13.758 -1.0283 -1.6701 -0.4466
 3802TIP3    H232822   1.755   1.812  13.788 -1.3703  2.0307  1.5941
 3803TIP3   OH232823   3.200   3.691   4.622 -0.2502 -0.2524  0.1528
 3803TIP3    H132824   3.135   3.621   4.607 -0.2014 -0.3314  0.3111
 3803TIP3    H232825   3.178   3.758   4.557  0.2569 -0.8031 -0.6026
 3804TIP3   OH232826   4.953   6.344   0.884  0.7617 -0.2109 -0.0957
 3804TIP3    H132827   5.007   6.395   0.824  1.4403 -0.8460 -0.0392
 3804TIP3    H232828   4.881   6.311   0.829  1.6736 -1.2512 -0.7202
 3805TIP3   OH232829   1.693   2.457   4.766  0.0020 -0.3445  0.1379
 3805TIP3    H132830   1.788   2.464   4.761 -0.1054  0.4496 -2.9990
 3805TIP3    H232831   1.677   2.368   4.797  1.7752 -0.6704  0.2071
 3806TIP3   OH232832   0.186   0.002  13.696 -0.2534 -0.0951 -0.0861
 3806TIP3    H132833   0.271   0.043  13.686 -0.0945 -0.8863 -2.6047
 3806TIP3    H232834   0.125   0.060  13.650 -0.5641 -0.9789 -0.8208
 3807TIP3   OH232835   5.962   3.891   0.348 -0.1484 -0.3566  0.0395
 3807TIP3    H132836   6.008   3.819   0.305 -1.1471  0.6374 -2.8948
 3807TIP3    H232837   6.024   3.923   0.414  1.1411 -2.4904 -0.0223
 3808TIP3   OH232838   6.026   2.912  16.856  0.2445 -0.3266 -0.3718
 3808TIP3    H132839   5.960   2.907  16.787 -1.3801  0.3742  1.0624
 3808TIP3    H232840   6.064   2.824  16.859 -0.6403 -0.7545 -1.2275
 3809TIP3   OH232841   6.515   2.868   4.865  0.7113 -0.0953  0.3987
 3809TIP3    H132842   6.499   2.777   4.841  0.0824 -0.1952  1.1563
 3809TIP3    H232843   6.549   2.908   4.785 -1.0422 -0.4792 -0.5930
 3810TIP3   OH232844   3.039   3.299   2.953 -0.3099 -0.2817 -0.0100
 3810TIP3    H132845   3.068   3.208   2.942 -0.8535 -0.5992  1.0100
 3810TIP3    H232846   2.997   3.321   2.870 -0.9954 -1.2965  0.0413
 3811TIP3   OH232847   4.273   3.180  12.363  0.1990  0.0734 -0.2618
 3811TIP3    H132848   4.237   3.129  12.290 -0.6922 -2.6735  1.9010
 3811TIP3    H232849   4.196   3.221  12.403  0.0452 -1.6385  1.3452
 3812TIP3   OH232850   5.474   0.690  11.512 -0.0003 -0.4486 -0.0371
 3812TIP3    H132851   5.512   0.773  11.486 -0.3191 -0.3465 -0.1837
 3812TIP3    H232852   5.435   0.707  11.598  1.2915 -0.8557  0.6575
 3813TIP3   OH232853   6.395   4.683   4.920 -0.0294  0.4143 -0.3439
 3813TIP3    H132854   6.354   4.751   4.867 -1.5807  0.0665  0.3410
 3813TIP3    H232855   6.327   4.657   4.983  0.9455 -0.8664  0.2397
 3814TIP3   OH232856   1.629   0.693   6.303  0.1398 -0.2503 -1.0599
 3814TIP3    H132857   1.539   0.671   6.327  0.0783 -1.1731 -2.0215
 3814TIP3    H232858   1.630   0.788   6.296 -0.3807 -0.1205  0.3468
 3815TIP3   OH232859   5.651   2.205   5.598 -0.6588 -0.0222  0.1778
 3815TIP3    H132860   5.739   2.231   5.569 -1.0975  2.4950  0.8280
 3815TIP3    H232861   5.667   2.156   5.679  0.2050 -1.0748 -0.6000
 3816TIP3   OH232862   5.017   1.412  13.219  0.1610 -0.4300 -0.0974
 3816TIP3    H132863   5.065   1.363  13.152 -0.7769 -1.4136 -0.0714
 3816TIP3    H232864   5.017   1.503  13.187 -0.2992 -0.8867 -1.4618
 3817TIP3   OH232865   5.219   3.988   2.160  1.1509  0.5018  0.3060
 3817TIP3    H132866   5.245   3.942   2.240  1.8215  0.1938 -0.0874
 3817TIP3    H232867   5.169   4.063   2.192  0.0129 -0.4901  0.9524
 3818TIP3   OH232868   0.904   4.008  16.155  0.3134  0.6352 -0.3756
 3818TIP3    H132869   0.864   3.926  16.184  0.7702 -0.3192 -2.2830
 3818TIP3    H232870   0.853   4.034  16.079 -0.1566  2.4462  0.5030
 3819TIP3   OH232871   0.717   0.223   0.015  0.3535  0.0463  0.1164
 3819TIP3    H132872   0.760   0.225  -0.071  1.7441  2.1303  0.7753
 3819TIP3    H232873   0.641   0.166   0.002  2.1097 -2.0969 -1.6767
 3820TIP3   OH232874   1.685   0.807   0.241  0.4257  0.2371  0.0421
 3820TIP3    H132875   1.670   0.762   0.324  1.3054  1.2627  0.7850
 3820TIP3    H232876   1.599   0.840   0.215  0.3192  0.8150  1.0935
 3821TIP3   OH232877   2.909   2.146  12.398 -0.1154 -0.1455 -0.4922
 3821TIP3    H132878   2.877   2.237  12.399 -1.0329 -0.4463  0.9293
 3821TIP3    H232879   2.835   2.095  12.430  0.3923 -1.4143 -1.2887
 3822TIP3   OH232880   3.829   1.313  12.517 -0.0341  1.2173 -0.1857
 3822TIP3    H132881   3.912   1.358  12.501  0.2604  0.3131 -1.2615
 3822TIP3    H232882   3.766   1.359  12.462  0.1567  0.6934 -0.8588
 3823TIP3   OH232883   4.026   5.280  14.709 -0.5083 -0.0112 -0.4337
 3823TIP3    H132884   4.049   5.210  14.769 -0.4500  0.7375  0.4359
 3823TIP3    H232885   4.069   5.257  14.627  1.1958  0.0240  0.4030
 3824TIP3   OH232886   4.353   1.920  16.668  0.7455 -0.4873  0.1151
 3824TIP3    H132887   4.349   1.946  16.576  1.0599 -2.5618 -0.5276
 3824TIP3    H232888   4.281   1.967  16.709 -0.3918 -0.7102 -1.5283
 3825TIP3   OH232889   2.908   0.540   6.024  0.2874 -0.3868 -0.3306
 3825TIP3    H132890   2.959   0.490   5.960 -0.5398  1.0476 -2.1978
 3825TIP3    H232891   2.944   0.628   6.021 -0.7092  0.0591  0.1212
 3826TIP3   OH232892   2.644   6.049   5.430  0.0908 -0.1509  0.0186
 3826TIP3    H132893   2.630   6.025   5.521  3.5552 -2.6564  0.1168
 3826TIP3    H232894   2.682   6.137   5.434 -0.0865 -0.1080  0.9627
 3827TIP3   OH232895   3.332   1.472  13.048 -0.6485  0.0651 -0.0212
 3827TIP3    H132896   3.347   1.378  13.053  2.6907  0.4349 -0.8281
 3827TIP3    H232897   3.339   1.503  13.138 -0.0263 -0.2660  0.0471
 3828TIP3   OH232898   4.588   0.238   2.761  1.0224 -0.4790 -0.4912
 3828TIP3    H132899   4.627   0.313   2.804  1.1537 -0.6065 -0.3851
 3828TIP3    H232900   4.644   0.164   2.787  0.2467 -0.7969  0.3194
 3829TIP3   OH232901   4.215   0.852  12.411 -0.3233  0.1569  0.0795
 3829TIP3    H132902   4.198   0.936  12.368 -2.9675 -0.3955 -0.0978
 3829TIP3    H232903   4.281   0.873  12.478 -0.6858  2.3115 -0.1649
 3830TIP3   OH232904   0.044   2.194   0.163 -0.1634 -0.2319  0.2154
 3830TIP3    H132905   0.054   2.109   0.120  1.8852 -1.1992  2.3444
 3830TIP3    H232906  -0.012   2.176   0.239  0.9833  0.0591  1.1721
 3831TIP3   OH232907   5.762   6.081  11.172  0.3558  0.2294  0.2462
 3831TIP3    H132908   5.803   6.036  11.246  1.4189  0.4743 -0.1776
 3831TIP3    H232909   5.740   6.167  11.206  1.9099  0.7641 -0.0147
 3832TIP3   OH232910   6.404   1.884   5.312  0.2587  0.2421  0.6157
 3832TIP3    H132911   6.473   1.819   5.327 -0.2314 -0.9756 -1.7850
 3832TIP3    H232912   6.444   1.948   5.253 -0.4144 -0.0981 -0.2378
 3833TIP3   OH232913   1.081   5.498   2.540  0.2452  0.0283  0.5020
 3833TIP3    H132914   1.161   5.509   2.488  1.4996 -0.8151  2.1444
 3833TIP3    H232915   1.019   5.457   2.480  1.4787 -0.4784 -0.4770
 3834TIP3   OH232916   0.089   5.417  16.801  0.1437  0.4717 -0.9172
 3834TIP3    H132917   0.103   5.337  16.752 -1.7978  0.0271 -0.8334
 3834TIP3    H232918   0.037   5.473  16.743 -1.3528  0.3213  0.1981
 3835TIP3   OH232919   2.435   1.898   0.097 -0.1541 -0.0698 -0.0646
 3835TIP3    H132920   2.390   1.832   0.044  0.5160 -0.1072 -0.5907
 3835TIP3    H232921   2.509   1.852   0.136 -0.8321 -0.1309  1.1981
 3836TIP3   OH232922   0.135   3.891  11.774  0.3575 -0.5464 -0.5705
 3836TIP3    H132923   0.052   3.878  11.820 -0.3524 -1.5186 -2.0204
 3836TIP3    H232924   0.127   3.836  11.696  2.0321  0.0166 -1.1769
 3837TIP3   OH232925   4.408   5.779  13.654 -0.5493  0.6175 -0.5849
 3837TIP3    H132926   4.363   5.844  13.599 -0.1766  1.9268  0.6095
 3837TIP3    H232927   4.497   5.813  13.664 -0.4945  0.1966  0.4784
 3838TIP3   OH232928   5.533   0.721   4.556 -0.0343 -0.1751 -0.4818
 3838TIP3    H132929   5.521   0.799   4.610 -1.1275 -0.9487  0.4327
 3838TIP3    H232930   5.592   0.750   4.486  0.6716  1.0959  0.5886
 3839TIP3   OH232931   5.506   6.424   4.787 -0.3464  0.1111 -0.1100
 3839TIP3    H132932   5.459   6.341   4.792 -0.3462  0.1186  0.0081
 3839TIP3    H232933   5.598   6.400   4.800 -0.0387 -0.1906 -2.3927
 3840TIP3   OH232934   6.373   4.230   2.023 -0.0393  0.5480  0.0141
 3840TIP3    H132935   6.416   4.315   2.035 -2.5465  1.7216  1.6184
 3840TIP3    H232936   6.359   4.223   1.929 -2.3977  3.4244  0.0118
 3841TIP3   OH232937   1.790   4.786   4.202 -0.1777  0.0992  0.0212
 3841TIP3    H132938   1.861   4.794   4.266 -0.8311  1.2324  0.6359
 3841TIP3    H232939   1.826   4.826   4.122 -0.2984  1.1620  0.4874
 3842TIP3   OH232940   3.775   4.447   2.886  0.4433  0.6370 -0.1305
 3842TIP3    H132941   3.865   4.437   2.916  0.7092 -0.2456 -1.1829
 3842TIP3    H232942   3.775   4.416   2.796 -1.1609 -0.6200  0.2446
 3843TIP3   OH232943   6.049   0.725   6.458  0.2049 -0.0693 -0.1083
 3843TIP3    H132944   5.956   0.748   6.451 -0.4407 -2.1781  0.7266
 3843TIP3    H232945   6.078   0.770   6.537  0.4010  1.9830 -1.2799
 3844TIP3   OH232946   0.582   3.552  11.006  0.0388  0.6659 -0.2707
 3844TIP3    H132947   0.496   3.521  10.974  0.5095 -0.9238 -0.1089
 3844TIP3    H232948   0.636   3.555  10.927  0.0304  0.9560 -0.2646
 3845TIP3   OH232949   5.817   2.923  13.119  0.1999  0.0301  0.0972
 3845TIP3    H132950   5.838   2.991  13.055  0.6323  0.5777  0.7995
 3845TIP3    H232951   5.827   2.841  13.071  0.9721  0.4070 -0.4173
 3846TIP3   OH232952   3.851   2.610   0.033 -0.1153  0.5961  0.3133
 3846TIP3    H132953   3.925   2.670   0.035 -0.5455  1.1142  0.8592
 3846TIP3    H232954   3.777   2.664   0.006 -0.9565  0.8460  2.8135
 3847TIP3   OH232955   3.096   2.474  16.683 -0.6307  0.9150 -0.2664
 3847TIP3    H132956   3.049   2.394  16.662  0.8301  0.4095 -1.7880
 3847TIP3    H232957   3.042   2.544  16.646  0.0649  0.2889 -2.6683
 3848TIP3   OH232958   5.606   0.148  13.158  0.3354  0.0139 -0.0520
 3848TIP3    H132959   5.679   0.188  13.111  1.1821 -1.7194 -0.3253
 3848TIP3    H232960   5.638   0.060  13.179 -1.6045 -0.7133 -0.0055
 3849TIP3   OH232961   0.300   0.546  12.938 -0.0064  0.6288  0.5223
 3849TIP3    H132962   0.306   0.633  12.977 -0.5819  0.5577  0.7728
 3849TIP3    H232963   0.207   0.531  12.926  0.1734  0.8321 -1.3306
 3850TIP3   OH232964   6.490   0.899   0.613 -0.2680 -0.1865  0.7824
 3850TIP3    H132965   6.507   0.945   0.695  0.9840 -0.6107  0.7758
 3850TIP3    H232966   6.506   0.807   0.633 -2.4367 -0.6353  0.7139
 3851TIP3   OH232967   1.024   0.923  10.634  0.1178 -0.2753 -0.2638
 3851TIP3    H132968   0.975   0.993  10.676 -0.3481 -1.1020  0.6024
 3851TIP3    H232969   1.114   0.934  10.665 -0.0909 -0.4752  0.4272
 3852TIP3   OH232970   3.586   0.025  15.745 -0.0980  0.6917 -0.0416
 3852TIP3    H132971   3.496   0.047  15.771 -1.7501 -1.6458 -3.0937
 3852TIP3    H232972   3.598   0.070  15.662  1.7018  1.0643  0.3710
 3853TIP3   OH232973   0.798   4.095   5.720 -0.2522 -0.2559  0.1876
 3853TIP3    H132974   0.775   4.176   5.765  1.9546  0.1361  0.7519
 3853TIP3    H232975   0.758   4.026   5.774 -2.5877  0.4070 -0.5852
 3854TIP3   OH232976   1.241   0.186  13.897  0.3908  0.3586 -0.0352
 3854TIP3    H132977   1.224   0.127  13.824  0.9662 -0.0479  0.1539
 3854TIP3    H232978   1.219   0.273  13.863 -0.6783  0.0239 -0.2375
 3855TIP3   OH232979   0.354   2.618  14.739  0.4125 -0.4301  0.2660
 3855TIP3    H132980   0.406   2.654  14.811 -0.7448  3.1043 -0.4290
 3855TIP3    H232981   0.412   2.622  14.663 -0.0659  1.4198 -0.0642
 3856TIP3   OH232982   1.859   6.674   5.619  0.4086  0.2005  0.5046
 3856TIP3    H132983   1.837   6.762   5.651 -2.8294 -0.3687  0.0940
 3856TIP3    H232984   1.880   6.686   5.527  2.0637  0.7667  0.9175
 3857TIP3   OH232985   2.243   0.222   6.639  0.6476 -0.4678 -0.0631
 3857TIP3    H132986   2.231   0.142   6.587  2.0633 -1.2466  0.7440
 3857TIP3    H232987   2.251   0.292   6.575  1.0486 -1.2117 -0.8407
 3858TIP3   OH232988   4.141   5.198  13.355  0.0111 -0.0019 -0.0899
 3858TIP3    H132989   4.169   5.107  13.366 -0.6442  0.0130  2.4482
 3858TIP3    H232990   4.182   5.245  13.428  1.7125  2.1479 -2.2850
 3859TIP3   OH232991   3.107   5.640   3.037  0.5078 -0.1005 -0.2774
 3859TIP3    H132992   3.054   5.687   2.972  0.9397 -0.7654 -1.1310
 3859TIP3    H232993   3.072   5.668   3.121  0.0110  0.8728 -0.7934
 3860TIP3   OH232994   3.698   2.016   3.867 -0.0676  0.3395  0.0117
 3860TIP3    H132995   3.654   2.044   3.787  1.7289  0.6464 -0.9066
 3860TIP3    H232996   3.743   1.935   3.844  0.4168  0.3938  0.7144
 3861TIP3   OH232997   0.883   1.796   2.165  0.2175  0.5560  0.4649
 3861TIP3    H132998   0.926   1.757   2.089  0.5657  1.1906  0.3371
 3861TIP3    H232999   0.882   1.890   2.148 -1.0594  0.5865  0.5484
 3862TIP3   OH233000   1.467   3.252  17.173 -0.0703 -0.3438 -0.1819
 3862TIP3    H133001   1.483   3.251  17.079 -1.2620  4.1313 -0.6374
 3862TIP3    H233002   1.536   3.308  17.208 -0.5347 -0.7217  1.4163
 3863TIP3   OH233003   5.666   5.115   2.806 -0.2618  0.3051 -0.5883
 3863TIP3    H133004   5.727   5.176   2.765  0.0747 -0.5818 -1.4506
 3863TIP3    H233005   5.582   5.161   2.806 -0.6537 -0.1461 -3.6850
 3864TIP3   OH233006   4.980   5.676   1.181 -0.6891 -0.0785  0.1950
 3864TIP3    H133007   4.987   5.696   1.087  0.0383  0.3685  0.3324
 3864TIP3    H233008   4.891   5.702   1.204 -0.7552  0.1560 -0.2999
 3865TIP3   OH233009   2.226   1.423  10.846 -0.0813  0.2304  0.2902
 3865TIP3    H133010   2.147   1.429  10.899 -0.6115 -1.3287 -0.2596
 3865TIP3    H233011   2.289   1.378  10.903 -0.1487 -0.0421  0.1531
 3866TIP3   OH233012   6.321   5.927  16.312  0.0266  0.5121 -0.0475
 3866TIP3    H133013   6.373   5.870  16.255 -0.7810 -0.7566  0.4519
 3866TIP3    H233014   6.253   5.963  16.254 -0.1924  0.0138 -0.1019
 3867TIP3   OH233015   1.075   5.164  15.836 -0.0996  0.1924  0.2191
 3867TIP3    H133016   1.132   5.157  15.913 -0.2871  1.8479  0.5479
 3867TIP3    H233017   1.103   5.245  15.793 -1.3820  0.3814 -0.2933
 3868TIP3   OH233018   4.903   0.988   5.477 -0.5400  0.0686  0.1740
 3868TIP3    H133019   4.892   0.960   5.568  1.4749  0.2172  0.5101
 3868TIP3    H233020   4.889   0.908   5.426  1.5103 -0.8151  0.8773
 3869TIP3   OH233021   5.672   1.413  11.893  0.6456 -0.0212  0.3877
 3869TIP3    H133022   5.641   1.484  11.949  0.3219  1.3766 -1.4699
 3869TIP3    H233023   5.608   1.408  11.822  0.6655 -2.2064  0.4452
 3870TIP3   OH233024   3.748   2.902  16.906  0.3146 -0.2654 -0.2862
 3870TIP3    H133025   3.754   2.906  17.002 -0.9173  1.2811 -0.2406
 3870TIP3    H233026   3.692   2.826  16.889  0.0889 -0.2255  0.2503
 3871TIP3   OH233027   2.044   3.567   4.507  0.4863  0.8479 -0.4929
 3871TIP3    H133028   2.124   3.618   4.521  0.4842  0.8013 -0.3209
 3871TIP3    H233029   1.981   3.631   4.472  0.3498  1.0562  0.1317
 3872TIP3   OH233030   3.891   3.855   4.351  0.0266 -0.2541 -0.5832
 3872TIP3    H133031   3.855   3.875   4.265  0.4236 -0.6859 -0.8514
 3872TIP3    H233032   3.825   3.798   4.392 -1.4840  2.0872  0.4818
 3873TIP3   OH233033   5.987   4.739  13.335 -0.1313  0.7735 -0.2700
 3873TIP3    H133034   6.065   4.703  13.294  0.2799  0.4780  0.7519
 3873TIP3    H233035   5.997   4.834  13.326  0.7325  0.7654  0.5456
 3874TIP3   OH233036   1.334   1.509  14.125 -0.1225 -0.2577 -0.6726
 3874TIP3    H133037   1.241   1.487  14.134  0.4000 -1.9830  1.1477
 3874TIP3    H233038   1.344   1.529  14.032 -2.6061  1.5922 -0.6481
 3875TIP3   OH233039   5.399   4.678  16.277  0.4381 -0.1667  0.4558
 3875TIP3    H133040   5.304   4.677  16.275  0.2104  1.9208  3.1539
 3875TIP3    H233041   5.424   4.592  16.311 -0.3356 -1.1811 -1.4231
 3876TIP3   OH233042   2.100   2.345  13.617 -0.5583 -0.4008 -0.1264
 3876TIP3    H133043   2.168   2.365  13.681 -0.9560  1.4865 -0.2442
 3876TIP3    H233044   2.040   2.286  13.664 -0.5899  0.5622  1.0908
 3877TIP3   OH233045   2.034   5.777  15.985 -0.0430 -0.0214 -0.4794
 3877TIP3    H133046   2.114   5.829  15.985  1.0777 -1.6523 -0.8040
 3877TIP3    H233047   2.035   5.731  16.069  0.6651 -1.8737 -1.4417
 3878TIP3   OH233048   3.577   0.617  11.656  0.1651 -0.3528 -0.7697
 3878TIP3    H133049   3.560   0.556  11.728  1.7594 -1.3936 -1.2147
 3878TIP3    H233050   3.589   0.701  11.699  0.4979 -0.8461  0.1476
 3879TIP3   OH233051   4.971   3.728   0.427  0.4641  0.0291 -0.2710
 3879TIP3    H133052   4.936   3.643   0.454  1.9145 -0.5585 -0.1359
 3879TIP3    H233053   5.032   3.707   0.356 -0.1290  1.1081 -1.1336
 3880TIP3   OH233054   5.936   2.067  14.012  0.1418 -0.3524 -0.4825
 3880TIP3    H133055   5.854   2.033  13.977  1.6339 -2.8149 -1.9318
 3880TIP3    H233056   5.929   2.056  14.106 -1.9434  1.4446 -0.3705
 3881TIP3   OH233057   2.783   0.846   1.855 -0.6120  0.1696  0.5238
 3881TIP3    H133058   2.821   0.930   1.828 -2.2701  0.8214  0.1325
 3881TIP3    H233059   2.691   0.851   1.829 -0.3756 -2.5202 -1.2297
 3882TIP3   OH233060   4.295   4.377   4.918 -0.4900 -0.1436 -0.1929
 3882TIP3    H133061   4.324   4.448   4.861  0.4460 -0.0003  0.4602
 3882TIP3    H233062   4.299   4.299   4.862 -2.8918  0.4641 -1.3591
 3883TIP3   OH233063   4.667   0.654  15.215 -0.3252  0.2305  0.2558
 3883TIP3    H133064   4.678   0.749  15.218 -0.8587  0.2840  0.5299
 3883TIP3    H233065   4.749   0.622  15.176 -0.3420  0.8339 -0.2834
 3884TIP3   OH233066   3.380   5.639  14.635 -0.4596 -0.0202  0.1331
 3884TIP3    H133067   3.302   5.586  14.655 -1.1247  0.9635  0.2196
 3884TIP3    H233068   3.441   5.577  14.595 -0.6917 -1.1500  1.4379
 3885TIP3   OH233069   0.138   1.998  12.027 -0.3630 -0.0742 -0.2397
 3885TIP3    H133070   0.164   1.906  12.035  0.9525  0.2729 -0.2252
 3885TIP3    H233071   0.123   2.026  12.117  0.4095  0.0236 -0.1284
 3886TIP3   OH233072   2.281   1.299   3.714  0.0303  0.2742  0.4184
 3886TIP3    H133073   2.328   1.242   3.653  2.7481  1.6380  1.0810
 3886TIP3    H233074   2.234   1.239   3.771 -0.3839 -1.1190 -1.3017
 3887TIP3   OH233075   6.486   3.919   1.363  0.3510 -0.6225 -0.3132
 3887TIP3    H133076   6.441   3.933   1.280 -0.5906 -0.1876  0.2591
 3887TIP3    H233077   6.534   3.837   1.351 -1.3310 -1.5921 -0.6244
 3888TIP3   OH233078   3.191   6.270   0.799  0.0865 -0.1051 -0.2368
 3888TIP3    H133079   3.278   6.276   0.761 -0.8668  0.8734 -2.4036
 3888TIP3    H233080   3.149   6.197   0.752  0.2908 -1.8795  2.1222
 3889TIP3   OH233081   3.147   1.450   2.127 -0.9959 -0.3307  0.7060
 3889TIP3    H133082   3.077   1.424   2.068 -0.3802 -0.2216 -0.0933
 3889TIP3    H233083   3.189   1.524   2.084 -0.4290 -0.3530  1.1961
 3890TIP3   OH233084   1.810   3.299   0.514  1.1698  0.5658  0.3296
 3890TIP3    H133085   1.823   3.226   0.576  1.7447 -0.2129 -0.6831
 3890TIP3    H233086   1.859   3.371   0.553  1.3464  0.1518  0.9006
 3891TIP3   OH233087   0.055   6.521   3.999  0.6381  0.4011  0.0989
 3891TIP3    H133088   0.073   6.431   3.970 -1.1158 -0.2254  0.7991
 3891TIP3    H233089  -0.027   6.544   3.954  0.2359  1.0513  1.1399
 3892TIP3   OH233090   1.925   2.818   1.955 -0.2761 -0.2962 -0.0503
 3892TIP3    H133091   1.916   2.823   1.860  0.0268  2.6674 -0.0119
 3892TIP3    H233092   1.836   2.803   1.987 -0.8087  1.2395 -0.7384
 3893TIP3   OH233093   3.711   6.215  11.651  0.6435  0.8467  0.1030
 3893TIP3    H133094   3.626   6.253  11.672  0.4808 -0.3229  1.6765
 3893TIP3    H233095   3.691   6.130  11.612  1.0442 -0.9356  3.4746
 3894TIP3   OH233096   2.326   6.423  16.676 -0.1004  0.1165  0.5146
 3894TIP3    H133097   2.399   6.442  16.734  2.0263 -1.9788 -1.2811
 3894TIP3    H233098   2.310   6.506  16.631  2.0554  0.3631  0.0783
 3895TIP3   OH233099   3.477   5.281   5.984 -0.2268 -0.0423 -0.1483
 3895TIP3    H133100   3.542   5.336   6.029 -0.6542  0.1839  0.1967
 3895TIP3    H233101   3.456   5.213   6.048 -0.7490  0.2103 -0.0534
 3896TIP3   OH233102   5.183   6.697  11.160 -0.0509 -0.6488  0.2421
 3896TIP3    H133103   5.120   6.701  11.088  0.0884 -0.8702  0.1055
 3896TIP3    H233104   5.246   6.631  11.132  0.9126  0.4145 -0.1671
 3897TIP3   OH233105   1.275   2.019  16.483 -0.4152  0.4440 -1.1430
 3897TIP3    H133106   1.332   1.950  16.450  0.5462  1.2899 -1.2929
 3897TIP3    H233107   1.190   1.976  16.496  0.6110 -1.2412  0.5544
 3898TIP3   OH233108   6.067   3.664   0.513 -0.4539 -0.5397  0.0717
 3898TIP3    H133109   5.973   3.682   0.519 -0.5550 -0.1672 -1.8416
 3898TIP3    H233110   6.103   3.700   0.593 -1.6679  1.4775 -0.2018
 3899TIP3   OH233111   3.912   5.492   2.013  0.0493 -0.1479  0.0762
 3899TIP3    H133112   3.853   5.467   1.941  0.8865 -0.5828 -0.4720
 3899TIP3    H233113   3.899   5.586   2.023 -0.8177 -0.2533  0.0349
 3900TIP3   OH233114   2.387   0.642   0.672 -0.9300  0.0314  0.4625
 3900TIP3    H133115   2.318   0.600   0.621  0.1483 -1.6819  0.3536
 3900TIP3    H233116   2.417   0.575   0.733 -0.3002  1.1760  1.4577
 3901TIP3   OH233117   6.224   1.584   3.883  0.3371  0.2690  0.8339
 3901TIP3    H133118   6.142   1.579   3.931  0.4708  1.1426  1.1815
 3901TIP3    H233119   6.258   1.672   3.903  1.4789 -0.1689  0.9173
 3902TIP3   OH233120   2.391   3.434   2.892  0.3375  1.1270 -0.2965
 3902TIP3    H133121   2.440   3.516   2.885  0.5351  0.8766 -2.6261
 3902TIP3    H233122   2.450   3.368   2.858 -0.5613  0.3332 -0.3539
 3903TIP3   OH233123   6.231   5.601  16.241  0.6362  0.2815  0.4049
 3903TIP3    H133124   6.275   5.679  16.207 -0.1151  0.9705  0.9732
 3903TIP3    H233125   6.301   5.548  16.278  1.3452  0.0014 -1.2357
 3904TIP3   OH233126   0.156   2.689   2.072  0.4162  0.4028 -0.6566
 3904TIP3    H133127   0.230   2.668   2.128  0.1616  0.7013 -0.2069
 3904TIP3    H233128   0.088   2.625   2.096  0.2555  0.6239 -0.5181
 3905TIP3   OH233129   0.920   0.100   2.296 -0.6161 -0.4783  0.0591
 3905TIP3    H133130   0.968   0.109   2.379 -0.2391  1.0963 -0.3084
 3905TIP3    H233131   0.886   0.010   2.298  2.4523 -1.7617  0.2944
 3906TIP3   OH233132   0.142   5.501  12.728 -0.8237 -0.1380  0.0546
 3906TIP3    H133133   0.126   5.459  12.813  1.8616 -0.8243  0.2978
 3906TIP3    H233134   0.062   5.551  12.711 -1.1725  0.6773  3.3615
 3907TIP3   OH233135   1.412   6.355  12.298  0.5222 -0.1057  0.1476
 3907TIP3    H133136   1.348   6.381  12.364 -0.7311  0.2081 -1.1302
 3907TIP3    H233137   1.399   6.261  12.288  0.7348 -0.1591  0.3639
 3908TIP3   OH233138   1.011   3.272   2.975  0.1961  0.1274  0.1494
 3908TIP3    H133139   0.996   3.182   2.945  0.0600 -0.4382  1.7673
 3908TIP3    H233140   0.924   3.304   2.999  0.4703 -0.1036  1.5730
 3909TIP3   OH233141   0.356   3.360  11.396  0.3634 -0.5485  0.5869
 3909TIP3    H133142   0.420   3.318  11.339 -0.4235  0.5307 -1.1775
 3909TIP3    H233143   0.347   3.448  11.360  0.1587  0.3489  2.6829
 3910TIP3   OH233144   4.613   4.361  16.245  0.2650  0.4726 -0.3309
 3910TIP3    H133145   4.660   4.300  16.187 -0.8549  0.5472 -1.3479
 3910TIP3    H233146   4.538   4.390  16.194 -0.6783  0.6791  1.1016
 3911TIP3   OH233147   0.972   3.029  11.271 -0.1697 -0.1560 -0.5598
 3911TIP3    H133148   1.065   3.007  11.281 -0.1589  0.5093  1.3028
 3911TIP3    H233149   0.928   2.974  11.336 -0.8714  0.6957 -0.3004
 3912TIP3   OH233150   4.107   6.647   6.391  0.0544 -0.3026  0.7964
 3912TIP3    H133151   4.032   6.600   6.355  1.4291 -1.3502 -0.8659
 3912TIP3    H233152   4.116   6.614   6.480 -0.6886 -1.1101  0.5838
 3913TIP3   OH233153   3.221   4.747   3.829  0.0827  0.1188 -0.2102
 3913TIP3    H133154   3.131   4.737   3.799  0.5189  0.7406 -1.8687
 3913TIP3    H233155   3.271   4.682   3.778  0.6227 -0.0058  0.4572
 3914TIP3   OH233156   4.387   1.863  14.349 -0.0969 -0.5359  0.6048
 3914TIP3    H133157   4.424   1.825  14.428 -1.8784  0.2527  1.8922
 3914TIP3    H233158   4.308   1.811  14.333  1.0708 -1.7534 -1.6599
 3915TIP3   OH233159   5.041   3.218   3.219 -0.1883 -0.3650  0.3665
 3915TIP3    H133160   5.050   3.188   3.128  0.9849 -1.9887  0.9703
 3915TIP3    H233161   5.120   3.269   3.235 -0.1668 -0.4750  0.6081
 3916TIP3   OH233162   5.555   2.247  17.045 -0.1624  0.1314 -0.0911
 3916TIP3    H133163   5.629   2.192  17.070 -0.2837  0.2168  0.4749
 3916TIP3    H233164   5.553   2.243  16.950 -0.5387 -1.3240 -0.0403
 3917TIP3   OH233165   0.506   2.698  10.797  0.2887  0.1003 -0.0827
 3917TIP3    H133166   0.471   2.671  10.882 -0.0138  0.8369  0.0393
 3917TIP3    H233167   0.560   2.625  10.768 -1.9601 -1.4126 -0.6405
 3918TIP3   OH233168   0.871   2.522  15.511 -0.4479 -0.1339 -0.4633
 3918TIP3    H133169   0.876   2.525  15.607  2.6224 -0.5794 -0.4883
 3918TIP3    H233170   0.879   2.613  15.484  2.0485 -0.2221 -0.2516
 3919TIP3   OH233171   0.553   2.510   1.496  0.2549  0.0594 -0.0184
 3919TIP3    H133172   0.467   2.549   1.510 -0.2807 -1.6804  1.9938
 3919TIP3    H233173   0.615   2.579   1.520 -0.6427  0.2373  1.9291
 3920TIP3   OH233174   5.776   6.236   4.171  0.6975  0.5333  0.4155
 3920TIP3    H133175   5.786   6.230   4.076  1.6890 -2.1617  0.6014
 3920TIP3    H233176   5.704   6.298   4.184  0.2753  0.6547 -2.0815
 3921TIP3   OH233177   3.767   3.586   5.802  0.1160  0.5055  0.3295
 3921TIP3    H133178   3.722   3.589   5.887  0.9535  1.9573  0.7618
 3921TIP3    H233179   3.823   3.510   5.807 -0.6345 -0.0403  0.6480
 3922TIP3   OH233180   4.916   3.374  13.467  0.2957  0.2063  0.6347
 3922TIP3    H133181   4.835   3.398  13.421  1.8624  1.3314 -1.7362
 3922TIP3    H233182   4.915   3.430  13.545 -1.6770 -0.5705  1.2350
 3923TIP3   OH233183   2.842   4.461  16.929 -0.2236 -0.1630  0.4501
 3923TIP3    H133184   2.862   4.379  16.884  2.0345  0.9508 -0.7486
 3923TIP3    H233185   2.786   4.435  17.002 -0.5240 -2.6014 -0.5350
 3924TIP3   OH233186   1.191   5.392   0.791 -0.2671 -0.3745 -0.2235
 3924TIP3    H133187   1.234   5.475   0.809 -1.5253  0.7348 -2.0131
 3924TIP3    H233188   1.262   5.333   0.764  0.4903  0.5034 -0.1587
 3925TIP3   OH233189   5.420   5.592   0.639  0.6413 -0.0683  0.2956
 3925TIP3    H133190   5.444   5.663   0.698  0.9763  0.9719 -1.0443
 3925TIP3    H233191   5.345   5.550   0.681 -1.2929  2.7412 -0.0696
 3926TIP3   OH233192   1.596   5.832   2.849 -0.4781 -0.0626 -0.5096
 3926TIP3    H133193   1.511   5.823   2.891 -0.3868  0.4848 -0.1871
 3926TIP3    H233194   1.634   5.910   2.890 -0.1594  0.1658 -1.2204
 3927TIP3   OH233195   2.060   4.980  16.135 -0.2932 -0.3356 -0.1198
 3927TIP3    H133196   2.098   5.068  16.138 -1.4000  0.1407  0.4846
 3927TIP3    H233197   2.081   4.948  16.047 -1.9737  1.5185 -1.2761
 3928TIP3   OH233198   5.903   0.289  14.745  0.7571  0.8238  0.4038
 3928TIP3    H133199   5.924   0.327  14.660  0.0569  0.7487  0.1961
 3928TIP3    H233200   5.846   0.215  14.725  0.4259  0.9270  0.9484
 3929TIP3   OH233201   0.130   5.199  17.251 -0.0552 -0.4808  0.2452
 3929TIP3    H133202   0.109   5.115  17.293 -1.6177 -0.6966 -0.8815
 3929TIP3    H233203   0.125   5.180  17.157  0.7461  0.6040 -0.0247
 3930TIP3   OH233204   1.206   4.853  14.794 -0.0975 -0.4578  0.1235
 3930TIP3    H133205   1.131   4.836  14.737  0.3880 -0.5623 -0.5111
 3930TIP3    H233206   1.222   4.947  14.785 -1.7843  0.1047  2.3607
 3931TIP3   OH233207   6.427   5.442   4.582 -0.4203 -0.0226 -0.0157
 3931TIP3    H133208   6.500   5.420   4.639 -0.6486  0.8855  0.6655
 3931TIP3    H233209   6.350   5.435   4.638 -0.7091  0.3474 -0.3555
 3932TIP3   OH233210   5.314   4.080   4.533  0.0585 -0.5214  0.3412
 3932TIP3    H133211   5.241   4.024   4.506  1.3766 -2.2960  0.2541
 3932TIP3    H233212   5.368   4.024   4.588  2.0351  0.3009 -0.6563
 3933TIP3   OH233213   5.276   5.776  15.164  0.0996 -0.4369  0.2117
 3933TIP3    H133214   5.362   5.816  15.177 -0.9531  1.6862  1.1810
 3933TIP3    H233215   5.294   5.693  15.121  2.6964 -0.4852  1.2378
 3934TIP3   OH233216   5.223   0.266   5.156 -0.1407  0.4076  0.4870
 3934TIP3    H133217   5.278   0.329   5.202 -0.2949  2.4021 -1.8869
 3934TIP3    H233218   5.133   0.297   5.170 -0.4427 -0.7742  1.3619
 3935TIP3   OH233219   3.928   3.298   4.393 -0.3176 -0.0879 -0.6981
 3935TIP3    H133220   3.875   3.347   4.330 -1.4416  1.3088  1.2120
 3935TIP3    H233221   3.880   3.308   4.476  1.0929 -1.8404  0.3749
 3936TIP3   OH233222   0.393   2.282  11.955 -0.4707  0.0204 -0.5175
 3936TIP3    H133223   0.348   2.210  11.909 -0.5591 -0.0182 -0.3697
 3936TIP3    H233224   0.326   2.351  11.960 -0.7132 -0.2687  0.2638
 3937TIP3   OH233225   3.202   0.156  11.849  0.7160  0.3648 -0.2569
 3937TIP3    H133226   3.274   0.181  11.792  0.0217 -1.3628 -2.0043
 3937TIP3    H233227   3.235   0.081  11.898  0.0660 -0.5817 -1.2336
 3938TIP3   OH233228   0.293   6.191  16.532  0.0870  0.1918  0.1699
 3938TIP3    H133229   0.291   6.262  16.468  0.7318  0.9623  0.9617
 3938TIP3    H233230   0.244   6.120  16.492 -0.5614  1.0838 -0.6600
 3939TIP3   OH233231   6.250   4.312  13.931  0.7136 -0.4282  0.4642
 3939TIP3    H133232   6.323   4.270  13.977  0.3297 -1.9649 -0.2616
 3939TIP3    H233233   6.270   4.300  13.838 -0.5800 -1.1414  0.2514
 3940TIP3   OH233234   5.070   2.026   5.881  0.3140 -0.4886  0.0224
 3940TIP3    H133235   5.144   2.000   5.937 -0.7998 -1.5774  1.0424
 3940TIP3    H233236   5.077   1.968   5.805  1.0150  0.0325 -0.3241
 3941TIP3   OH233237   3.296   4.667   5.619 -0.7852 -0.8511  0.2592
 3941TIP3    H133238   3.378   4.619   5.625 -1.4371 -1.9857  0.4459
 3941TIP3    H233239   3.258   4.640   5.535 -0.9946 -0.3894  0.2028
 3942TIP3   OH233240   0.019   4.842   4.335 -0.5891  0.0538 -0.0144
 3942TIP3    H133241  -0.023   4.888   4.262  0.9481  1.6731  0.0477
 3942TIP3    H233242  -0.018   4.882   4.413 -1.4866 -0.9891  0.1318
 3943TIP3   OH233243   2.827   1.375  12.929 -0.7699 -0.4816 -0.1488
 3943TIP3    H133244   2.743   1.331  12.943 -1.1108  0.7021  1.7826
 3943TIP3    H233245   2.819   1.459  12.975  1.5681 -0.4500  0.3319
 3944TIP3   OH233246   5.805   0.447   2.945 -0.9823  0.3789 -0.7632
 3944TIP3    H133247   5.735   0.507   2.920 -0.3688  0.4629 -2.3782
 3944TIP3    H233248   5.771   0.360   2.924 -0.5470  0.4346 -1.7551
 3945TIP3   OH233249   4.774   4.614  13.982 -0.2046  0.3196  0.3546
 3945TIP3    H133250   4.781   4.681  13.914  2.9660 -0.8544 -0.6922
 3945TIP3    H233251   4.745   4.662  14.060 -0.7274  2.3424 -1.0075
 3946TIP3   OH233252   2.263   5.638   3.306  0.4093  0.1183  0.0262
 3946TIP3    H133253   2.252   5.583   3.384 -0.3962 -0.5204 -0.5088
 3946TIP3    H233254   2.176   5.639   3.266  0.3112  2.1029  0.2025
 3947TIP3   OH233255   3.421   1.316   1.604  0.0331  0.1067 -0.2537
 3947TIP3    H133256   3.380   1.398   1.578 -0.4124 -0.2930 -0.8455
 3947TIP3    H233257   3.471   1.289   1.527 -2.2798 -1.7162 -1.2522
 3948TIP3   OH233258   0.962   5.637  14.794 -0.4354 -0.2309 -0.0615
 3948TIP3    H133259   1.053   5.623  14.819  0.1883  2.1142 -0.7540
 3948TIP3    H233260   0.967   5.680  14.708 -2.3174 -2.7442 -1.5906
 3949TIP3   OH233261   1.098   0.990   2.808  0.3572  0.2937 -0.0703
 3949TIP3    H133262   1.173   0.943   2.844 -0.4178 -1.0205 -0.1077
 3949TIP3    H233263   1.023   0.959   2.859 -0.3719  0.4072 -1.0414
 3950TIP3   OH233264   2.033   3.773  13.358  0.6868 -0.2387  0.0893
 3950TIP3    H133265   1.974   3.799  13.428 -0.4556  1.1939 -1.3138
 3950TIP3    H233266   2.041   3.852  13.303 -3.1204 -2.5479 -4.5859
 3951TIP3   OH233267   3.049   1.109  10.628 -0.1905  0.6037 -0.0146
 3951TIP3    H133268   3.089   1.071  10.550  1.3236 -1.3998  1.6258
 3951TIP3    H233269   3.119   1.157  10.671 -0.6710  0.6564  0.7344
 3952TIP3   OH233270   1.865   1.221  11.319  0.6618 -0.0195 -0.5223
 3952TIP3    H133271   1.847   1.177  11.236  0.0177 -0.5170 -0.1272
 3952TIP3    H233272   1.898   1.307  11.293  3.1978 -1.1378 -1.3305
 3953TIP3   OH233273   5.573   0.221   1.559  0.3834 -0.5203  0.2911
 3953TIP3    H133274   5.608   0.198   1.645  1.0531 -1.2421 -0.1686
 3953TIP3    H233275   5.479   0.234   1.574  0.4386 -0.9665  1.0646
 3954TIP3   OH233276   2.197   3.415  15.505 -0.6860  0.0788  0.7345
 3954TIP3    H133277   2.127   3.358  15.537  0.1599 -0.8138  1.0374
 3954TIP3    H233278   2.210   3.479  15.575 -1.4578  0.4944  0.5076
 3955TIP3   OH233279   5.924   1.225  11.471  0.4117  0.3890  0.1338
 3955TIP3    H133280   5.862   1.216  11.544  0.2369 -1.0763 -0.1755
 3955TIP3    H233281   5.957   1.315  11.480  2.7346 -0.5902  3.9360
 3956TIP3   OH233282   0.194   0.048  13.322  0.3562  0.3268 -0.2542
 3956TIP3    H133283   0.120   0.013  13.372  1.5631 -1.5357  0.3111
 3956TIP3    H233284   0.177   0.143  13.319 -2.9871 -0.1493 -1.7452
 3957TIP3   OH233285   6.080   3.265   1.434  0.6606 -0.1560  0.3594
 3957TIP3    H133286   6.042   3.350   1.411  0.4605  0.0675  1.4630
 3957TIP3    H233287   6.171   3.271   1.405  1.2620  1.2784  2.3496
 3958TIP3   OH233288   5.221   0.808  14.633  0.1487  0.1809  0.6038
 3958TIP3    H133289   5.297   0.859  14.607  1.4053 -0.9605  1.8940
 3958TIP3    H233290   5.253   0.718  14.641 -1.2676 -0.2977  1.4033
 3959TIP3   OH233291   6.044   1.419  16.712 -0.0345  0.0039 -0.1233
 3959TIP3    H133292   6.061   1.356  16.781  1.0611  0.8812  0.4453
 3959TIP3    H233293   6.117   1.407  16.650 -0.9259 -0.6791 -1.0797
 3960TIP3   OH233294   5.016   3.392  12.843  0.2786 -0.7508 -0.4843
 3960TIP3    H133295   4.932   3.398  12.796  0.3741  1.4796 -0.4774
 3960TIP3    H233296   4.990   3.377  12.934 -0.1455  0.3445 -0.4148
 3961TIP3   OH233297   4.655   1.569  13.203  0.0128 -0.2148 -0.2153
 3961TIP3    H133298   4.684   1.650  13.244  0.0705  0.3136 -1.2629
 3961TIP3    H233299   4.716   1.503  13.234  0.5135  0.3159 -0.0546
 3962TIP3   OH233300   1.012   6.077   0.614 -0.7016  0.4485 -0.6707
 3962TIP3    H133301   1.022   6.075   0.709 -2.0391 -0.3820 -0.5187
 3962TIP3    H233302   0.917   6.069   0.600 -0.4094 -0.9974 -2.1068
 3963TIP3   OH233303   3.402   3.188  14.389  0.3187 -0.1139 -0.8260
 3963TIP3    H133304   3.485   3.235  14.389  0.7762 -0.9108 -1.0734
 3963TIP3    H233305   3.338   3.253  14.417  1.0064  0.5364 -0.7355
 3964TIP3   OH233306   2.419   4.169   4.118 -0.0284  1.2755  0.2976
 3964TIP3    H133307   2.350   4.231   4.095 -1.4556 -0.0999  0.6775
 3964TIP3    H233308   2.418   4.105   4.046  0.7223  1.1252  0.4129
 3965TIP3   OH233309   4.910   2.688   3.475 -0.5265 -0.1166 -0.1651
 3965TIP3    H133310   5.003   2.683   3.499 -0.2088 -0.8858 -1.4539
 3965TIP3    H233311   4.891   2.781   3.474  0.4599  0.0981 -0.6774
 3966TIP3   OH233312   5.276   4.448   5.775 -0.6556  0.2412 -0.0542
 3966TIP3    H133313   5.205   4.418   5.717  0.8406 -2.2843 -0.7227
 3966TIP3    H233314   5.288   4.541   5.752 -2.0032  0.0489 -1.7741
 3967TIP3   OH233315   3.313   3.614   1.520  0.0942  0.1141  0.1680
 3967TIP3    H133316   3.397   3.633   1.562  0.6038 -1.0353 -0.2999
 3967TIP3    H233317   3.248   3.627   1.589  0.7634 -0.1421  0.8574
 3968TIP3   OH233318   3.667   4.395  12.133 -0.0653 -0.4230  0.0171
 3968TIP3    H133319   3.690   4.335  12.204  1.6962 -0.9205 -0.9125
 3968TIP3    H233320   3.688   4.482  12.167  1.5668 -0.7230 -0.1286
 3969TIP3   OH233321   3.790   0.191  11.601 -0.1320 -0.0468 -0.4033
 3969TIP3    H133322   3.736   0.192  11.680  0.4592 -0.2084  0.0084
 3969TIP3    H233323   3.834   0.276  11.602  1.0078 -0.6322  0.2378
 3970TIP3   OH233324   5.187   4.490  14.638  0.1495 -0.3888  0.7500
 3970TIP3    H133325   5.278   4.477  14.665 -0.6061 -0.9866  3.3687
 3970TIP3    H233326   5.136   4.433  14.697 -1.9406  0.0915 -0.4704
 3971TIP3   OH233327   3.990   0.058  15.265  0.1763  0.7587 -0.0765
 3971TIP3    H133328   3.941  -0.024  15.280 -1.6884  1.7061 -0.7475
 3971TIP3    H233329   4.079   0.037  15.294 -0.0801 -1.7086 -0.8189
 3972TIP3   OH233330   3.143   0.746   3.009  0.0665 -0.6471  0.3359
 3972TIP3    H133331   3.226   0.707   2.980 -0.6936 -0.7863 -1.8701
 3972TIP3    H233332   3.130   0.713   3.098  2.1184 -1.0177  0.5360
 3973TIP3   OH233333   1.607   2.253   0.091  0.1838  0.8144  0.1859
 3973TIP3    H133334   1.581   2.337   0.129 -0.5078  0.2826  0.9354
 3973TIP3    H233335   1.552   2.189   0.136  1.5308 -0.1724  0.4817
 3974TIP3   OH233336   3.277   0.429   4.813 -0.1956  0.5997  0.7919
 3974TIP3    H133337   3.308   0.380   4.889 -2.0886 -2.2449 -0.1086
 3974TIP3    H233338   3.350   0.427   4.751  0.5191  0.8480  1.6204
 3975TIP3   OH233339   6.498   3.892   5.404  0.5712  0.2961 -0.0174
 3975TIP3    H133340   6.469   3.975   5.367  0.7950  0.1588 -0.5147
 3975TIP3    H233341   6.418   3.848   5.432  0.4933  0.9184  0.7796
 3976TIP3   OH233342   3.828   5.129   1.158 -0.1049 -0.0362  0.0117
 3976TIP3    H133343   3.761   5.085   1.211 -1.3852  1.4330 -0.3082
 3976TIP3    H233344   3.822   5.086   1.073 -0.2055 -0.3174  0.1560
 3977TIP3   OH233345   1.906   3.901  15.841 -0.2265  0.2893 -0.6555
 3977TIP3    H133346   1.829   3.956  15.833 -0.2331  0.8251  1.9828
 3977TIP3    H233347   1.872   3.812  15.845 -0.8493  0.5602  1.1415
 3978TIP3   OH233348   5.453   1.226  14.309  0.3582 -0.0622  0.0888
 3978TIP3    H133349   5.530   1.258  14.356 -0.4480  0.2653  1.2454
 3978TIP3    H233350   5.384   1.288  14.332 -0.2867 -0.3972 -0.8566
 3979TIP3   OH233351   5.538   2.016   0.653  0.4562 -0.0951 -0.1979
 3979TIP3    H133352   5.580   1.949   0.600 -0.0519 -0.4150 -0.2096
 3979TIP3    H233353   5.608   2.076   0.678  0.8368 -0.3922 -0.5518
 3980TIP3   OH233354   3.537   2.448  10.400  0.0076 -0.0607  0.4134
 3980TIP3    H133355   3.616   2.469  10.349 -0.2157 -0.6920 -0.2182
 3980TIP3    H233356   3.466   2.493  10.354 -0.0177  0.4718  0.9568
 3981TIP3   OH233357   3.032   1.190   6.453 -0.1384  0.6340  0.1902
 3981TIP3    H133358   3.081   1.109   6.465  1.9185  1.8037  0.1678
 3981TIP3    H233359   3.099   1.258   6.443 -1.7515  2.6115  1.8091
 3982TIP3   OH233360   2.733   3.359  11.902 -0.5802  0.0781 -0.5543
 3982TIP3    H133361   2.639   3.346  11.915 -0.7594  1.3681 -0.4255
 3982TIP3    H233362   2.741   3.388  11.811 -0.4380  1.0238 -0.2514
 3983TIP3   OH233363   0.961   5.146  15.465  1.1761 -0.0538  0.1666
 3983TIP3    H133364   0.893   5.086  15.496  0.9288 -0.9206 -1.8946
 3983TIP3    H233365   0.923   5.188  15.388  2.5336  0.3381 -0.3294
 3984TIP3   OH233366   4.459   3.583   0.874  0.2954  0.8628  0.2794
 3984TIP3    H133367   4.533   3.641   0.859 -1.2754  2.4318 -1.8912
 3984TIP3    H233368   4.425   3.608   0.960  1.2368  1.3109  0.5217
 3985TIP3   OH233369   4.507   1.686   5.436  0.0421 -0.2821 -0.3543
 3985TIP3    H133370   4.483   1.600   5.403 -1.2026 -0.4628  0.9111
 3985TIP3    H233371   4.524   1.673   5.529  0.5015  0.7173 -0.2790
 3986TIP3   OH233372   4.598   6.291  13.070  0.4049  1.0087  0.1099
 3986TIP3    H133373   4.628   6.300  12.980  0.0606 -0.4208 -0.1810
 3986TIP3    H233374   4.677   6.300  13.123  0.9152  0.0675 -0.4709
 3987TIP3   OH233375   0.784   0.015   3.454  0.0752  0.4559 -0.1048
 3987TIP3    H133376   0.754   0.097   3.493 -2.4674  0.6232 -2.1397
 3987TIP3    H233377   0.707  -0.043   3.457  1.0398 -0.9457 -1.0697
 3988TIP3   OH233378   4.945   0.852  15.893 -0.0835 -0.3977  0.0759
 3988TIP3    H133379   4.982   0.918  15.951 -2.5400  3.0464 -1.8977
 3988TIP3    H233380   4.864   0.825  15.935 -1.1604  1.0530 -0.9897
 3989TIP3   OH233381   1.926   4.623  12.392  0.1657  0.4589 -0.4363
 3989TIP3    H133382   1.933   4.688  12.322 -1.3460  0.2160 -0.8447
 3989TIP3    H233383   1.839   4.635  12.428 -0.6772 -2.1413 -1.3676
 3990TIP3   OH233384   3.272   4.251   5.590  0.4453  0.2908 -0.1969
 3990TIP3    H133385   3.285   4.264   5.684  0.0296  2.5425 -0.3970
 3990TIP3    H233386   3.327   4.317   5.548 -0.1599  0.0025 -1.5070
 3991TIP3   OH233387   5.349   2.061  17.204 -0.2801 -0.3183  0.0125
 3991TIP3    H133388   5.292   2.117  17.152 -0.6339 -0.0064  0.7138
 3991TIP3    H233389   5.336   1.973  17.169 -0.1622 -0.0531 -0.7173
 3992TIP3   OH233390   0.703   3.189  16.165 -0.6901  0.3462  0.1416
 3992TIP3    H133391   0.663   3.204  16.251 -0.3299 -1.8361  0.7455
 3992TIP3    H233392   0.671   3.103  16.138 -0.3264  0.7367 -1.6625
 3993TIP3   OH233393   2.738   0.515   1.121  0.8240 -0.5190 -0.1924
 3993TIP3    H133394   2.799   0.586   1.100  0.5841 -0.3610 -0.3591
 3993TIP3    H233395   2.696   0.495   1.037  0.3185 -0.3199  0.0084
 3994TIP3   OH233396   6.442   6.575  12.556 -0.1343 -0.3772 -0.1603
 3994TIP3    H133397   6.386   6.652  12.570  0.7575  0.4283 -0.8579
 3994TIP3    H233398   6.443   6.564  12.461 -1.6848 -2.3811 -0.0185
 3995TIP3   OH233399   0.013   0.837   2.478 -0.0437  0.0836  0.1039
 3995TIP3    H133400  -0.076   0.862   2.454 -0.3442 -0.1287  0.9585
 3995TIP3    H233401   0.025   0.870   2.567  1.6393  2.3269 -0.8759
 3996TIP3   OH233402   2.672   1.397   5.822  0.3411 -0.0444 -0.0328
 3996TIP3    H133403   2.649   1.385   5.914  0.3489  1.6029  0.2041
 3996TIP3    H233404   2.589   1.420   5.780  0.9538  3.5714  0.4030
 3997TIP3   OH233405   2.362   1.862  10.371  0.0009  0.0602 -0.4536
 3997TIP3    H133406   2.276   1.842  10.332 -1.0230 -0.9572  2.0736
 3997TIP3    H233407   2.412   1.781  10.361  0.0054  0.0510 -0.3633
 3998TIP3   OH233408   4.862   3.417  12.135  0.1329 -1.0206 -0.1756
 3998TIP3    H133409   4.941   3.462  12.165  0.4540 -1.5071 -0.2804
 3998TIP3    H233410   4.888   3.374  12.053 -0.4805 -0.4642 -0.6779
 3999TIP3   OH233411   2.004   4.754   4.369 -0.0384  0.5717  0.0597
 3999TIP3    H133412   1.931   4.745   4.431  0.7207 -4.4568  0.6331
 3999TIP3    H233413   2.082   4.744   4.423  0.8168 -0.0159 -1.2634
 4000TIP3   OH233414   5.293   1.607  11.923  1.1457  0.4591  1.0218
 4000TIP3    H133415   5.319   1.532  11.976  1.0614  1.2364  2.2009
 4000TIP3    H233416   5.346   1.679  11.957 -0.3062  1.3924  1.3646
 4001TIP3   OH233417   4.135   6.246  15.363 -0.5495  0.6999 -0.4656
 4001TIP3    H133418   4.132   6.278  15.273  2.3046  0.5608 -0.7075
 4001TIP3    H233419   4.173   6.158  15.356  1.2368  1.3011  0.9503
 4002TIP3   OH233420   2.034   6.597  15.263 -0.0188 -0.0785 -0.8727
 4002TIP3    H133421   2.130   6.598  15.269  0.0056 -0.6399 -1.0683
 4002TIP3    H233422   2.004   6.637  15.345  0.3777 -0.6946 -0.4187
 4003TIP3   OH233423   0.207   5.513   6.175  0.1518  0.7374  0.4088
 4003TIP3    H133424   0.187   5.456   6.101 -0.6924 -0.8352  1.7871
 4003TIP3    H233425   0.140   5.582   6.169 -1.1889 -0.4662  0.7930
 4004TIP3   OH233426   3.887   0.981   5.003 -0.2143  0.1261 -0.2852
 4004TIP3    H133427   3.939   0.983   5.083  3.1934 -0.0891 -2.3266
 4004TIP3    H233428   3.871   1.073   4.982 -1.5002  0.1776  0.7932
 4005TIP3   OH233429   4.294   6.172  14.287 -0.1751 -0.1853 -0.3577
 4005TIP3    H133430   4.265   6.208  14.371  0.2039 -2.9136  1.0393
 4005TIP3    H233431   4.214   6.145  14.244 -0.2066 -1.3303  0.3943
 4006TIP3   OH233432   6.738   0.439   1.026  0.1425 -0.1418  0.0242
 4006TIP3    H133433   6.761   0.365   1.082 -0.0959 -0.0569  0.2341
 4006TIP3    H233434   6.801   0.507   1.050 -1.3190  0.6588  1.7651
 4007TIP3   OH233435   2.861   1.827  14.698 -0.2444  0.6895  1.1410
 4007TIP3    H133436   2.871   1.736  14.669  1.4133  1.3796 -0.6663
 4007TIP3    H233437   2.929   1.838  14.765 -0.3837  0.6201  1.2931
 4008TIP3   OH233438   4.300   0.140   1.855 -0.1670 -0.0774 -0.1837
 4008TIP3    H133439   4.363   0.210   1.871 -0.0469 -0.5483  1.5843
 4008TIP3    H233440   4.329   0.100   1.773  0.2799  1.3465 -0.7565
 4009TIP3   OH233441   4.263   1.657  16.455 -0.8391  0.0097 -0.0097
 4009TIP3    H133442   4.213   1.731  16.489 -2.0425 -0.5282 -0.5548
 4009TIP3    H233443   4.224   1.639  16.369 -0.5421 -1.2348  0.1042
 4010TIP3   OH233444   5.500   5.345   4.119  0.3378  0.6713 -0.2088
 4010TIP3    H133445   5.505   5.249   4.118  0.9920  0.7008 -0.4856
 4010TIP3    H233446   5.477   5.369   4.030 -0.0711  0.7679 -0.0808
 4011TIP3   OH233447   3.092   0.969  11.891  0.0790  0.0876  0.6420
 4011TIP3    H133448   3.040   0.911  11.835 -0.5280  0.6602  0.6022
 4011TIP3    H233449   3.174   0.982  11.843  0.0227 -0.3428  0.4260
 4012TIP3   OH233450   0.512   2.793   2.709 -0.1743 -0.1501 -0.5525
 4012TIP3    H133451   0.452   2.733   2.666 -0.8903  0.3997 -0.3513
 4012TIP3    H233452   0.483   2.794   2.801  1.5831 -1.6313  0.0662
 4013TIP3   OH233453   6.718   1.573  16.281 -0.6865  1.0114 -0.0341
 4013TIP3    H133454   6.776   1.559  16.356  0.8962  0.3436 -1.3254
 4013TIP3    H233455   6.777   1.592  16.208 -2.1734  1.5310 -1.1487
 4014TIP3   OH233456   2.621   0.384  15.623  0.1256  0.1165 -0.9948
 4014TIP3    H133457   2.582   0.408  15.707 -1.3180  1.6896 -2.0374
 4014TIP3    H233458   2.661   0.298  15.639 -2.6378 -1.0386  0.5618
 4015TIP3   OH233459   6.200   5.336   2.152  0.6647  0.1131  0.1689
 4015TIP3    H133460   6.197   5.432   2.151 -1.3805  0.1036 -0.9923
 4015TIP3    H233461   6.250   5.315   2.230  1.0227  2.1301  0.5517
 4016TIP3   OH233462   4.672   6.017  16.857  0.2453 -0.3654 -0.5680
 4016TIP3    H133463   4.655   6.111  16.844  1.4872  0.5240  2.9551
 4016TIP3    H233464   4.592   5.983  16.897  0.6700 -0.1477  0.5079
 4017TIP3   OH233465   5.616   2.734   6.290 -0.0871  0.2526  0.0683
 4017TIP3    H133466   5.565   2.815   6.293 -0.8318 -0.0743 -1.9486
 4017TIP3    H233467   5.576   2.679   6.358 -1.6209  0.4859 -0.5866
 4018TIP3   OH233468   6.426   4.919   1.397 -0.1121  0.1365 -0.6571
 4018TIP3    H133469   6.487   4.987   1.425  0.9405 -0.9637 -0.2527
 4018TIP3    H233470   6.399   4.875   1.477 -0.8387  0.0855 -0.9125
 4019TIP3   OH233471   3.889   4.540   1.231 -0.1963  0.3281 -0.1632
 4019TIP3    H133472   3.822   4.608   1.239 -0.8534 -0.5187  2.4412
 4019TIP3    H233473   3.843   4.458   1.248  1.2787 -0.4116  0.4796
 4020TIP3   OH233474   5.578   0.349  17.185 -0.0243 -0.2510  0.4038
 4020TIP3    H133475   5.562   0.255  17.170 -0.2373  0.0114 -1.1401
 4020TIP3    H233476   5.630   0.377  17.111  0.3876  0.7864  1.0618
 4021TIP3   OH233477   0.910   5.056  12.694 -0.6868  0.3572  0.5069
 4021TIP3    H133478   0.835   5.059  12.635  0.5994 -2.8147 -1.6154
 4021TIP3    H233479   0.907   4.967  12.731  2.8873 -0.6436 -1.1505
 4022TIP3   OH233480   0.975   3.444   5.976  0.0872 -0.0104 -0.3812
 4022TIP3    H133481   0.903   3.384   5.953  0.9441 -0.6145 -1.5860
 4022TIP3    H233482   0.955   3.470   6.066 -0.4556 -1.9240  0.1207
 4023TIP3   OH233483   2.063   4.653  15.411 -0.5583 -0.4362  0.4164
 4023TIP3    H133484   2.127   4.682  15.347 -0.2990 -0.2446  0.7563
 4023TIP3    H233485   2.111   4.593  15.468 -0.2199  0.9346  1.6468
 4024TIP3   OH233486   0.452   2.660  16.868  0.0853  0.0181 -0.1506
 4024TIP3    H133487   0.504   2.616  16.935  2.1019  0.3476 -1.4193
 4024TIP3    H233488   0.376   2.694  16.915  0.9870 -0.5263  1.7822
 4025TIP3   OH233489   5.066   2.307   1.178 -0.8848 -0.6659 -0.5282
 4025TIP3    H133490   5.116   2.318   1.259  0.5691 -2.5677 -1.0796
 4025TIP3    H233491   5.062   2.395   1.141 -0.1444 -0.0291  0.8070
 4026TIP3   OH233492   4.943   4.991  14.657  0.7663  0.3117  0.3118
 4026TIP3    H133493   4.875   4.932  14.688 -0.2542  0.9606 -0.6071
 4026TIP3    H233494   5.023   4.938  14.658  0.3421 -0.3412  1.7866
 4027TIP3   OH233495   1.401   6.222  11.209 -0.2949  0.0400 -1.0807
 4027TIP3    H133496   1.452   6.141  11.213 -2.0684 -1.2106 -1.8636
 4027TIP3    H233497   1.326   6.200  11.153 -1.2077  2.0304 -0.7511
 4028TIP3   OH233498   2.931   2.796   5.479  0.2809  0.3625 -0.0143
 4028TIP3    H133499   2.941   2.796   5.574 -2.6067 -0.4349  0.4021
 4028TIP3    H233500   2.911   2.705   5.457  1.8490  0.3468 -1.5498
 4029TIP3   OH233501   0.805   2.817  10.628 -0.0091  0.5873 -0.2647
 4029TIP3    H133502   0.761   2.828  10.543 -0.7851  1.6049  0.2318
 4029TIP3    H233503   0.774   2.733  10.661  1.4904 -0.5449 -1.6476
 4030TIP3   OH233504   1.018   2.579   2.160 -0.4443  0.5065 -0.4884
 4030TIP3    H133505   1.005   2.662   2.114 -1.3612  0.2296 -0.7480
 4030TIP3    H233506   1.039   2.604   2.250 -0.7997  1.0178 -0.5434
 4031TIP3   OH233507   2.660   6.242  12.637 -0.1024 -0.6642 -0.1878
 4031TIP3    H133508   2.640   6.274  12.725  1.2434 -0.4109  0.0423
 4031TIP3    H233509   2.615   6.302  12.579  1.4146  1.0127  0.2706
 4032TIP3   OH233510   2.439   4.760  16.261  0.0901  0.5888  0.4497
 4032TIP3    H133511   2.492   4.716  16.327 -2.0354  0.4846  2.1823
 4032TIP3    H233512   2.371   4.697  16.238 -0.6769  1.5437  0.0236
 4033TIP3   OH233513   5.470   2.501   5.640  0.2763  0.5394  0.4740
 4033TIP3    H133514   5.554   2.511   5.686  0.8677  0.0307 -0.4556
 4033TIP3    H233515   5.473   2.412   5.605 -1.4633 -0.1694  1.9794
 4034TIP3   OH233516   5.573   4.913  16.287  0.0673  0.0989 -0.1777
 4034TIP3    H133517   5.634   4.929  16.215  0.5020 -2.3850 -0.4580
 4034TIP3    H233518   5.561   4.818  16.288 -1.1184  0.1895  2.0961
 4035TIP3   OH233519   1.165   5.694  11.712  0.0272  0.0802  0.1654
 4035TIP3    H133520   1.161   5.621  11.650  0.2090 -0.6726  1.0117
 4035TIP3    H233521   1.201   5.767  11.662 -0.2914 -0.3725 -0.7355
 4036TIP3   OH233522   0.525   4.262   0.971 -0.3222  0.0572 -0.3347
 4036TIP3    H133523   0.479   4.237   0.892 -1.4082  0.1658  0.2511
 4036TIP3    H233524   0.485   4.345   0.998  0.2771  0.2078  0.1274
 4037TIP3   OH233525   1.280   0.163   0.650  0.1256  0.1636  0.0676
 4037TIP3    H133526   1.334   0.085   0.661 -1.1662 -0.8397 -0.4829
 4037TIP3    H233527   1.242   0.154   0.562  0.0328  1.4705 -0.0536
 4038TIP3   OH233528   4.083   3.879   2.397  0.2724  0.2227  0.3232
 4038TIP3    H133529   4.130   3.894   2.479  0.5917  0.7211  0.0569
 4038TIP3    H233530   4.109   3.791   2.370 -1.6803 -0.9321  1.9494
 4039TIP3   OH233531   1.481   2.160  16.362  0.6609 -0.2982 -0.2748
 4039TIP3    H133532   1.454   2.251  16.376 -0.8984 -0.4627 -1.8198
 4039TIP3    H233533   1.415   2.109  16.409  1.8968 -0.6677  1.1296
 4040TIP3   OH233534   2.965   5.997   3.651 -0.1332  0.4663  0.0369
 4040TIP3    H133535   2.970   5.982   3.746  1.1150 -0.7623 -0.1905
 4040TIP3    H233536   3.053   5.981   3.619 -0.3645  1.6233 -1.2571
 4041TIP3   OH233537   6.349   0.707  13.404  0.5280 -0.6509  0.3409
 4041TIP3    H133538   6.273   0.761  13.423  0.6151 -0.3689 -0.0904
 4041TIP3    H233539   6.336   0.628  13.456  0.5550 -0.0842  1.2236
 4042TIP3   OH233540   6.503   3.393  12.162 -0.4293  0.1456  0.5529
 4042TIP3    H133541   6.559   3.334  12.110 -1.0622  1.6914 -2.0784
 4042TIP3    H233542   6.427   3.339  12.184 -1.0180 -0.1402 -1.8258
 4043TIP3   OH233543   6.262   5.044  15.299  0.1246  0.3443 -0.2563
 4043TIP3    H133544   6.243   5.015  15.388 -2.1525  1.7097 -0.2330
 4043TIP3    H233545   6.221   4.978  15.243  0.1724  0.3383 -0.2843
 4044TIP3   OH233546   2.799   1.514  17.043 -0.4899  0.0472  0.2738
 4044TIP3    H133547   2.784   1.490  16.951 -1.0008 -1.2314  0.6650
 4044TIP3    H233548   2.720   1.484  17.088  0.6383 -1.2849  1.4633
 4045TIP3   OH233549   2.055   0.429  14.448  0.2703 -0.2163 -0.1182
 4045TIP3    H133550   2.085   0.355  14.395 -1.4704 -0.4986 -0.7779
 4045TIP3    H233551   2.099   0.505  14.410 -0.4317 -0.5040 -1.5722
 4046TIP3   OH233552   6.419   5.702   4.564  0.1798 -0.1552  0.1682
 4046TIP3    H133553   6.506   5.725   4.532 -0.2872  1.5511  0.0322
 4046TIP3    H233554   6.414   5.607   4.553  0.7373  0.0598 -3.1499
 4047TIP3   OH233555   5.049   1.640  11.760 -0.0057  0.2982  0.4649
 4047TIP3    H133556   5.116   1.673  11.819 -0.6101  1.8509  0.3342
 4047TIP3    H233557   5.063   1.688  11.678 -1.7318  1.2697  0.6793
 4048TIP3   OH233558   3.069   3.504   0.441  0.0422 -0.1964 -0.1111
 4048TIP3    H133559   3.149   3.498   0.389 -1.2151 -3.5634 -2.0193
 4048TIP3    H233560   3.054   3.414   0.472 -2.1228  0.6519  1.5859
 4049TIP3   OH233561   0.096   4.039   5.500  0.7645 -0.4193 -0.2016
 4049TIP3    H133562   0.162   4.013   5.436  0.0841 -2.7961 -0.0207
 4049TIP3    H233563   0.048   4.110   5.457  1.8458 -0.3368 -1.3284
 4050TIP3   OH233564   4.158   1.802  15.781 -0.1092  0.3879  0.7397
 4050TIP3    H133565   4.249   1.775  15.764  0.2565  1.8755  0.1220
 4050TIP3    H233566   4.161   1.844  15.866  0.0245  1.4115  0.2427
 4051TIP3   OH233567   1.355   2.555  17.242  0.3288 -0.2137  0.2631
 4051TIP3    H133568   1.435   2.605  17.222  0.6116 -0.1352  1.5479
 4051TIP3    H233569   1.361   2.537  17.335 -0.9475 -0.6050  0.2776
 4052TIP3   OH233570   0.129   4.312  11.388 -0.4152  0.1172 -0.2786
 4052TIP3    H133571   0.038   4.316  11.420 -0.9182  0.9769 -1.6940
 4052TIP3    H233572   0.179   4.359  11.454 -1.2454  0.8475 -0.1338
 4053TIP3   OH233573   0.494   1.194  13.706  0.8865 -0.4945  0.2716
 4053TIP3    H133574   0.490   1.219  13.613 -0.1119 -1.3205  0.0735
 4053TIP3    H233575   0.485   1.276  13.753  1.1580 -0.0922 -0.3599
 4054TIP3   OH233576   5.092   0.905  11.313  0.0111  0.1105 -0.1548
 4054TIP3    H133577   5.139   0.969  11.368  1.1184  0.8531 -1.8777
 4054TIP3    H233578   5.113   0.931  11.223  0.6805 -2.7886 -0.9477
 4055TIP3   OH233579   3.310   1.142  13.616 -0.6632  0.3110 -0.3188
 4055TIP3    H133580   3.299   1.073  13.682  1.9368 -0.0931 -0.2130
 4055TIP3    H233581   3.222   1.178  13.604 -1.6473 -1.3187  1.4816
 4056TIP3   OH233582   6.481   4.899   5.753 -0.3041 -0.2296  0.4390
 4056TIP3    H133583   6.419   4.966   5.725  0.1352  0.0091  0.0151
 4056TIP3    H233584   6.547   4.946   5.803 -0.3526 -0.4489  0.7126
 4057TIP3   OH233585   1.140   1.094  11.422 -0.1250  0.1121  0.4475
 4057TIP3    H133586   1.102   1.148  11.490 -0.8633  2.1656 -1.4802
 4057TIP3    H233587   1.178   1.156  11.360  0.9432 -1.6774 -0.7816
 4058TIP3   OH233588   3.257   0.952   1.713 -0.5913  0.1117 -0.3955
 4058TIP3    H133589   3.246   1.015   1.784 -0.6537 -0.8830  0.4893
 4058TIP3    H233590   3.348   0.965   1.685 -0.5646  0.5073 -0.1411
 4059TIP3   OH233591   2.189   3.990   3.453  0.2547  0.2311 -0.1406
 4059TIP3    H133592   2.129   4.008   3.381 -2.6057 -0.7127  1.8698
 4059TIP3    H233593   2.208   3.896   3.446 -3.1834 -0.8312  2.3809
 4060TIP3   OH233594   0.294   5.767  15.324 -0.0058 -0.4738 -0.6046
 4060TIP3    H133595   0.280   5.820  15.246  1.2829 -0.3848 -0.8014
 4060TIP3    H233596   0.389   5.760  15.332 -0.0216  0.8480  1.8334
 4061TIP3   OH233597   0.841   1.905   0.117 -0.1277 -0.2038 -0.2737
 4061TIP3    H133598   0.912   1.952   0.073 -0.7124 -0.0459 -1.0975
 4061TIP3    H233599   0.868   1.814   0.115  0.4473 -0.0479  0.2041
 4062TIP3   OH233600   0.846   2.293   5.626  0.1760 -0.2585 -0.1152
 4062TIP3    H133601   0.823   2.270   5.536 -1.6855  0.1492  0.2052
 4062TIP3    H233602   0.918   2.234   5.649  1.1037  0.0628 -2.0587
 4063TIP3   OH233603   2.721   2.135   4.498  0.4252 -0.5077 -0.0713
 4063TIP3    H133604   2.760   2.222   4.512 -0.2971 -0.3200  0.9415
 4063TIP3    H233605   2.627   2.150   4.508  0.3720 -1.6170  1.4278
 4064TIP3   OH233606   4.846   1.380  12.231  0.6222 -0.4458 -0.2924
 4064TIP3    H133607   4.884   1.389  12.144  0.2219 -0.2613 -0.4514
 4064TIP3    H233608   4.754   1.404  12.220  0.3698 -1.2208  0.0113
 4065TIP3   OH233609   0.194   0.383  12.052 -0.1743 -0.5383 -1.0821
 4065TIP3    H133610   0.125   0.426  12.002  0.6021  2.1779  0.0173
 4065TIP3    H233611   0.147   0.332  12.119 -1.1170 -0.7152 -1.8618
 4066TIP3   OH233612   0.401   5.354   1.645  0.3693 -0.2114  0.0129
 4066TIP3    H133613   0.386   5.440   1.683  0.4063 -0.0692 -0.2883
 4066TIP3    H233614   0.490   5.358   1.611 -0.2223  0.2398 -1.5733
 4067TIP3   OH233615   2.980   5.013  15.518  0.1562 -0.5536 -0.1736
 4067TIP3    H133616   2.962   5.004  15.425  0.6246 -1.6228 -0.1705
 4067TIP3    H233617   3.023   5.099  15.526  0.5334 -0.6583 -1.0010
 4068TIP3   OH233618   4.603   5.298  12.795 -0.3554 -0.2215 -0.2802
 4068TIP3    H133619   4.534   5.362  12.781 -1.1171 -1.1585 -0.9644
 4068TIP3    H233620   4.645   5.288  12.710  0.4935  0.1824  0.0813
 4069TIP3   OH233621   2.271   4.051   2.113  0.0785  0.5095  0.1450
 4069TIP3    H133622   2.364   4.031   2.126  0.2768  1.0328 -0.4009
 4069TIP3    H233623   2.267   4.147   2.117 -0.4343  0.4894  0.1391
 4070TIP3   OH233624   5.858   1.395  14.166 -0.6949 -0.8635  0.1524
 4070TIP3    H133625   5.920   1.445  14.219 -1.3929 -0.1950  0.3524
 4070TIP3    H233626   5.896   1.397  14.078  0.2446 -1.6115  0.5243
 4071TIP3   OH233627   5.679   5.672   2.353  0.0151  0.3424 -0.5394
 4071TIP3    H133628   5.644   5.704   2.435  0.5615 -0.7351  0.1405
 4071TIP3    H233629   5.691   5.578   2.367 -0.0433  0.1039 -1.9090
 4072TIP3   OH233630   2.420   3.728   2.635  0.8082  0.2529 -0.2710
 4072TIP3    H133631   2.333   3.690   2.619  1.0409 -0.7135  0.6339
 4072TIP3    H233632   2.413   3.767   2.722  1.2807  0.1370 -0.1786
 4073TIP3   OH233633   2.006   5.726   3.201  0.2384  0.5006  0.2668
 4073TIP3    H133634   1.924   5.773   3.211  1.0360  2.1858 -0.7543
 4073TIP3    H233635   2.026   5.731   3.108  0.7438 -1.2464  0.2435
 4074TIP3   OH233636   1.209   2.134  13.772  0.2526 -0.1776 -0.2777
 4074TIP3    H133637   1.272   2.071  13.739 -0.7355 -0.4483 -1.7168
 4074TIP3    H233638   1.130   2.120  13.720  0.0425  2.3471 -0.7803
 4075TIP3   OH233639   6.273   4.537   5.984 -0.3400  0.3946  0.0641
 4075TIP3    H133640   6.352   4.568   5.938 -0.8352 -0.1872 -1.2213
 4075TIP3    H233641   6.235   4.617   6.021 -0.6910  1.1455 -1.7822
 4076TIP3   OH233642   3.436   0.713   4.857 -0.7408 -0.7270 -0.0484
 4076TIP3    H133643   3.388   0.662   4.922 -0.4857  0.4023  1.0563
 4076TIP3    H233644   3.496   0.768   4.908  1.9019 -2.1823 -1.3765
 4077TIP3   OH233645   6.415   1.730   0.393 -0.2928 -0.0660  0.0739
 4077TIP3    H133646   6.465   1.649   0.401  0.6835  0.0666 -3.1019
 4077TIP3    H233647   6.334   1.704   0.347 -0.3788  0.6115 -0.1706
 4078TIP3   OH233648   4.543   5.676   3.592 -0.0749 -0.2424 -0.6167
 4078TIP3    H133649   4.564   5.751   3.536 -0.3044  0.3179  0.0363
 4078TIP3    H233650   4.621   5.664   3.647 -0.3224 -0.0199 -0.2173
 4079TIP3   OH233651   1.467   3.305  16.893  0.1645 -0.0465 -0.1776
 4079TIP3    H133652   1.515   3.224  16.878 -0.1502 -0.5508  1.4725
 4079TIP3    H233653   1.510   3.368  16.834  3.0245 -0.4117  1.3372
 4080TIP3   OH233654   0.611   0.046  14.554  0.0545  0.5628 -0.5492
 4080TIP3    H133655   0.582  -0.041  14.579 -0.2634  0.8555  0.1311
 4080TIP3    H233656   0.676   0.031  14.485  1.4076 -0.3113  0.8468
 4081TIP3   OH233657   1.511   0.280   0.528 -0.2294 -0.5321 -0.2749
 4081TIP3    H133658   1.448   0.256   0.595 -1.3773 -0.8988 -1.4524
 4081TIP3    H233659   1.517   0.203   0.472 -0.7057  0.4142 -1.6572
 4082TIP3   OH233660   4.135   0.639   3.263  0.2955  0.6238 -0.5213
 4082TIP3    H133661   4.135   0.702   3.335 -0.6267 -0.2875  0.3253
 4082TIP3    H233662   4.160   0.689   3.186 -0.2025  1.9713  0.1616
 4083TIP3   OH233663   5.733   5.381   0.384 -0.2597  0.3304  0.0486
 4083TIP3    H133664   5.788   5.313   0.344  1.8031  1.4777  0.7518
 4083TIP3    H233665   5.713   5.440   0.312 -0.2636  0.1097 -0.1354
 4084TIP3   OH233666   3.828   3.974   1.660 -0.7644  0.3923 -0.6138
 4084TIP3    H133667   3.919   3.997   1.642  0.8465 -3.6005  1.1959
 4084TIP3    H233668   3.801   4.035   1.729  1.2442  0.4898  0.1476
 4085TIP3   OH233669   5.125   5.145   1.241 -0.4887  0.2967  0.1245
 4085TIP3    H133670   5.087   5.150   1.329 -1.2344  0.5754 -0.1995
 4085TIP3    H233671   5.115   5.234   1.206  0.1441  0.2842 -0.1088
 4086TIP3   OH233672   4.946   3.152   2.300  0.1418  0.0027 -0.0387
 4086TIP3    H133673   4.924   3.107   2.219  1.1035  0.4626 -0.5744
 4086TIP3    H233674   4.962   3.082   2.363 -1.3551 -0.3560 -0.0161
 4087TIP3   OH233675   0.418   0.860   1.890  0.3878  0.3878  0.1846
 4087TIP3    H133676   0.503   0.830   1.923  0.3037  0.0859  0.1294
 4087TIP3    H233677   0.405   0.812   1.808 -0.0782  0.0383  0.4608
 4088TIP3   OH233678   0.606   6.384   1.510  0.2001  0.0002  0.3620
 4088TIP3    H133679   0.569   6.456   1.560  1.2559  1.1075 -0.4044
 4088TIP3    H233680   0.669   6.343   1.569 -0.3006 -0.2029  0.7530
 4089TIP3   OH233681   5.541   2.039  11.525 -0.3725  0.1281  0.5186
 4089TIP3    H133682   5.534   1.976  11.453 -1.7377  0.0798  0.6569
 4089TIP3    H233683   5.457   2.032  11.571 -0.2370  1.4641  1.0252
 4090TIP3   OH233684   2.113   4.028  13.306 -0.5388 -0.0947  0.2474
 4090TIP3    H133685   2.190   4.047  13.360  0.3505  0.9526 -1.3168
 4090TIP3    H233686   2.069   4.113  13.297  0.5813  0.3025 -2.4732
 4091TIP3   OH233687   3.397   0.870  16.078  0.1707 -0.1465  0.3788
 4091TIP3    H133688   3.314   0.918  16.085  1.1757  1.9073 -0.9821
 4091TIP3    H233689   3.422   0.852  16.169 -2.8125 -2.9022  0.8559
 4092TIP3   OH233690   0.843   4.960  14.984  0.3480  0.3688 -0.0857
 4092TIP3    H133691   0.771   4.946  14.922  1.0677  1.3169 -1.1711
 4092TIP3    H233692   0.803   5.006  15.058 -0.3281  0.0796 -0.2645
 4093TIP3   OH233693   0.673   5.132  15.643 -0.4411  0.2324 -0.0890
 4093TIP3    H133694   0.578   5.135  15.647 -0.4443 -0.1689  0.1818
 4093TIP3    H233695   0.693   5.064  15.578 -0.3470 -1.4698  1.6224
 4094TIP3   OH233696   3.290   4.030  11.755 -0.0714  0.4821 -0.2488
 4094TIP3    H133697   3.340   4.103  11.717 -0.4628  0.3949 -0.9433
 4094TIP3    H233698   3.244   3.992  11.681 -2.1865  1.3419  0.5494
 4095TIP3   OH233699   0.992   6.282   2.878 -0.2099  0.1244 -0.5088
 4095TIP3    H133700   1.048   6.355   2.850  1.3636 -1.3621 -1.4128
 4095TIP3    H233701   0.905   6.307   2.847  0.2648  1.6557 -0.7152
 4096TIP3   OH233702   2.655   4.823   4.447  0.4021 -0.1869 -0.0224
 4096TIP3    H133703   2.692   4.893   4.501  2.8653 -1.3955 -0.0153
 4096TIP3    H233704   2.606   4.868   4.378  0.4338  1.4575  0.9802
 4097TIP3   OH233705   1.515   3.317  14.609 -0.6443 -0.3415  0.5843
 4097TIP3    H133706   1.493   3.232  14.570 -0.9597 -0.1845  0.4139
 4097TIP3    H233707   1.447   3.331  14.675 -0.4786 -0.3117  0.7486
 4098TIP3   OH233708   3.583   3.550  17.020 -0.4153  0.3131  0.2627
 4098TIP3    H133709   3.517   3.604  16.976  0.9390  1.4109 -0.5107
 4098TIP3    H233710   3.666   3.595  17.004  0.4200 -0.4051  2.1500
 4099TIP3   OH233711   2.076   4.379  15.769  0.1430 -0.0176  0.1489
 4099TIP3    H133712   2.014   4.436  15.815 -1.5989 -2.0032  0.4283
 4099TIP3    H233713   2.086   4.303  15.827  2.0694 -0.2240 -0.3779
 4100TIP3   OH233714   3.388   5.149  11.712 -0.3282 -0.4242  0.4744
 4100TIP3    H133715   3.450   5.214  11.680 -0.6513  0.5785  1.8195
 4100TIP3    H233716   3.419   5.126  11.799 -1.8435  0.1448  1.2065
 4101TIP3   OH233717   4.106   3.267   2.440 -0.2263  0.0905  0.3441
 4101TIP3    H133718   4.104   3.359   2.466 -1.2198  0.1736  0.0028
 4101TIP3    H233719   4.177   3.229   2.493 -0.1637  0.9245  0.8823
 4102TIP3   OH233720   1.772   2.778  16.265  0.4352 -0.5557  0.0913
 4102TIP3    H133721   1.781   2.702  16.322  3.0433  0.3106  0.9947
 4102TIP3    H233722   1.854   2.781  16.216 -0.1747  0.8986 -0.8939
 4103TIP3   OH233723   6.521   5.839  12.327 -0.4616 -0.2858  0.7481
 4103TIP3    H133724   6.506   5.760  12.275 -1.8858  1.3586 -1.5356
 4103TIP3    H233725   6.602   5.875  12.291  0.3969 -0.8318  2.0465
 4104TIP3   OH233726   5.392   4.929   0.870  0.1615  0.5553  0.4353
 4104TIP3    H133727   5.347   4.918   0.786 -0.9420 -0.4824  1.1263
 4104TIP3    H233728   5.471   4.876   0.863 -0.7260 -0.8443  0.5830
 4105TIP3   OH233729   5.884   0.934   0.634 -0.1201 -0.6388 -0.1544
 4105TIP3    H133730   5.797   0.926   0.675 -0.5261  1.0020 -0.6414
 4105TIP3    H233731   5.869   0.990   0.558  1.1608 -1.3202 -0.9337
 4106TIP3   OH233732   3.447   4.205   1.017  1.0967 -0.4709 -0.2957
 4106TIP3    H133733   3.492   4.183   1.098 -2.3166 -0.2498  1.8279
 4106TIP3    H233734   3.384   4.134   1.004 -0.8030  1.2327 -0.7928
 4107TIP3   OH233735   2.720   0.873  11.830 -0.1211  0.1626  0.3088
 4107TIP3    H133736   2.790   0.811  11.810 -1.6997 -1.2017 -1.2239
 4107TIP3    H233737   2.672   0.883  11.747 -2.3686  0.2408  1.5512
 4108TIP3   OH233738   5.085   4.388  15.682 -0.5268  0.0320 -0.5068
 4108TIP3    H133739   5.158   4.361  15.738 -0.9597 -1.7918 -0.7545
 4108TIP3    H233740   5.009   4.345  15.720 -1.4405  1.5847 -0.4903
 4109TIP3   OH233741   0.893   6.141  15.012 -0.4111 -0.9562  0.1139
 4109TIP3    H133742   0.889   6.068  14.950 -1.5158 -2.4887  1.8968
 4109TIP3    H233743   0.980   6.135  15.051  0.1176 -0.2652 -0.9181
 4110TIP3   OH233744   5.635   1.576  14.466 -0.3516  0.1933 -0.0362
 4110TIP3    H133745   5.699   1.646  14.467 -0.0948  0.0636 -2.2600
 4110TIP3    H233746   5.551   1.621  14.457 -0.1548  0.2783 -1.9262
 4111TIP3   OH233747   0.113   4.060   2.111 -0.6421  0.1201  0.5316
 4111TIP3    H133748   0.093   4.138   2.162  0.9714  0.5045  0.6426
 4111TIP3    H233749   0.105   4.087   2.020  1.3331  0.8903  0.5337
 4112TIP3   OH233750   0.380   2.669  16.301 -0.3077  0.4229 -0.3330
 4112TIP3    H133751   0.447   2.607  16.273 -2.6638 -1.5409 -1.9777
 4112TIP3    H233752   0.325   2.620  16.362  0.3709  2.3917  2.0499
 4113TIP3   OH233753   2.574   4.437  11.017  0.1945  0.1167 -0.3419
 4113TIP3    H133754   2.613   4.482  11.092  0.3043 -1.8546  0.8569
 4113TIP3    H233755   2.642   4.437  10.951 -0.0891  2.3734 -0.7124
 4114TIP3   OH233756   2.068   4.328  11.524  0.7510 -0.1940 -0.3287
 4114TIP3    H133757   2.073   4.232  11.523  2.1791 -0.1472 -1.6679
 4114TIP3    H233758   2.146   4.356  11.571 -0.7774  0.3306  2.0422
 4115TIP3   OH233759   6.167   4.795   6.511 -0.0711  0.6889  0.2941
 4115TIP3    H133760   6.136   4.705   6.522  1.1535  0.3164  0.8696
 4115TIP3    H233761   6.256   4.786   6.477 -0.3910  1.7184 -0.8980
 4116TIP3   OH233762   2.056   4.890   1.715  0.3494  0.5932 -0.0947
 4116TIP3    H133763   1.970   4.880   1.756 -0.8310  1.0856 -2.3013
 4116TIP3    H233764   2.081   4.801   1.689 -1.4154  0.7861 -2.9319
 4117TIP3   OH233765   3.566   3.154  11.036 -0.3869 -0.1993  0.3807
 4117TIP3    H133766   3.600   3.228  10.985 -1.0281  1.1034  1.7730
 4117TIP3    H233767   3.482   3.185  11.071  0.0531 -1.0105  2.2870
 4118TIP3   OH233768   0.737   5.524  11.110 -0.2226  0.1877  0.2824
 4118TIP3    H133769   0.788   5.534  11.191  0.3611 -0.0260 -0.0570
 4118TIP3    H233770   0.736   5.612  11.072  0.6701  0.0153 -0.1678
 4119TIP3   OH233771   0.126   6.204   0.383 -0.4701  0.2814 -0.0164
 4119TIP3    H133772   0.141   6.115   0.416  0.6260  1.3202  2.5828
 4119TIP3    H233773   0.087   6.250   0.457 -0.1021  2.2068 -0.9667
 4120TIP3   OH233774   4.203   3.379  16.821  0.8976 -0.3869  0.0145
 4120TIP3    H133775   4.233   3.469  16.808  1.5191 -0.7426 -1.1203
 4120TIP3    H233776   4.250   3.328  16.755 -1.7064 -1.0688 -1.4587
 4121TIP3   OH233777   3.820   1.941   2.211 -0.0375 -0.3640  0.1876
 4121TIP3    H133778   3.797   2.033   2.218 -0.4947 -0.4459 -0.1319
 4121TIP3    H233779   3.777   1.912   2.130  1.6959 -0.3872 -0.7664
 4122TIP3   OH233780   1.190   1.894  11.662  0.3032 -0.4780  0.3304
 4122TIP3    H133781   1.260   1.848  11.709  0.8344 -1.4221 -1.2944
 4122TIP3    H233782   1.182   1.846  11.579 -2.2451 -0.3661  0.4447
 4123TIP3   OH233783   4.946   2.712  11.355  0.1771 -0.0658  0.5340
 4123TIP3    H133784   5.026   2.684  11.311 -0.9044 -1.6245 -0.5333
 4123TIP3    H233785   4.927   2.798  11.317  0.4791 -0.4086 -0.4331
 4124TIP3   OH233786   5.413   1.352   5.346  0.4923  0.5245  0.7023
 4124TIP3    H133787   5.440   1.350   5.438 -0.3699  0.7829  0.9665
 4124TIP3    H233788   5.336   1.408   5.344 -0.2202 -0.4508  0.0080
 4125TIP3   OH233789   2.547   2.850   1.689  0.3990 -0.4938  0.0920
 4125TIP3    H133790   2.536   2.868   1.783 -1.0213 -0.3793 -0.0693
 4125TIP3    H233791   2.476   2.899   1.647  2.1179  0.9945 -1.2541
 4126TIP3   OH233792   3.524   0.284  15.591  0.0325  0.4697  0.1766
 4126TIP3    H133793   3.440   0.306  15.552  0.7387  1.5614 -0.7776
 4126TIP3    H233794   3.516   0.313  15.682 -0.3338  1.3604 -0.1245
 4127TIP3   OH233795   5.098   2.420  12.593 -0.6963  0.3537  0.1248
 4127TIP3    H133796   5.065   2.429  12.682  1.7925  1.4921  1.0219
 4127TIP3    H233797   5.110   2.325  12.582  0.1931  0.2729  1.5142
 4128TIP3   OH233798   0.149   0.663   1.148  0.0019  0.0481  0.0032
 4128TIP3    H133799   0.056   0.683   1.139 -0.4014 -1.4802  0.5310
 4128TIP3    H233800   0.193   0.744   1.121 -1.4980  1.4560  1.5633
 4129TIP3   OH233801   0.958   2.017  14.944  0.1402  0.0503 -0.0914
 4129TIP3    H133802   0.975   2.063  15.026 -1.3819  1.2370 -0.3798
 4129TIP3    H233803   1.036   1.964  14.929  0.5135 -0.0783  2.0321
 4130TIP3   OH233804   4.545   2.418   5.942 -0.1701  0.0184 -0.3602
 4130TIP3    H133805   4.618   2.465   5.902  0.8524 -1.8931 -0.8417
 4130TIP3    H233806   4.513   2.477   6.010 -0.6920  2.5331 -2.6369
 4131TIP3   OH233807   2.821   1.725  13.683 -0.1907 -0.3265  0.0900
 4131TIP3    H133808   2.912   1.751  13.664 -0.3689 -0.1587 -0.5889
 4131TIP3    H233809   2.768   1.798  13.650 -0.5203  0.2511  1.7920
 4132TIP3   OH233810   6.461   0.069  13.582 -0.5133 -0.1863  0.2187
 4132TIP3    H133811   6.419  -0.016  13.565 -0.6056  0.0758 -0.9930
 4132TIP3    H233812   6.509   0.087  13.501 -0.4897  0.9086  0.4754
 4133TIP3   OH233813   5.325   1.932   4.109 -0.1927  0.5679 -0.4459
 4133TIP3    H133814   5.333   2.027   4.104  1.9193  0.3978 -1.1935
 4133TIP3    H233815   5.413   1.899   4.095 -0.6031 -1.4850  1.2684
 4134TIP3   OH233816   5.663   4.904  12.199 -0.6228  0.2649  0.1124
 4134TIP3    H133817   5.618   4.987  12.184 -1.0792 -0.3150 -1.9776
 4134TIP3    H233818   5.597   4.837  12.182  0.1328 -0.5454  0.3148
 4135TIP3   OH233819   0.026   1.561   1.278  0.0428 -0.2243 -0.1900
 4135TIP3    H133820   0.116   1.558   1.312  0.2274  1.1873 -0.4608
 4135TIP3    H233821   0.026   1.500   1.205  0.5750 -0.7968  0.2757
 4136TIP3   OH233822   5.944   1.910  15.830 -0.0043  0.4339  0.2022
 4136TIP3    H133823   5.959   1.991  15.781 -0.5182  1.4031  1.5798
 4136TIP3    H233824   5.860   1.924  15.874  0.9241  0.1003  2.2178
 4137TIP3   OH233825   0.630   3.465   0.262 -0.6660  0.0890  0.5065
 4137TIP3    H133826   0.628   3.453   0.167  1.4936  0.8771  0.3074
 4137TIP3    H233827   0.668   3.385   0.296  0.5406  0.6253  0.4768
 4138TIP3   OH233828   6.275   1.103   3.376  0.1100 -0.6451  0.3644
 4138TIP3    H133829   6.240   1.035   3.433  2.1024 -1.5446  0.5955
 4138TIP3    H233830   6.282   1.061   3.290  0.0121 -0.2628  0.1632
 4139TIP3   OH233831   5.526   4.238  16.132 -0.4696  0.2093 -0.2719
 4139TIP3    H133832   5.548   4.196  16.048  1.1167  1.5412 -0.5774
 4139TIP3    H233833   5.540   4.169  16.196 -1.7559 -0.8508 -1.0766
 4140TIP3   OH233834   3.725   0.391  12.019 -0.0186  0.1852 -0.0800
 4140TIP3    H133835   3.729   0.315  12.077  1.0725 -1.6353 -2.4302
 4140TIP3    H233836   3.779   0.457  12.063  1.9124 -1.5969  0.3582
 4141TIP3   OH233837   4.332   1.175  13.537  0.2895  0.5758  0.4157
 4141TIP3    H133838   4.411   1.130  13.508 -0.0249 -2.5276  3.6305
 4141TIP3    H233839   4.364   1.245  13.594  0.7297  0.9743 -0.3092
 4142TIP3   OH233840   5.852   1.001   4.632  0.3979  0.1941 -0.3074
 4142TIP3    H133841   5.918   0.974   4.696 -1.6745 -0.9105  1.4945
 4142TIP3    H233842   5.860   1.097   4.629  1.2740  0.1850  0.7882
 4143TIP3   OH233843   1.315   2.358  14.804  0.4680 -0.1344 -0.1278
 4143TIP3    H133844   1.322   2.348  14.709  1.7779 -1.2646  0.0578
 4143TIP3    H233845   1.335   2.271  14.838 -0.4011  0.1589  1.1786
 4144TIP3   OH233846   0.449   0.046   1.396 -0.3224  0.0404  0.1786
 4144TIP3    H133847   0.540   0.016   1.385 -0.0388  0.6319  0.7947
 4144TIP3    H233848   0.449   0.089   1.482 -0.2947  3.1476 -1.2379
 4145TIP3   OH233849   1.063   3.132   5.560  0.4760 -0.3804  0.3082
 4145TIP3    H133850   1.078   3.127   5.465  1.5785  1.2071  0.3539
 4145TIP3    H233851   1.137   3.183   5.593 -0.3567 -0.1509  1.9102
 4146TIP3   OH233852   1.809   2.729   0.658  0.3201  0.3614 -0.4712
 4146TIP3    H133853   1.742   2.662   0.647 -0.2752  1.0003 -0.8321
 4146TIP3    H233854   1.812   2.746   0.752  0.9786 -0.6626 -0.2921
 4147TIP3   OH233855   3.396   0.041  10.956  0.2846  0.2746  0.2043
 4147TIP3    H133856   3.479   0.088  10.943  0.7389 -0.9097 -1.5869
 4147TIP3    H233857   3.353   0.043  10.871 -0.3455 -1.2769  0.4458
 4148TIP3   OH233858   3.812   4.218  15.423 -0.1966  0.8224  0.5632
 4148TIP3    H133859   3.814   4.308  15.389 -0.1533  0.8488  0.6349
 4148TIP3    H233860   3.904   4.196  15.439 -0.1653  0.5631  0.0258
 4149TIP3   OH233861   1.834   1.420  15.027  0.4686 -0.5642  0.0701
 4149TIP3    H133862   1.776   1.402  15.101  1.1664 -1.4098  0.4206
 4149TIP3    H233863   1.821   1.513  15.009 -1.7663 -0.9252 -0.5221
 4150TIP3   OH233864   4.470   6.442  15.326  0.2878  0.2892 -0.6682
 4150TIP3    H133865   4.427   6.407  15.404  1.1411 -0.0295 -0.3365
 4150TIP3    H233866   4.556   6.400  15.324  0.6634  1.0574 -1.2230
 4151TIP3   OH233867   3.777   0.746  13.629 -0.1349 -0.1712  0.1125
 4151TIP3    H133868   3.707   0.734  13.566 -0.9789  1.2208  0.7263
 4151TIP3    H233869   3.735   0.733  13.714  0.5258 -0.0703  0.4631
 4152TIP3   OH233870   1.666   3.533   2.329  0.2390 -0.0872  0.0841
 4152TIP3    H133871   1.710   3.451   2.353 -0.3305 -0.3215  0.3343
 4152TIP3    H233872   1.690   3.594   2.400  0.1787 -0.2066  0.2073
 4153TIP3   OH233873   3.675   6.108  11.248 -0.0567 -0.2877  0.1674
 4153TIP3    H133874   3.667   6.017  11.219 -0.0602 -0.2509  0.0565
 4153TIP3    H233875   3.708   6.101  11.338 -0.7160 -0.4188  0.4032
 4154TIP3   OH233876   2.128   1.267   4.529 -0.0236  0.0832 -0.3157
 4154TIP3    H133877   2.192   1.222   4.585 -0.7271 -2.3126 -1.2866
 4154TIP3    H233878   2.045   1.223   4.547 -1.0101  1.7561 -0.5729
 4155TIP3   OH233879   4.581   5.618  16.267  0.3839 -0.3071  0.1719
 4155TIP3    H133880   4.617   5.529  16.260 -2.3805 -1.6679  1.3544
 4155TIP3    H233881   4.625   5.655  16.343  0.9432 -1.0281  0.2133
 4156TIP3   OH233882   0.727   1.127   3.113  0.2031 -0.2374  0.3516
 4156TIP3    H133883   0.799   1.066   3.131  0.6763 -0.1094 -0.9879
 4156TIP3    H233884   0.769   1.210   3.095 -0.3758  0.2050  1.0013
 4157TIP3   OH233885   0.113   0.627   4.745 -0.0509  0.2641  0.4275
 4157TIP3    H133886   0.179   0.563   4.772  0.0829  0.5321  0.7492
 4157TIP3    H233887   0.088   0.672   4.826 -0.9618 -0.1375  0.3819
 4158TIP3   OH233888   3.099   4.589  13.971  0.1235 -0.5977  0.4351
 4158TIP3    H133889   3.147   4.650  13.914 -0.0922 -1.7994 -1.0714
 4158TIP3    H233890   3.167   4.531  14.005  0.5534  1.2150  2.9830
 4159TIP3   OH233891   5.659   4.284  15.592 -0.4836  0.2264 -0.4431
 4159TIP3    H133892   5.591   4.299  15.657  0.5310 -1.5963  1.1513
 4159TIP3    H233893   5.721   4.356  15.603 -1.0185  0.6829 -0.3872
 4160TIP3   OH233894   2.327   6.410   0.022 -0.2219 -0.3229  0.3789
 4160TIP3    H133895   2.336   6.371   0.108 -0.4825 -2.1725 -0.3782
 4160TIP3    H233896   2.260   6.357  -0.022 -0.7740  1.1468 -0.6524
 4161TIP3   OH233897   4.936   4.013  16.770  0.6102 -0.7050  0.4424
 4161TIP3    H133898   4.995   3.952  16.725 -1.6813 -2.9142  0.2227
 4161TIP3    H233899   4.887   4.056  16.700 -0.0625 -1.0638  0.6820
 4162TIP3   OH233900   3.025   6.375  10.680 -0.4898  0.5736  0.0286
 4162TIP3    H133901   3.106   6.413  10.714  0.3207  0.0762 -1.2516
 4162TIP3    H233902   3.018   6.410  10.591 -0.1402 -1.5584 -0.8955
 4163TIP3   OH233903   5.705   5.417  12.433 -0.6993 -0.1543  0.1463
 4163TIP3    H133904   5.735   5.463  12.512 -1.9543 -0.3602  0.7771
 4163TIP3    H233905   5.649   5.346  12.467 -1.2556 -0.2430 -0.9250
 4164TIP3   OH233906   4.667   5.645  14.373  0.6710 -0.4336  0.2743
 4164TIP3    H133907   4.686   5.714  14.309  0.2773 -0.0358  0.5811
 4164TIP3    H233908   4.607   5.686  14.435 -1.2688 -1.6543 -0.7020
 4165TIP3   OH233909   3.137   6.520   4.629 -0.0243 -0.1964  0.3449
 4165TIP3    H133910   3.179   6.530   4.715 -0.4036  1.8913  0.3600
 4165TIP3    H233911   3.112   6.610   4.605 -2.3516 -1.0655 -0.7242
 4166TIP3   OH233912   3.720   3.287   2.140 -0.2552 -0.0338 -0.2771
 4166TIP3    H133913   3.811   3.263   2.127 -0.6594 -2.8290  1.2013
 4166TIP3    H233914   3.698   3.341   2.064  2.8560  1.7142 -0.1140
 4167TIP3   OH233915   2.792   6.710   1.292 -0.0033 -0.9445  0.1788
 4167TIP3    H133916   2.849   6.675   1.223 -0.0828 -1.2709  0.2790
 4167TIP3    H233917   2.754   6.633   1.333  0.0013 -0.7487  0.5554
 4168TIP3   OH233918   5.739   1.773  11.570  0.9729 -0.0973 -0.1256
 4168TIP3    H133919   5.655   1.728  11.569  1.9626 -2.0299 -0.7010
 4168TIP3    H233920   5.726   1.846  11.631 -0.8424 -0.8465  0.4601
 4169TIP3   OH233921   5.974   2.071   4.390 -0.2822 -0.3973 -0.2945
 4169TIP3    H133922   6.055   2.113   4.416 -0.0320 -1.4502  0.7059
 4169TIP3    H233923   5.928   2.054   4.472 -2.0533  1.1568 -0.8830
 4170TIP3   OH233924   1.279   3.790  16.614  0.3269  0.0884  0.3353
 4170TIP3    H133925   1.231   3.724  16.564  1.9939 -0.1612 -0.9981
 4170TIP3    H233926   1.211   3.845  16.653 -1.0722 -1.6586  0.4680
 4171TIP3   OH233927   3.728   1.706  16.842 -0.3565  0.2959 -0.1038
 4171TIP3    H133928   3.808   1.751  16.870  0.1133  0.1501 -1.1827
 4171TIP3    H233929   3.759   1.631  16.791 -1.1521 -0.8218  0.9925
 4172TIP3   OH233930   3.316   2.142   1.286  0.3401 -0.0505 -0.0608
 4172TIP3    H133931   3.304   2.090   1.365 -0.2572 -0.2113 -0.2559
 4172TIP3    H233932   3.292   2.231   1.313 -1.7979 -0.4315 -0.5483
 4173TIP3   OH233933   5.763   6.683   4.255  0.5806 -0.4687  0.4418
 4173TIP3    H133934   5.692   6.740   4.226  0.6974 -0.8573 -0.6610
 4173TIP3    H233935   5.839   6.740   4.261  0.1554 -0.0077  1.8275
 4174TIP3   OH233936   1.560   2.697   4.633  0.6242  0.0431 -0.2313
 4174TIP3    H133937   1.580   2.751   4.710 -0.2045  2.5641 -1.6642
 4174TIP3    H233938   1.603   2.613   4.651 -0.3010  0.1601  3.3697
 4175TIP3   OH233939   5.501   5.171  10.621  0.1629  0.6437 -0.2757
 4175TIP3    H133940   5.476   5.256  10.585 -2.9876  1.1729  2.6147
 4175TIP3    H233941   5.453   5.108  10.568 -1.1618  1.0854  0.3502
 4176TIP3   OH233942   4.651   4.681  15.776  0.4536  0.3609  0.0782
 4176TIP3    H133943   4.660   4.594  15.736 -0.5170  0.3288 -0.0786
 4176TIP3    H233944   4.740   4.702  15.806  0.4222 -1.3484  1.5155
 4177TIP3   OH233945   5.852   2.943   3.118  0.4129 -0.0829  0.2928
 4177TIP3    H133946   5.868   3.034   3.093 -0.0124  0.5342  2.1725
 4177TIP3    H233947   5.761   2.926   3.093  0.9944 -0.5874 -1.6569
 4178TIP3   OH233948   0.528   1.936  16.363  0.5643 -0.1939  0.4323
 4178TIP3    H133949   0.536   2.008  16.426 -2.2312 -1.2465  2.2027
 4178TIP3    H233950   0.517   1.858  16.418 -2.1662 -1.1496 -1.2612
 4179TIP3   OH233951   0.199   6.262   0.134 -0.0799 -0.1315 -0.0888
 4179TIP3    H133952   0.192   6.242   0.227  0.6899  0.3202  0.0761
 4179TIP3    H233953   0.292   6.250   0.114 -0.1533  0.2614 -0.6809
 4180TIP3   OH233954   4.160   4.622  13.131 -0.0347  0.1193  0.1672
 4180TIP3    H133955   4.162   4.606  13.037 -0.2147 -2.2911  0.5152
 4180TIP3    H233956   4.102   4.698  13.141 -0.6189 -0.0475 -1.5953
 4181TIP3   OH233957   1.191   2.503  11.280  0.7153  0.2219  0.2049
 4181TIP3    H133958   1.249   2.429  11.259 -0.3635 -0.6586  0.2241
 4181TIP3    H233959   1.237   2.550  11.350  1.3649 -0.5111  0.2938
 4182TIP3   OH233960   4.338   5.006  16.428  0.5867 -0.2970  0.4583
 4182TIP3    H133961   4.318   4.981  16.518  1.1975  0.6142  0.8658
 4182TIP3    H233962   4.432   4.988  16.418  0.8127  0.8167  0.4364
 4183TIP3   OH233963   4.915   2.175   3.061 -0.1255  0.1141  0.2704
 4183TIP3    H133964   4.972   2.156   2.986 -0.2566  1.5921 -0.2425
 4183TIP3    H233965   4.839   2.218   3.022 -0.0452  1.2074  1.2768
 4184TIP3   OH233966   1.962   3.117  14.548  0.3299 -0.0044  0.0802
 4184TIP3    H133967   1.901   3.191  14.555  0.8345  0.3512  0.8234
 4184TIP3    H233968   2.011   3.134  14.467  0.6243  0.6163  0.3851
 4185TIP3   OH233969   1.907   4.644   3.294  0.1421 -0.2951  0.4161
 4185TIP3    H133970   1.985   4.653   3.349 -0.3285 -0.0710  1.0594
 4185TIP3    H233971   1.904   4.726   3.245 -1.9306  1.6104  3.3837
 4186TIP3   OH233972   5.261   6.234  16.665  0.0032 -0.3476  0.1299
 4186TIP3    H133973   5.224   6.242  16.578  0.6780 -0.5795 -0.1877
 4186TIP3    H233974   5.258   6.140  16.683 -1.6908 -0.1656  1.0677
 4187TIP3   OH233975   0.571   4.887   3.435  0.2844 -0.2390  0.0494
 4187TIP3    H133976   0.593   4.973   3.471 -1.1473  0.2080 -0.0565
 4187TIP3    H233977   0.477   4.878   3.453  0.1683 -1.2705 -0.9815
 4188TIP3   OH233978   2.605   5.389  12.217 -0.4159  0.2911 -0.1718
 4188TIP3    H133979   2.521   5.425  12.244 -0.0604  0.1968  1.1205
 4188TIP3    H233980   2.645   5.458  12.164 -1.1126  0.5048 -0.4268
 4189TIP3   OH233981   4.390   5.199  11.424 -0.2032 -0.0581 -0.5547
 4189TIP3    H133982   4.413   5.132  11.359  1.1328  0.7483 -0.9733
 4189TIP3    H233983   4.313   5.243  11.387 -1.5470 -1.8007  0.0824
 4190TIP3   OH233984   0.709   0.691   2.103 -0.1024  0.0727 -0.0964
 4190TIP3    H133985   0.668   0.652   2.180 -0.6714  2.5762  0.9636
 4190TIP3    H233986   0.803   0.689   2.123 -0.0264 -1.5033 -0.4815
 4191TIP3   OH233987   4.736   6.132  14.792  0.7488 -0.4166  0.2855
 4191TIP3    H133988   4.808   6.110  14.851 -1.8925 -1.5820  3.3345
 4191TIP3    H233989   4.725   6.226  14.802  1.0324 -0.4349  0.8056
 4192TIP3   OH233990   3.508   3.578   1.875 -0.3418 -0.0713 -0.2930
 4192TIP3    H133991   3.506   3.673   1.871 -0.2518 -0.1074 -2.1214
 4192TIP3    H233992   3.418   3.552   1.893 -0.1886  0.3646  1.1871
 4193TIP3   OH233993   6.080   2.340  13.000  0.4489 -0.3593  0.4139
 4193TIP3    H133994   6.079   2.255  13.044 -0.1973  0.4465  2.0502
 4193TIP3    H233995   6.149   2.389  13.044  0.7006  0.0454 -0.4064
 4194TIP3   OH233996   5.972   5.758  11.924 -0.3397 -0.4349  0.1852
 4194TIP3    H133997   6.068   5.757  11.917 -0.3275  0.9304 -0.0276
 4194TIP3    H233998   5.944   5.685  11.868  0.4543  1.0137 -2.2669
 4195TIP3   OH233999   3.645   0.600   4.529  0.3022  0.2506  0.0363
 4195TIP3    H134000   3.645   0.548   4.448 -0.4445  3.9316 -2.6163
 4195TIP3    H234001   3.737   0.625   4.540  0.1276  1.3926 -0.9296
 4196TIP3   OH234002   1.420   4.519  16.783 -0.1360  0.1194 -0.3726
 4196TIP3    H134003   1.355   4.448  16.792  0.0914 -0.0971 -0.4322
 4196TIP3    H234004   1.477   4.490  16.712  1.0983 -0.5289  0.8427
 4197TIP3   OH234005   2.030   6.651  16.722 -0.2093  0.0502 -0.2835
 4197TIP3    H134006   2.028   6.556  16.707  1.4085 -0.0189 -0.1542
 4197TIP3    H234007   2.110   6.667  16.771 -0.0497  1.5885 -0.9863
 4198TIP3   OH234008   4.892   0.984   0.289  0.4935  0.7840 -0.1852
 4198TIP3    H134009   4.876   0.929   0.212  2.5353  0.0167 -0.1129
 4198TIP3    H234010   4.825   0.957   0.352 -1.6181  1.8536 -1.8409
 4199TIP3   OH234011   3.730   5.128   3.489 -0.0549  0.4132  0.1546
 4199TIP3    H134012   3.750   5.220   3.473  0.0482  0.5322  0.9642
 4199TIP3    H234013   3.733   5.118   3.584 -0.4282 -0.3448  0.0964
 4200TIP3   OH234014   0.088   5.058   3.790  0.4571 -0.1313  0.1924
 4200TIP3    H134015   0.128   5.042   3.704  0.3178 -1.0393  0.2856
 4200TIP3    H234016   0.153   5.110   3.838  1.5338 -1.5614  0.3367
 4201TIP3   OH234017   4.200   5.748  15.014 -0.2621 -0.4969 -0.1022
 4201TIP3    H134018   4.240   5.736  15.101 -1.1325 -1.2325  0.2136
 4201TIP3    H234019   4.238   5.829  14.981 -0.5849  0.2783  1.3555
 4202TIP3   OH234020   3.373   4.376  11.968 -0.2951  0.0858 -0.2396
 4202TIP3    H134021   3.382   4.459  12.015 -0.9569  0.7701 -1.2752
 4202TIP3    H234022   3.354   4.402  11.878 -0.5093 -1.1994 -0.5805
 4203TIP3   OH234023   2.591   1.976  10.815 -0.3073 -0.5319  0.6486
 4203TIP3    H134024   2.672   2.018  10.846 -1.2655  1.4263  0.6396
 4203TIP3    H234025   2.539   2.048  10.780 -0.7739 -2.1388 -2.3065
 4204TIP3   OH234026   0.660   1.511   4.223  0.0284 -0.3263 -0.3707
 4204TIP3    H134027   0.609   1.577   4.271  0.3596 -0.7662  0.6065
 4204TIP3    H234028   0.680   1.444   4.289 -0.1939 -1.3420 -1.3228
 4205TIP3   OH234029   6.711   3.416   2.319  0.0600 -0.3729  0.7426
 4205TIP3    H134030   6.784   3.447   2.373  0.4185 -1.1350  0.7003
 4205TIP3    H234031   6.652   3.491   2.314  0.9084  0.3064  0.6548
 4206TIP3   OH234032   6.495   6.735   1.464 -0.0237  0.6379 -0.0533
 4206TIP3    H134033   6.456   6.715   1.549  0.6495 -0.1329  0.0881
 4206TIP3    H234034   6.563   6.800   1.484 -1.4053  2.2571 -0.3481
 4207TIP3   OH234035   1.231   5.546   5.940  0.4163  1.2612 -1.1190
 4207TIP3    H134036   1.198   5.625   5.896  2.4217  0.8550 -3.5460
 4207TIP3    H234037   1.319   5.533   5.904  1.2714 -0.5036  1.3522
 4208TIP3   OH234038   5.390   5.062  15.327 -0.6884 -0.0470  0.1983
 4208TIP3    H134039   5.459   5.124  15.350  0.1538 -0.1553 -1.8479
 4208TIP3    H234040   5.309   5.105  15.354 -0.1516  2.0966 -1.3479
 4209TIP3   OH234041   2.655   1.832   3.490  0.6190  0.1263  0.3322
 4209TIP3    H134042   2.715   1.788   3.430  2.2252 -1.4394  2.8666
 4209TIP3    H234043   2.669   1.788   3.574  0.7010  4.0748  2.6235
 4210TIP3   OH234044   2.259   6.684   4.744  0.1270  0.0298  0.2211
 4210TIP3    H134045   2.230   6.760   4.794 -0.0909  0.2666 -0.2508
 4210TIP3    H234046   2.246   6.610   4.803 -0.4026  0.2673  0.4141
 4211TIP3   OH234047   1.605   0.946  14.381  0.1121  0.1099 -0.3291
 4211TIP3    H134048   1.568   0.874  14.433  0.5613 -1.2090 -1.7416
 4211TIP3    H234049   1.559   0.941  14.297  0.8531  0.8430 -0.7948
 4212TIP3   OH234050   2.825   5.539  14.860 -0.4231  0.5569  0.0635
 4212TIP3    H134051   2.737   5.533  14.824 -0.3793 -0.7098  0.1406
 4212TIP3    H234052   2.849   5.449  14.883  0.9224  0.8592 -0.0385
 4213TIP3   OH234053   2.974   3.597  11.786 -0.5921  0.2046 -0.2605
 4213TIP3    H134054   3.008   3.508  11.799 -3.0947 -0.7552  0.2526
 4213TIP3    H234055   3.031   3.652  11.839 -0.2159 -1.3744  1.0535
 4214TIP3   OH234056   6.746   1.141   5.913 -0.5450 -0.0309  0.2282
 4214TIP3    H134057   6.818   1.086   5.882 -0.2872 -0.0551  0.8623
 4214TIP3    H234058   6.787   1.205   5.971 -0.6258  1.7773 -1.6021
 4215TIP3   OH234059   3.503   6.737  12.555 -0.0307  0.1913 -0.5304
 4215TIP3    H134060   3.435   6.688  12.601  1.2753 -0.1750  1.1224
 4215TIP3    H234061   3.456   6.806  12.508 -1.4500  0.8303  1.6868
 4216TIP3   OH234062   1.475   0.591  11.885  0.0587 -0.3347  0.3097
 4216TIP3    H134063   1.469   0.508  11.838 -2.1844 -0.0919  0.0644
 4216TIP3    H234064   1.501   0.567  11.974  0.3712 -1.1799 -0.0026
 4217TIP3   OH234065   0.585   0.322   0.628 -0.2801 -0.1527 -0.4581
 4217TIP3    H134066   0.585   0.240   0.578 -1.0178  0.4378 -1.4688
 4217TIP3    H234067   0.677   0.348   0.633 -0.1069 -0.7222 -0.6807
 4218TIP3   OH234068   1.717   3.139   4.868  0.1522 -0.3776 -0.0753
 4218TIP3    H134069   1.689   3.133   4.960  1.3359 -2.2248  0.2114
 4218TIP3    H234070   1.800   3.091   4.865  1.0661  1.1848 -1.7727
 4219TIP3   OH234071   3.435   3.458   3.355 -0.2936 -0.3711 -0.0944
 4219TIP3    H134072   3.427   3.531   3.293  1.1049 -0.1666 -0.0624
 4219TIP3    H234073   3.512   3.479   3.407 -1.1891 -0.7758  1.4444
 4220TIP3   OH234074   4.569   2.387   3.628 -0.0527  0.3972  0.1699
 4220TIP3    H134075   4.656   2.389   3.589 -0.3580  1.6090 -0.4829
 4220TIP3    H234076   4.585   2.363   3.719  0.7247 -1.8390 -0.4842
 4221TIP3   OH234077   4.822   3.461   3.987 -0.3753  0.4154  0.3004
 4221TIP3    H134078   4.806   3.378   4.032 -3.6354  0.7936  0.0702
 4221TIP3    H234079   4.789   3.528   4.046 -0.3461  1.3185 -0.6762
 4222TIP3   OH234080   0.541   4.641  15.184 -0.1127  0.3209 -0.0938
 4222TIP3    H134081   0.620   4.671  15.140  0.9245 -1.6673  0.3034
 4222TIP3    H234082   0.521   4.557  15.143 -1.4953  0.3530  0.4556
 4223TIP3   OH234083   4.752   3.809   2.365 -0.3367 -0.3071  0.1509
 4223TIP3    H134084   4.775   3.877   2.301  0.5249 -0.3691  0.3896
 4223TIP3    H234085   4.677   3.845   2.413 -0.9794 -0.2457 -0.8622
 4224TIP3   OH234086   4.030   3.274   1.291  0.1130 -0.1279 -0.2104
 4224TIP3    H134087   4.071   3.237   1.370 -0.8965  0.0930  0.4366
 4224TIP3    H234088   3.969   3.339   1.324 -1.8641 -1.4685 -1.0138
 4225TIP3   OH234089   3.236   6.771  14.752 -0.6485  0.0326 -0.5103
 4225TIP3    H134090   3.154   6.782  14.704 -1.6044  0.4909  1.1612
 4225TIP3    H234091   3.284   6.705  14.702 -1.9077 -0.0458 -1.6778
 4226TIP3   OH234092   3.551   3.504  13.929 -0.8368  0.4984  0.3666
 4226TIP3    H134093   3.515   3.439  13.989  0.0927 -0.3618  0.0112
 4226TIP3    H234094   3.584   3.573  13.986  2.5751 -1.5571  1.1199
 4227TIP3   OH234095   2.949   2.782   5.768  0.7709 -0.3517 -0.3658
 4227TIP3    H134096   2.995   2.750   5.846  0.3778  0.9056  0.3990
 4227TIP3    H234097   2.891   2.710   5.744 -0.0401 -0.2812  1.2653
 4228TIP3   OH234098   4.084   4.098  15.747  0.5941 -0.0856 -0.2619
 4228TIP3    H134099   3.994   4.068  15.753 -0.0449  1.8169  0.3289
 4228TIP3    H234100   4.131   4.027  15.704 -1.0511 -1.3621 -0.0132
 4229TIP3   OH234101   4.022   1.935  16.836  0.5788 -0.6099  0.1660
 4229TIP3    H134102   4.086   1.883  16.884 -1.1319 -2.2255  0.8011
 4229TIP3    H234103   4.024   1.900  16.747  1.7304  0.4772 -0.2611
 4230TIP3   OH234104   5.075   2.999  14.025 -0.2886 -0.2358 -0.4261
 4230TIP3    H134105   5.089   2.933  14.093 -0.2240  0.9554  0.7639
 4230TIP3    H234106   4.981   2.994  14.006 -1.0352  1.6566  2.2390
 4231TIP3   OH234107   0.597   5.673   6.998 -0.0540 -0.1791  0.7097
 4231TIP3    H134108   0.581   5.706   6.910  0.3456 -2.6593 -0.3925
 4231TIP3    H234109   0.628   5.749   7.048  0.8611  1.0465 -1.6050
 4232TIP3   OH234110   6.054   5.300  11.097 -0.6092  0.1693 -0.0718
 4232TIP3    H134111   6.009   5.263  11.021 -0.0353 -0.5706 -0.0511
 4232TIP3    H234112   6.144   5.270  11.090 -0.5531  0.0627  0.9277
 4233TIP3   OH234113   5.978   3.049  13.287 -0.4301  0.8996 -0.3380
 4233TIP3    H134114   5.904   2.995  13.260  0.7539 -1.1162  0.2909
 4233TIP3    H234115   6.032   2.992  13.342  2.1794  1.8939 -1.6601
 4234TIP3   OH234116   6.552   4.620   4.667  0.3066 -0.5685  0.0191
 4234TIP3    H134117   6.579   4.608   4.758 -1.1484 -1.8710  0.3225
 4234TIP3    H234118   6.522   4.711   4.663  2.3439  0.1521  0.2650
 4235TIP3   OH234119   3.302   2.037  11.434  0.3447  0.0166 -0.0655
 4235TIP3    H134120   3.305   2.130  11.413 -0.0433  0.7658  2.7462
 4235TIP3    H234121   3.385   2.002  11.401  0.4880  1.3159 -1.1789
 4236TIP3   OH234122   1.274   0.798  14.691  0.0568 -0.4143 -0.2934
 4236TIP3    H134123   1.328   0.742  14.746  0.6861 -0.7585 -1.2308
 4236TIP3    H234124   1.306   0.782  14.602 -0.5341  0.5664 -0.6991
 4237TIP3   OH234125   4.955   4.100   1.959  0.2466 -0.1015 -0.3740
 4237TIP3    H134126   4.972   4.189   1.927  1.1545 -0.1841 -0.1673
 4237TIP3    H234127   4.889   4.065   1.900 -0.0570  0.6826 -0.5118
 4238TIP3   OH234128   5.391   1.696   1.088  0.5316 -0.1546  0.3516
 4238TIP3    H134129   5.452   1.709   1.016  0.2188  0.3852  0.1800
 4238TIP3    H234130   5.376   1.601   1.090  1.2329 -0.2744  0.2844
 4239TIP3   OH234131   5.494   3.746  15.798  0.2139  0.2176  0.0482
 4239TIP3    H134132   5.485   3.660  15.757  0.2842  0.5774 -0.7278
 4239TIP3    H234133   5.462   3.808  15.732 -2.9261  0.5985  1.7128
 4240TIP3   OH234134   3.189   4.389   0.745  0.3087  0.9603 -0.2355
 4240TIP3    H134135   3.208   4.356   0.657 -1.3006  0.6032 -0.4949
 4240TIP3    H234136   3.213   4.317   0.803  1.5572  1.2703 -0.3555
 4241TIP3   OH234137   6.563   5.943   5.043 -0.0506 -0.0745 -0.0316
 4241TIP3    H134138   6.576   6.027   5.087  1.9224  1.1015 -2.6131
 4241TIP3    H234139   6.645   5.928   4.996  0.8290 -4.8388  2.3816
 4242TIP3   OH234140   4.785   3.649  13.599 -0.4471 -0.2223 -0.7598
 4242TIP3    H134141   4.709   3.644  13.541  0.0426 -0.1447 -1.4241
 4242TIP3    H234142   4.825   3.733  13.577  1.7201 -1.6672 -2.8591
 4243TIP3   OH234143   0.419   4.806  14.594  0.0067 -0.4854 -0.5359
 4243TIP3    H134144   0.358   4.805  14.519 -0.6217 -2.1858 -0.0418
 4243TIP3    H234145   0.375   4.861  14.659 -0.1565 -0.2440 -0.8456
 4244TIP3   OH234146   5.216   2.970  13.810  0.2492 -0.1052 -0.4164
 4244TIP3    H134147   5.179   2.971  13.898  1.3951 -0.8157  0.0989
 4244TIP3    H234148   5.258   2.884  13.802  1.5389  0.5463 -1.0535
 4245TIP3   OH234149   4.745   1.657   5.071  0.2336 -0.3839  0.0959
 4245TIP3    H134150   4.704   1.652   5.157 -3.7263  2.8933 -1.2248
 4245TIP3    H234151   4.804   1.583   5.067 -1.6856 -2.4755  4.4491
 4246TIP3   OH234152   0.577   5.699   2.320 -0.2791 -0.1608  0.3398
 4246TIP3    H134153   0.589   5.651   2.237  2.4780 -1.2291  1.2373
 4246TIP3    H234154   0.511   5.766   2.299 -1.7597 -2.1418 -1.9167
 4247TIP3   OH234155   6.344   3.751   2.774  0.9706 -0.6309 -0.6752
 4247TIP3    H134156   6.254   3.729   2.752  0.4918  1.3139 -0.8189
 4247TIP3    H234157   6.372   3.681   2.833 -0.9102 -0.8151  0.0713
 4248TIP3   OH234158   4.044   3.414   3.275 -0.1384  0.1535 -0.4792
 4248TIP3    H134159   4.091   3.497   3.264  1.1033 -0.5817 -0.8866
 4248TIP3    H234160   3.991   3.427   3.354  2.2299  0.3970  1.1777
 4249TIP3   OH234161   3.051   0.365   6.248 -0.1019  0.0658  0.6313
 4249TIP3    H134162   3.112   0.292   6.236 -1.3574 -1.2300  1.7896
 4249TIP3    H234163   3.091   0.420   6.315  0.8331  0.4560 -0.2224
 4250TIP3   OH234164   1.304   3.104  14.113 -0.0459  0.2801  0.2309
 4250TIP3    H134165   1.366   3.069  14.177  0.6073 -0.6002 -0.8537
 4250TIP3    H234166   1.229   3.044  14.117 -0.4977  0.8625  0.9339
 4251TIP3   OH234167   4.044   3.003  12.268  0.2835 -0.4689 -0.4390
 4251TIP3    H134168   3.970   3.018  12.328 -0.2453  1.6236 -1.5273
 4251TIP3    H234169   4.050   2.908  12.261 -1.5864 -0.7099  0.5551
 4252TIP3   OH234170   1.795   3.722   5.475 -0.0962 -0.4954 -0.0373
 4252TIP3    H134171   1.762   3.717   5.385 -1.1966 -0.7482  0.3583
 4252TIP3    H234172   1.743   3.792   5.516 -0.1902 -0.9425  0.6271
 4253TIP3   OH234173   3.751   3.556  14.368 -0.4111  0.1235 -0.1935
 4253TIP3    H134174   3.813   3.566  14.296 -1.0624  0.1660 -0.7550
 4253TIP3    H234175   3.719   3.645  14.384 -2.3865 -0.2274 -1.7790
 4254TIP3   OH234176   3.230   4.643   0.057  0.0702 -0.3909 -0.6872
 4254TIP3    H134177   3.207   4.590  -0.019  0.1880  2.0261 -2.5216
 4254TIP3    H234178   3.149   4.686   0.083 -0.1577 -1.7875  1.1554
 4255TIP3   OH234179   5.848   2.421   2.779  0.1118  0.1888  0.1785
 4255TIP3    H134180   5.936   2.401   2.748  1.0666  0.5608  2.4825
 4255TIP3    H234181   5.814   2.338   2.812  0.5140  0.4813  1.3708
 4256TIP3   OH234182   0.137   6.368  11.449  0.2523 -0.0152 -0.0492
 4256TIP3    H134183   0.194   6.412  11.385  0.5388 -1.9465 -1.2204
 4256TIP3    H234184   0.048   6.388  11.421  0.3775  0.1942 -0.2952
 4257TIP3   OH234185   0.810   3.135  15.429 -0.0416  0.5893 -0.1216
 4257TIP3    H134186   0.856   3.137  15.344  0.3597  1.4543  0.1067
 4257TIP3    H234187   0.763   3.218  15.432 -2.5645 -0.7074 -0.8271
 4258TIP3   OH234188   4.449   2.689  12.991  0.5820  0.6881  0.1953
 4258TIP3    H134189   4.389   2.724  12.924 -2.4801  0.3505  2.5315
 4258TIP3    H234190   4.474   2.603  12.958 -1.5746  0.1522 -0.2143
 4259TIP3   OH234191   5.667   1.686   2.794  0.0949 -0.1712  0.3221
 4259TIP3    H134192   5.673   1.600   2.836 -0.8667 -0.8026 -0.7623
 4259TIP3    H234193   5.603   1.674   2.724  0.1018  1.3833  0.0060
 4260TIP3   OH234194   5.586   5.632  11.490  0.7059 -0.0550 -0.4071
 4260TIP3    H134195   5.668   5.589  11.469  0.3084 -1.0599  0.0352
 4260TIP3    H234196   5.596   5.662  11.580 -0.1190 -2.0060  0.3903
 4261TIP3   OH234197   5.670   5.675   5.424 -0.1275  0.1293 -0.2813
 4261TIP3    H134198   5.710   5.639   5.345  1.1262  4.8417 -2.1137
 4261TIP3    H234199   5.735   5.661   5.493  2.3800  2.6423 -1.9521
 4262TIP3   OH234200   0.910   4.353  15.624  0.4842 -0.1323 -0.0259
 4262TIP3    H134201   0.884   4.444  15.638  0.0213 -0.2940  0.1851
 4262TIP3    H234202   0.998   4.359  15.587  0.6781  0.3889  0.4970
 4263TIP3   OH234203   3.637   5.971  16.171 -0.0506  0.0673 -0.1780
 4263TIP3    H134204   3.726   5.942  16.154 -0.6972 -1.2250 -1.5541
 4263TIP3    H234205   3.581   5.908  16.126 -1.7022  0.4291  1.2296
 4264TIP3   OH234206   2.073   5.187  12.497  0.1919  0.5587 -0.0649
 4264TIP3    H134207   2.114   5.216  12.415  0.5945 -0.8129 -0.3791
 4264TIP3    H234208   1.979   5.186  12.478  0.1456  1.7082 -0.0032
 4265TIP3   OH234209   1.689   4.619  12.503  0.0273 -0.4452  0.0050
 4265TIP3    H134210   1.625   4.643  12.436 -2.3589 -1.2923  1.8516
 4265TIP3    H234211   1.670   4.677  12.576  2.3947  0.2647  0.1394
 4266TIP3   OH234212   1.476   5.765  16.171 -0.1825  0.5084 -0.3099
 4266TIP3    H134213   1.534   5.698  16.208  0.0136  1.4583  1.1723
 4266TIP3    H234214   1.416   5.716  16.114  0.3294 -0.8439  0.2750
 4267TIP3   OH234215   0.078   4.612   5.365 -0.2794 -0.4797  0.3657
 4267TIP3    H134216   0.161   4.620   5.319 -0.4190 -0.3209  0.1400
 4267TIP3    H234217   0.031   4.693   5.345 -1.0082 -1.1129 -0.5652
 4268TIP3   OH234218   3.712   6.016   1.718  0.2995  0.2353  0.2441
 4268TIP3    H134219   3.747   5.973   1.639 -0.5327 -0.1879  0.0999
 4268TIP3    H234220   3.671   6.096   1.684 -2.5704 -1.2987 -0.1815
 4269TIP3   OH234221   3.039   4.718   5.253 -0.7268  0.5409 -0.2032
 4269TIP3    H134222   3.005   4.637   5.292 -2.2295  0.7804 -0.9454
 4269TIP3    H234223   3.048   4.697   5.160  0.0390  0.8674 -0.2078
 4270TIP3   OH234224   6.368   5.247  11.476  0.2704 -0.2690 -0.8571
 4270TIP3    H134225   6.412   5.162  11.467 -0.2539 -0.8869  1.6910
 4270TIP3    H234226   6.282   5.226  11.513  0.4657  1.4294  0.6730
 4271TIP3   OH234227   2.589   5.276   3.617 -0.2636  0.1683  0.2680
 4271TIP3    H134228   2.571   5.366   3.642  2.3415  0.6123  0.8549
 4271TIP3    H234229   2.647   5.283   3.541 -0.1504 -1.0239  0.2179
 4272TIP3   OH234230   3.718   3.836   6.236  0.4388 -0.0424 -0.4275
 4272TIP3    H134231   3.668   3.806   6.160 -1.1209  1.2919  0.0108
 4272TIP3    H234232   3.656   3.889   6.286  1.3650 -0.9821  1.8754
 4273TIP3   OH234233   3.796   0.847   1.208 -0.2460 -0.2027 -0.1156
 4273TIP3    H134234   3.783   0.753   1.196 -1.8545  0.0023 -0.1572
 4273TIP3    H234235   3.800   0.859   1.303 -0.7253 -0.2391 -0.0887
 4274TIP3   OH234236   1.419   5.288   5.631 -0.4120  0.0170 -0.5345
 4274TIP3    H134237   1.472   5.334   5.565 -1.4311 -1.0665 -2.1824
 4274TIP3    H234238   1.330   5.293   5.597 -1.1133  0.2041  1.2678
 4275TIP3   OH234239   0.198   1.112   2.643  0.1502 -0.4034 -0.1868
 4275TIP3    H134240   0.243   1.121   2.727  0.4950 -0.6530 -0.3409
 4275TIP3    H234241   0.106   1.126   2.663  0.0211 -2.0630  0.5165
 4276TIP3   OH234242   1.940   6.371  14.750  0.2182  0.1423  0.0919
 4276TIP3    H134243   1.909   6.409  14.832  0.6808  0.3267  0.1829
 4276TIP3    H234244   1.906   6.282  14.750 -0.7569  0.5034 -0.0564
 4277TIP3   OH234245   2.628   5.052  12.638  0.2872 -0.2092  0.1900
 4277TIP3    H134246   2.535   5.041  12.618  0.0351 -0.2074  1.3075
 4277TIP3    H234247   2.661   5.110  12.568 -0.5111 -0.3179 -0.2870
 4278TIP3   OH234248   4.494   1.531  10.940  0.1347  0.1449  0.1078
 4278TIP3    H134249   4.574   1.499  10.898  0.1020  0.1229  0.0628
 4278TIP3    H234250   4.455   1.590  10.876  1.6080  2.4527  1.2097
 4279TIP3   OH234251   5.162   0.872   3.933 -0.0702 -0.4456  0.1154
 4279TIP3    H134252   5.085   0.819   3.952  0.0886 -0.8360 -0.3032
 4279TIP3    H234253   5.233   0.829   3.981  0.3201 -1.4004 -1.2530
 4280TIP3   OH234254   3.440   4.555   2.703 -0.4853 -0.0693  0.1157
 4280TIP3    H134255   3.486   4.639   2.706 -0.8619  0.2096 -1.2909
 4280TIP3    H234256   3.351   4.576   2.731 -1.0109  0.3560 -1.7058
 4281TIP3   OH234257   4.151   4.417   4.118  0.0519 -0.6475 -0.8734
 4281TIP3    H134258   4.114   4.428   4.206 -1.6831  0.7648 -1.7283
 4281TIP3    H234259   4.138   4.324   4.099 -2.4477 -0.3902 -0.8042
 4282TIP3   OH234260   2.960   0.338   3.110 -0.0431  0.4698  0.6286
 4282TIP3    H134261   2.922   0.339   3.198 -2.5352  1.0162 -0.3582
 4282TIP3    H234262   2.943   0.249   3.079  2.2436 -0.2289  1.1895
 4283TIP3   OH234263   5.992   3.105   5.410  0.4455 -0.2939 -0.1081
 4283TIP3    H134264   5.987   3.115   5.505  0.8897  0.4478 -0.1578
 4283TIP3    H234265   5.980   3.193   5.375  0.0214 -0.5997 -0.7560
 4284TIP3   OH234266   5.341   6.260  16.023  0.0071 -0.7344  0.1828
 4284TIP3    H134267   5.412   6.308  15.980 -0.0760  0.2260  1.0648
 4284TIP3    H234268   5.284   6.231  15.952  2.3471 -3.4089 -0.7642
 4285TIP3   OH234269   1.957   1.087  15.759 -0.4950  0.2317 -0.4084
 4285TIP3    H134270   1.980   1.131  15.677 -1.8238  1.7064 -0.0532
 4285TIP3    H234271   1.873   1.125  15.783 -0.7783 -1.1691  0.9520
 4286TIP3   OH234272   1.807   1.010  14.597  0.0456  0.3091  0.5191
 4286TIP3    H134273   1.783   0.937  14.539  1.8047  0.4902 -0.5103
 4286TIP3    H234274   1.759   1.085  14.561  0.9793  0.3801 -0.6484
 4287TIP3   OH234275   5.095   1.236  13.808 -0.0011 -0.0958  0.3824
 4287TIP3    H134276   5.036   1.208  13.738 -0.1776 -0.3977  0.6507
 4287TIP3    H234277   5.182   1.211  13.778 -0.1091 -0.5129  0.4126
 4288TIP3   OH234278   2.444   5.883   1.460 -0.0497 -0.0634  0.2825
 4288TIP3    H134279   2.497   5.934   1.521  0.3042  1.1906 -1.0385
 4288TIP3    H234280   2.423   5.803   1.508  3.0517 -0.6397  0.8555
 4289TIP3   OH234281   5.559   0.592   3.669 -0.0534  0.5404  0.0703
 4289TIP3    H134282   5.568   0.603   3.764 -2.2476 -0.2824  0.4502
 4289TIP3    H234283   5.536   0.679   3.636  0.4000  0.7609  0.3287
 4290TIP3   OH234284   4.451   6.587  16.848  0.1022  0.5302  0.1768
 4290TIP3    H134285   4.364   6.562  16.816  0.0385 -0.0181  0.7816
 4290TIP3    H234286   4.493   6.629  16.772 -1.1467  1.9674  0.2306
 4291TIP3   OH234287   2.649   2.451   1.870 -0.9373 -0.2698 -0.4851
 4291TIP3    H134288   2.576   2.502   1.836 -0.6672  0.5949  0.1888
 4291TIP3    H234289   2.724   2.511   1.867 -0.0090 -1.4276 -2.0334
 4292TIP3   OH234290   6.494   1.490  16.032 -0.1902  0.1833  0.2617
 4292TIP3    H134291   6.569   1.524  16.080  1.0017 -1.5692 -0.2936
 4292TIP3    H234292   6.442   1.443  16.097  1.2559 -1.9139  0.0058
 4293TIP3   OH234293   0.183   3.521  16.174 -0.3709 -0.0804 -0.1641
 4293TIP3    H134294   0.128   3.490  16.102 -1.7949  1.1155  0.3495
 4293TIP3    H234295   0.257   3.460  16.176 -1.4475 -1.4915 -1.1722
 4294TIP3   OH234296   3.754   0.312  17.180 -0.2170 -0.4003  0.2692
 4294TIP3    H134297   3.813   0.334  17.253 -0.7024 -0.7776  0.7865
 4294TIP3    H234298   3.793   0.234  17.141  0.8946  0.6906 -0.8661
 4295TIP3   OH234299   2.826   0.668   4.219  0.2739 -0.1523  0.0729
 4295TIP3    H134300   2.785   0.738   4.270 -0.7120 -1.1657  0.7246
 4295TIP3    H234301   2.766   0.594   4.228  1.9517 -1.5183  0.5225
 4296TIP3   OH234302   0.391   6.482  13.307 -0.6647 -0.1037  0.1797
 4296TIP3    H134303   0.457   6.428  13.351 -1.0122 -1.2486 -0.6540
 4296TIP3    H234304   0.400   6.460  13.214 -2.2318 -0.3273  0.0583
 4297TIP3   OH234305   3.183   5.626  12.086  0.1243 -0.4392 -0.0500
 4297TIP3    H134306   3.194   5.706  12.034 -1.7036 -0.7532 -1.0048
 4297TIP3    H234307   3.136   5.655  12.164 -1.4300 -0.6708 -0.8502
 4298TIP3   OH234308   3.547   4.658  11.594 -0.0651  0.5631 -0.4082
 4298TIP3    H134309   3.562   4.750  11.576 -0.7140  0.6836 -0.3544
 4298TIP3    H234310   3.550   4.616  11.508 -2.1511  0.9918 -0.7421
 4299TIP3   OH234311   2.426   2.107   1.864 -0.7958 -0.0199 -0.1275
 4299TIP3    H134312   2.473   2.049   1.924 -1.0436 -0.3038 -0.2073
 4299TIP3    H234313   2.395   2.179   1.919 -0.4624  0.0521 -0.0338
 4300TIP3   OH234314   5.534   4.636   4.196  0.1224 -0.4175 -1.0282
 4300TIP3    H134315   5.467   4.570   4.180 -0.1452 -0.6831  0.9311
 4300TIP3    H234316   5.550   4.632   4.290  1.3380  1.1445 -1.1187
 4301TIP3   OH234317   4.856   4.159   1.384 -0.6829 -0.1150 -0.0518
 4301TIP3    H134318   4.868   4.064   1.385 -1.1626 -0.2020  2.0988
 4301TIP3    H234319   4.871   4.186   1.474 -2.2622  1.6249 -0.2484
 4302TIP3   OH234320   2.984   0.306   4.920 -0.1403 -0.2775 -0.1945
 4302TIP3    H134321   3.013   0.388   4.880  0.5237 -0.8215 -0.8575
 4302TIP3    H234322   2.942   0.333   5.002 -1.1911  0.8258 -1.0601
 4303TIP3   OH234323   6.663   0.901  14.751 -0.1756  0.4010 -0.2052
 4303TIP3    H134324   6.731   0.968  14.753  0.6072 -0.3751  1.6969
 4303TIP3    H234325   6.583   0.948  14.729  0.6145  1.6998 -0.3595
 4304TIP3   OH234326   4.492   1.614  11.582  0.3950 -0.2676  0.3550
 4304TIP3    H134327   4.407   1.625  11.625  0.9428  1.0299  1.1904
 4304TIP3    H234328   4.539   1.551  11.637  0.6602  0.4984  1.0420
 4305TIP3   OH234329   3.390   0.139   0.869 -0.4977  1.1984  0.1126
 4305TIP3    H134330   3.308   0.093   0.889 -0.1929  0.5098 -0.2008
 4305TIP3    H234331   3.388   0.216   0.925 -1.6672  1.5275 -0.3591
 4306TIP3   OH234332   6.530   1.617  11.419 -0.7510  0.4533 -0.4352
 4306TIP3    H134333   6.459   1.638  11.359 -0.4077  0.4452 -0.8548
 4306TIP3    H234334   6.508   1.663  11.500 -1.2431  0.4276 -0.5520
 4307TIP3   OH234335   0.110   5.825  14.827 -0.4280 -0.0318  0.1021
 4307TIP3    H134336   0.183   5.795  14.773 -1.5831 -2.0044 -0.5031
 4307TIP3    H234337   0.080   5.906  14.785 -0.3584 -0.7314 -1.3587
 4308TIP3   OH234338   3.541   3.169  13.339 -0.0671 -0.3315  0.0297
 4308TIP3    H134339   3.621   3.120  13.357 -1.1881 -2.3722 -0.2054
 4308TIP3    H234340   3.512   3.137  13.254 -0.2699  1.6367 -0.6937
 4309TIP3   OH234341   3.798   2.070   4.463  0.2037 -0.2785  0.0199
 4309TIP3    H134342   3.714   2.041   4.428  0.8328  0.4625 -2.3241
 4309TIP3    H234343   3.788   2.065   4.558 -2.6562  0.3142 -0.1607
 4310TIP3   OH234344   1.675   1.964  15.639  0.1325  0.3989  0.2361
 4310TIP3    H134345   1.702   2.051  15.608  0.7053 -0.0646 -0.6059
 4310TIP3    H234346   1.677   1.909  15.561  0.0852 -0.4508  0.8183
 4311TIP3   OH234347   2.459   4.294  11.870  0.1709  0.2029 -0.1879
 4311TIP3    H134348   2.428   4.235  11.938 -0.0486  0.8946  0.3219
 4311TIP3    H234349   2.392   4.362  11.864  0.7715  0.8069 -0.2424
 4312TIP3   OH234350   2.054   1.268  15.086 -0.2123  0.5422  0.2608
 4312TIP3    H134351   1.983   1.310  15.038 -1.0351 -1.1853 -0.1294
 4312TIP3    H234352   2.049   1.304  15.175 -1.3306  0.7152  0.1338
 4313TIP3   OH234353   6.666   0.286   4.635 -0.3053 -0.2749  0.1687
 4313TIP3    H134354   6.664   0.361   4.694  2.1493 -0.4181  0.5532
 4313TIP3    H234355   6.719   0.315   4.561 -2.3238 -0.5031 -1.4549
 4314TIP3   OH234356   5.987   4.408   0.340  0.3880 -0.5527  0.2539
 4314TIP3    H134357   5.952   4.417   0.251  0.2894  1.1158  0.4296
 4314TIP3    H234358   6.029   4.492   0.357  2.2699 -1.6006  1.0152
 4315TIP3   OH234359   1.452   2.003   2.337 -0.0275 -0.2925 -0.1530
 4315TIP3    H134360   1.359   2.024   2.329 -0.4412 -2.2509 -1.3085
 4315TIP3    H234361   1.497   2.085   2.317 -1.4638  1.0417  1.7141
 4316TIP3   OH234362   6.774   3.570  11.146  0.0809  0.0225  0.3614
 4316TIP3    H134363   6.778   3.634  11.218  0.8628 -0.5566  0.8464
 4316TIP3    H234364   6.815   3.615  11.072 -1.7027  1.0312 -0.0748
 4317TIP3   OH234365   2.318   2.552  10.716  0.1402  0.1418 -0.0471
 4317TIP3    H134366   2.407   2.519  10.724 -0.6215 -1.8061  0.9204
 4317TIP3    H234367   2.271   2.484  10.667 -1.3399  0.0241  1.4406
 4318TIP3   OH234368   1.862   1.450   0.713  0.0759  0.3521  0.5250
 4318TIP3    H134369   1.951   1.476   0.735 -0.0193 -0.4709  2.0192
 4318TIP3    H234370   1.844   1.375   0.771  0.0569 -2.5585 -2.8929
 4319TIP3   OH234371   3.201   1.378  16.193  0.4756  0.4977  0.2088
 4319TIP3    H134372   3.255   1.312  16.237  0.5789  0.2068 -0.3376
 4319TIP3    H234373   3.235   1.462  16.224  0.6783  0.3009  0.5223
 4320TIP3   OH234374   6.652   2.274  12.656 -0.0757  0.1787 -0.0437
 4320TIP3    H134375   6.691   2.233  12.578 -1.8540  0.7939 -1.3060
 4320TIP3    H234376   6.591   2.208  12.690 -0.3865  0.4690 -0.0353
 4321TIP3   OH234377   3.788   1.249  13.632 -0.3884  0.5335  0.3004
 4321TIP3    H134378   3.726   1.313  13.596  1.4031  2.1143 -0.1092
 4321TIP3    H234379   3.868   1.261  13.580  0.1683 -1.7543  0.5213
 4322TIP3   OH234380   6.412   6.337   4.471 -0.0801 -0.0329 -0.2974
 4322TIP3    H134381   6.346   6.268   4.476 -1.1949  1.0294  0.0929
 4322TIP3    H234382   6.366   6.412   4.432  0.7816  0.8441  0.3132
 4323TIP3   OH234383   2.290   4.531  11.913  0.8878 -0.3930 -0.2265
 4323TIP3    H134384   2.234   4.597  11.953 -0.4185 -1.1749 -0.6833
 4323TIP3    H234385   2.272   4.538  11.819  0.9652 -1.1677 -0.3087
 4324TIP3   OH234386   1.235   3.166   0.302  0.3849 -0.4366 -0.1513
 4324TIP3    H134387   1.152   3.198   0.338  0.6915  1.9890 -1.4038
 4324TIP3    H234388   1.234   3.071   0.319 -2.0758 -0.2870  0.9106
 4325TIP3   OH234389   1.549   2.901  14.249 -0.1166 -0.5936  0.1931
 4325TIP3    H134390   1.593   2.911  14.333 -0.9030  2.8451  0.3522
 4325TIP3    H234391   1.618   2.876  14.188  1.2359  0.6069  1.1719
 4326TIP3   OH234392   0.910   0.299  11.493  0.0132  0.1364  0.4176
 4326TIP3    H134393   0.847   0.230  11.474  0.0258  0.4168 -0.7109
 4326TIP3    H234394   0.857   0.378  11.501  0.0691  0.1174  1.0422
 4327TIP3   OH234395   3.329   4.517  16.907  0.0777 -0.2305  0.1311
 4327TIP3    H134396   3.275   4.468  16.846  0.6780 -0.2954 -0.3599
 4327TIP3    H234397   3.295   4.494  16.994 -0.1300 -0.9193 -0.1295
 4328TIP3   OH234398   3.023   2.323   3.176 -0.1859 -0.1298  0.1950
 4328TIP3    H134399   3.091   2.287   3.119  0.4428 -0.4816  1.1552
 4328TIP3    H234400   3.033   2.418   3.167 -0.1174 -0.1818 -0.3079
 4329TIP3   OH234401   5.617   4.737   1.565 -0.2329 -0.0445 -0.2025
 4329TIP3    H134402   5.578   4.764   1.648  2.7270  3.4061  0.3398
 4329TIP3    H234403   5.594   4.808   1.504  0.8939 -0.5192 -1.2205
 4330TIP3   OH234404   4.868   5.780   1.602  0.2266  0.0972  0.5212
 4330TIP3    H134405   4.849   5.863   1.646 -1.4551  0.6897 -1.1907
 4330TIP3    H234406   4.803   5.775   1.532  1.9759 -1.3896 -1.1050
 4331TIP3   OH234407   6.161   3.308   4.323 -0.0482  0.2322  0.0819
 4331TIP3    H134408   6.208   3.353   4.254 -1.1671  1.3897  0.0387
 4331TIP3    H234409   6.132   3.377   4.382 -0.1736 -0.6200  1.0537
 4332TIP3   OH234410   1.484   4.657   2.931 -0.6036  0.4674 -0.1929
 4332TIP3    H134411   1.512   4.744   2.903  0.3234  1.7617  4.1010
 4332TIP3    H234412   1.542   4.635   3.003 -2.1754 -2.8415  0.2419
 4333TIP3   OH234413   1.561   4.406  13.068 -0.2301  0.4951 -0.5407
 4333TIP3    H134414   1.526   4.444  13.149  0.4215 -0.0820  0.0130
 4333TIP3    H234415   1.611   4.330  13.096 -1.4582 -0.7683 -1.6309
 4334TIP3   OH234416   0.789   3.914   2.679 -0.0438 -0.6473  0.6728
 4334TIP3    H134417   0.706   3.869   2.664 -0.0798 -0.7172  1.0689
 4334TIP3    H234418   0.851   3.843   2.694 -0.3139 -0.5463  2.3831
 4335TIP3   OH234419   4.441   3.180   3.466  0.0368  0.4611 -0.1391
 4335TIP3    H134420   4.393   3.211   3.543 -1.6237 -2.0969 -0.0113
 4335TIP3    H234421   4.532   3.178   3.494 -0.2728  1.5266  1.0522
 4336TIP3   OH234422   4.465   3.882   2.386 -0.6856 -0.1766  0.2379
 4336TIP3    H134423   4.473   3.962   2.334 -0.0661 -0.5683 -0.2839
 4336TIP3    H234424   4.394   3.900   2.448 -2.3997 -0.1943 -1.6306
 4337TIP3   OH234425   6.580   1.892   0.556  0.1711  0.0948  0.0317
 4337TIP3    H134426   6.646   1.834   0.593 -0.9756 -0.7416  0.8276
 4337TIP3    H234427   6.540   1.841   0.486  1.4273  1.1913 -1.5672
 4338TIP3   OH234428   5.342   0.857   3.621  0.6788 -0.2169 -0.1785
 4338TIP3    H134429   5.287   0.823   3.550 -1.6401  0.7303  1.0423
 4338TIP3    H234430   5.432   0.845   3.590 -0.2107  0.8105 -3.5642
 4339TIP3   OH234431   1.055   0.731  16.389  0.1088  0.6123 -0.4357
 4339TIP3    H134432   1.070   0.636  16.381 -1.5450  0.1526  1.2355
 4339TIP3    H234433   0.998   0.740  16.465  1.0909  3.0627  0.1208
 4340TIP3   OH234434   5.104   5.529   5.445  0.0627  0.2428  0.2548
 4340TIP3    H134435   5.010   5.537   5.459  0.0282  0.5529 -0.1461
 4340TIP3    H234436   5.140   5.613   5.471  0.4350 -0.4038  1.9794
 4341TIP3   OH234437   3.146   3.645  16.652  0.0960 -0.1087  0.8615
 4341TIP3    H134438   3.194   3.667  16.573  0.5073 -1.4759  0.6955
 4341TIP3    H234439   3.065   3.603  16.621 -0.4252  0.6474  1.1591
 4342TIP3   OH234440   4.122   1.738  13.684 -0.1080 -0.6810 -0.1813
 4342TIP3    H134441   4.066   1.812  13.707  0.7481  0.0496 -0.4256
 4342TIP3    H234442   4.070   1.661  13.708 -0.8190 -0.0050  0.5109
 4343TIP3   OH234443   3.407   1.513  14.834 -0.0008 -0.3142  0.5776
 4343TIP3    H134444   3.334   1.571  14.856  1.0823  1.3329  0.0430
 4343TIP3    H234445   3.438   1.480  14.918 -0.2110  0.4456  0.9607
 4344TIP3   OH234446   5.388   2.994   2.815  0.6000  0.4395  0.5176
 4344TIP3    H134447   5.312   2.950   2.853 -0.9786  1.9302 -0.7861
 4344TIP3    H234448   5.461   2.933   2.830 -0.8046 -1.0036  1.8489
 4345TIP3   OH234449   0.363   2.443   0.035 -0.2350 -0.2968  0.2058
 4345TIP3    H134450   0.400   2.368   0.081  1.5729  1.0329  1.0540
 4345TIP3    H234451   0.274   2.451   0.069  0.4351 -0.4797  2.1327
 4346TIP3   OH234452   2.221   4.366   3.027 -0.3069 -0.0221  0.1661
 4346TIP3    H134453   2.267   4.429   2.972 -0.4677  0.4205  0.5267
 4346TIP3    H234454   2.153   4.329   2.971 -0.1480  0.0520 -0.0751
 4347TIP3   OH234455   6.121   5.877  13.464  0.6179 -0.1032  0.4081
 4347TIP3    H134456   6.204   5.842  13.432  0.4057  0.0223 -0.2839
 4347TIP3    H234457   6.138   5.969  13.482  0.6217 -0.0736  0.2488
 4348TIP3   OH234458   2.426   5.777   0.539  0.3356  0.4991  0.4036
 4348TIP3    H134459   2.444   5.751   0.629  2.4400  0.6315  0.0795
 4348TIP3    H234460   2.402   5.696   0.494  0.5957  0.2073  0.7893
 4349TIP3   OH234461   6.210   2.943  11.550  0.0618 -0.3462 -0.4928
 4349TIP3    H134462   6.295   2.917  11.586 -0.2989  0.9208  1.4136
 4349TIP3    H234463   6.151   2.872  11.576 -0.0340  0.1870  0.8379
 4350TIP3   OH234464   3.774   6.326  15.223 -0.2975  0.1528 -0.0226
 4350TIP3    H134465   3.793   6.323  15.129 -2.4174  0.5405 -0.5197
 4350TIP3    H234466   3.797   6.239  15.255  0.5662  0.0548 -0.8680
 4351TIP3   OH234467   6.774   6.399  14.174  0.0745  0.0240 -0.3391
 4351TIP3    H134468   6.728   6.385  14.091  0.2509  1.1091 -0.6460
 4351TIP3    H234469   6.866   6.406  14.149  0.1525  0.1019 -0.0274
 4352TIP3   OH234470   0.359   3.800  16.292 -0.0754  0.3006  0.6026
 4352TIP3    H134471   0.304   3.721  16.291  0.7237 -0.3165  1.7248
 4352TIP3    H234472   0.374   3.821  16.200  1.3131 -2.0702  0.1878
 4353TIP3   OH234473   4.733   2.990  16.248 -0.2174  0.4812  0.0166
 4353TIP3    H134474   4.655   2.947  16.284  0.0948  0.4869  0.7258
 4353TIP3    H234475   4.806   2.934  16.277  0.0875  0.7926 -0.1466
 4354TIP3   OH234476   4.313   2.497  12.109  0.1087  0.0906  0.0394
 4354TIP3    H134477   4.312   2.475  12.203  2.2686 -1.2861 -0.2011
 4354TIP3    H234478   4.405   2.496  12.085 -0.4278  0.0090 -2.2142
 4355TIP3   OH234479   6.619   5.499   5.923  0.0530 -0.9679 -0.2682
 4355TIP3    H134480   6.611   5.532   5.834  2.7021 -1.1691 -0.6494
 4355TIP3    H234481   6.529   5.473   5.947 -0.6983 -1.0917 -2.9085
 4356TIP3   OH234482   6.635   6.227   3.401  0.3758 -0.1352  0.0693
 4356TIP3    H134483   6.654   6.282   3.477  0.4206 -0.2185  0.1182
 4356TIP3    H234484   6.586   6.153   3.437  0.7023 -0.3523  0.0707
 4357TIP3   OH234485   4.750   1.541   4.637 -0.4547  0.2995  0.4462
 4357TIP3    H134486   4.733   1.513   4.547  0.0571 -1.3691  0.8381
 4357TIP3    H234487   4.843   1.565   4.637  0.0307 -1.4147  0.8976
 4358TIP3   OH234488   4.322   6.357   1.811  0.0012 -0.1027  0.1581
 4358TIP3    H134489   4.301   6.273   1.770 -2.3041  1.3402 -1.9186
 4358TIP3    H234490   4.274   6.355   1.894 -0.7429 -0.5445 -0.2684
 4359TIP3   OH234491   3.733   5.204  12.260 -0.2442 -0.5206  0.5067
 4359TIP3    H134492   3.819   5.194  12.219 -0.6070 -1.1947 -0.1217
 4359TIP3    H234493   3.720   5.299  12.265 -0.1904 -0.4075 -0.9657
 4360TIP3   OH234494   0.841   3.141  11.677  0.7446  0.3733 -0.3217
 4360TIP3    H134495   0.871   3.166  11.590 -0.0250 -1.6475 -1.2314
 4360TIP3    H234496   0.748   3.164  11.679  0.6966  0.1760 -0.1370
 4361TIP3   OH234497   0.151   0.780  13.434 -0.2411  0.2111 -0.2188
 4361TIP3    H134498   0.178   0.839  13.504  0.2140 -0.9737  0.6473
 4361TIP3    H234499   0.232   0.766  13.383 -1.1663  3.5573 -3.0361
 4362TIP3   OH234500   5.067   0.404  15.661 -0.4861 -0.2116 -0.3105
 4362TIP3    H134501   5.110   0.334  15.710  0.6884  0.4986 -0.2777
 4362TIP3    H234502   5.015   0.451  15.725 -0.9768 -0.8172 -0.2583
 4363TIP3   OH234503   0.787   4.614  15.060 -0.2415 -0.8995  0.2770
 4363TIP3    H134504   0.856   4.672  15.027 -0.4331 -0.9861 -0.2842
 4363TIP3    H234505   0.830   4.563  15.128 -0.5656  1.2756  2.2176
 4364TIP3   OH234506   4.258   1.201  14.745  0.0485  0.6790  0.5296
 4364TIP3    H134507   4.292   1.232  14.661  1.3466  0.4208  0.9431
 4364TIP3    H234508   4.189   1.139  14.721  0.6803  0.2982 -0.3609
 4365TIP3   OH234509   2.639   6.531  14.289 -0.0987 -0.0636 -0.0254
 4365TIP3    H134510   2.614   6.517  14.380 -0.1290 -0.5555 -0.1026
 4365TIP3    H234511   2.557   6.549  14.243 -0.4772 -2.4057 -0.4142
 4366TIP3   OH234512   3.891   6.434   2.865 -0.7232  0.2637 -0.1358
 4366TIP3    H134513   3.819   6.389   2.819 -0.6444  0.0034 -0.0099
 4366TIP3    H234514   3.858   6.522   2.881 -1.6655 -0.3186  1.3584
 4367TIP3   OH234515   1.011   0.823   0.775 -0.6261  0.1804 -0.1533
 4367TIP3    H134516   1.052   0.766   0.840  0.7176  0.2614 -0.9015
 4367TIP3    H234517   0.993   0.904   0.823 -1.5349 -0.4500  0.6270
 4368TIP3   OH234518   6.539   1.674  14.799 -0.0777  0.1424 -0.8696
 4368TIP3    H134519   6.624   1.673  14.844 -0.3647  0.5433 -0.2975
 4368TIP3    H234520   6.534   1.589  14.755  0.7535  0.2450 -1.1735
 4369TIP3   OH234521   2.368   3.012   6.136  0.0821  0.0598 -0.1785
 4369TIP3    H134522   2.385   3.106   6.128  1.8543 -0.1566  0.6218
 4369TIP3    H234523   2.418   2.972   6.065  0.5080 -0.3732  0.3525
 4370TIP3   OH234524   1.821   0.309   5.222  0.2069 -0.2660  0.1770
 4370TIP3    H134525   1.910   0.286   5.196  1.2443  1.8839  1.5070
 4370TIP3    H234526   1.813   0.280   5.313 -0.6837 -0.9573 -0.1053
 4371TIP3   OH234527   2.608   3.400  14.697  0.2355  0.0343 -0.4440
 4371TIP3    H134528   2.521   3.361  14.699  0.7213 -1.0722  0.9252
 4371TIP3    H234529   2.634   3.406  14.789  1.8727 -0.3264 -0.8486
 4372TIP3   OH234530   3.327   0.062  11.228  0.1106  0.4902 -0.4898
 4372TIP3    H134531   3.352   0.064  11.135  0.6353  2.0118 -0.3443
 4372TIP3    H234532   3.399   0.106  11.273  0.1195 -0.6970  0.7305
 4373TIP3   OH234533   2.376   4.181   0.108  0.1569 -0.2399  0.0512
 4373TIP3    H134534   2.463   4.174   0.149 -0.3291  0.1138  1.1730
 4373TIP3    H234535   2.351   4.090   0.090 -0.0408 -0.4927  1.4838
 4374TIP3   OH234536   3.406   0.662  14.942  0.1047  0.2178 -0.3486
 4374TIP3    H134537   3.491   0.676  14.900  0.3351  1.4611  0.4797
 4374TIP3    H234538   3.426   0.614  15.022  0.0984  0.8905  0.0670
 4375TIP3   OH234539   2.343   2.656  16.624 -0.2220 -0.5876 -0.3781
 4375TIP3    H134540   2.416   2.595  16.635 -0.3349 -0.5387  0.7870
 4375TIP3    H234541   2.315   2.644  16.533  0.4248 -1.5175 -0.4706
 4376TIP3   OH234542   4.121   4.690  11.620  0.0635 -0.0425 -0.2631
 4376TIP3    H134543   4.039   4.718  11.660  0.5007 -0.2499  0.7936
 4376TIP3    H234544   4.156   4.623  11.678  1.5536  0.8577 -0.0544
 4377TIP3   OH234545   1.438   6.434   5.982  0.0468 -0.5420  0.3128
 4377TIP3    H134546   1.354   6.466   5.949 -0.9000 -1.2611  1.9407
 4377TIP3    H234547   1.471   6.377   5.912 -0.8970 -0.3937 -0.2668
 4378TIP3   OH234548   4.884   5.567   0.908 -0.2622 -0.2970 -0.4076
 4378TIP3    H134549   4.796   5.604   0.901  0.9223  3.9039  2.7893
 4378TIP3    H234550   4.875   5.491   0.964 -1.8675  0.0967 -0.0951
 4379TIP3   OH234551   4.859   0.382   2.627 -0.2771  0.4899 -0.1273
 4379TIP3    H134552   4.891   0.293   2.616 -1.8020 -0.2185  0.7696
 4379TIP3    H234553   4.806   0.399   2.549  0.2383  0.7178 -0.4285
 4380TIP3   OH234554   5.435   3.577  14.656 -0.3148 -0.0259 -0.4975
 4380TIP3    H134555   5.407   3.492  14.624  0.5270 -0.2732 -0.6172
 4380TIP3    H234556   5.354   3.625  14.672 -0.7937 -0.7731 -0.6264
 4381TIP3   OH234557   5.320   0.045  15.922 -0.2019 -0.2691 -0.4910
 4381TIP3    H134558   5.303   0.083  15.836 -1.3403  0.2064 -0.0773
 4381TIP3    H234559   5.302  -0.049  15.910 -0.2182 -0.2290 -0.7997
 4382TIP3   OH234560   4.149   0.720   2.991 -0.9056 -0.3496 -0.6163
 4382TIP3    H134561   4.126   0.714   2.898  1.5237  0.4802 -1.3384
 4382TIP3    H234562   4.234   0.764   2.992 -1.0158 -0.0346  2.0428
 4383TIP3   OH234563   2.060   5.655   5.841  0.0299 -0.4816  0.0568
 4383TIP3    H134564   2.018   5.578   5.802  0.0833 -0.7402  0.4974
 4383TIP3    H234565   1.988   5.706   5.877  0.0439 -0.6334  0.3020
 4384TIP3   OH234566   1.812   6.607  17.288 -0.0857  0.3427 -0.3783
 4384TIP3    H134567   1.854   6.522  17.274 -0.3872  0.1860 -0.3341
 4384TIP3    H234568   1.842   6.660  17.214  1.1476  0.6080  0.2892
 4385TIP3   OH234569   0.177   3.768   2.882 -0.0414  0.2100  0.2613
 4385TIP3    H134570   0.246   3.778   2.816  0.0423  0.1785  0.3426
 4385TIP3    H234571   0.167   3.674   2.892  0.9665  0.1919  1.3350
 4386TIP3   OH234572   5.453   1.459  11.714  0.2134  0.1654  1.2492
 4386TIP3    H134573   5.449   1.490  11.623 -0.3345 -2.4888  0.2778
 4386TIP3    H234574   5.425   1.534  11.766 -0.0031  1.5964 -0.8069
 4387TIP3   OH234575   0.108   5.367  12.982  0.5529  0.4741 -0.4350
 4387TIP3    H134576   0.129   5.282  12.944  0.3366  0.4462 -0.4945
 4387TIP3    H234577   0.013   5.366  12.991  0.6959 -0.0332  1.3284
 4388TIP3   OH234578   0.409   4.204  12.356 -0.3870 -0.3318 -0.2766
 4388TIP3    H134579   0.416   4.285  12.304 -1.6023  0.0694  0.1392
 4388TIP3    H234580   0.458   4.223  12.436 -1.2903  0.2896  0.1462
 4389TIP3   OH234581   0.917   6.186  16.752  0.2188 -0.8181  0.0262
 4389TIP3    H134582   0.925   6.157  16.843 -2.7179  2.2463  1.4639
 4389TIP3    H234583   0.863   6.119  16.710  0.5903 -1.6621  0.8581
 4390TIP3   OH234584   2.853   5.854  15.580  0.1676  0.0139  0.0081
 4390TIP3    H134585   2.842   5.899  15.496 -0.2469  0.8025  0.4745
 4390TIP3    H234586   2.763   5.836  15.609  0.3176 -0.7127  0.0568
 4391TIP3   OH234587   5.554   1.271   5.596  0.5205  0.0789 -0.5323
 4391TIP3    H134588   5.611   1.196   5.613  1.3202  1.1432  1.8560
 4391TIP3    H234589   5.601   1.346   5.631 -1.5596  1.2675 -0.0908
 4392TIP3   OH234590   4.785   1.368  11.757  0.2544  1.1136 -0.3242
 4392TIP3    H134591   4.708   1.362  11.813  0.9614  2.3889  0.8555
 4392TIP3    H234592   4.750   1.397  11.672 -0.5723  1.6918  0.1959
 4393TIP3   OH234593   4.352   5.164   0.798  0.1759 -0.2685 -0.1500
 4393TIP3    H134594   4.325   5.109   0.872  0.8690  1.2650  1.3109
 4393TIP3    H234595   4.271   5.184   0.752 -0.2842 -1.1764  0.2364
 4394TIP3   OH234596   0.221   5.092  12.928 -0.4076  0.2205 -0.3453
 4394TIP3    H134597   0.162   5.039  12.981 -0.5209  1.4406  0.7990
 4394TIP3    H234598   0.308   5.058  12.948 -0.5371 -0.0176 -0.1880
 4395TIP3   OH234599   2.260   2.712   3.470  0.7433  0.6877 -1.1333
 4395TIP3    H134600   2.173   2.678   3.492 -0.1321  2.7509 -1.1107
 4395TIP3    H234601   2.249   2.807   3.473  3.3227  1.0301  0.0551
 4396TIP3   OH234602   4.578   4.326   5.934  1.2924 -0.4856 -0.3143
 4396TIP3    H134603   4.641   4.398   5.927  0.1840  0.4976 -0.5199
 4396TIP3    H234604   4.607   4.275   6.009  2.1226  0.1583 -0.1901
 4397TIP3   OH234605   1.447   0.014  11.658 -0.2631 -0.4013 -0.0069
 4397TIP3    H134606   1.447  -0.047  11.731  0.1737  1.5508  1.7400
 4397TIP3    H234607   1.539   0.038  11.647 -0.2791 -0.9478 -1.4705
 4398TIP3   OH234608   0.034   6.535   2.105 -0.1098  0.0950 -0.2148
 4398TIP3    H134609   0.050   6.624   2.139  1.1192 -0.2209  0.0787
 4398TIP3    H234610   0.083   6.478   2.163  0.0066 -0.6869 -1.0555
 4399TIP3   OH234611   3.977   0.319   4.577  0.3100  0.0016 -0.8881
 4399TIP3    H134612   3.959   0.285   4.665 -2.2639  1.6811 -0.6515
 4399TIP3    H234613   3.906   0.284   4.523  0.2537  1.1886 -1.6322
 4400TIP3   OH234614   4.054   4.266   5.799 -0.0592 -0.6165  0.5745
 4400TIP3    H134615   4.060   4.173   5.823 -0.2143 -0.5767  0.7589
 4400TIP3    H234616   3.965   4.277   5.766 -0.6599 -0.1165  2.2677
 4401TIP3   OH234617   1.112   2.169  12.891 -0.5083  0.5548 -0.1331
 4401TIP3    H134618   1.079   2.080  12.901  0.8356 -0.0168 -0.4763
 4401TIP3    H234619   1.064   2.205  12.816 -1.4480  0.3243  0.3481
 4402TIP3   OH234620   4.936   0.556  15.882 -0.6392  0.3315  0.5116
 4402TIP3    H134621   4.878   0.624  15.916 -0.7620  0.2372  0.4914
 4402TIP3    H234622   4.892   0.473  15.904 -0.8648  0.2723 -0.1281
 4403TIP3   OH234623   2.084   3.090  11.926 -0.0652  0.0536  0.1628
 4403TIP3    H134624   2.004   3.141  11.941  0.3029  0.3262  1.3291
 4403TIP3    H234625   2.059   3.000  11.946  0.0572  0.2219  1.1273
 4404TIP3   OH234626   6.322   5.462  16.873 -0.2314  0.4433 -0.0335
 4404TIP3    H134627   6.411   5.442  16.844 -0.7097  0.8565 -1.9026
 4404TIP3    H234628   6.269   5.388  16.842 -0.8224  1.0582 -0.5038
 4405TIP3   OH234629   6.372   1.373  14.345  0.2102 -0.4741 -0.1397
 4405TIP3    H134630   6.371   1.447  14.405 -0.3298 -0.6108  0.0289
 4405TIP3    H234631   6.448   1.388  14.288 -0.6851  0.9246 -1.0029
 4406TIP3   OH234632   2.954   4.322   5.071  0.2014  0.2147  0.4126
 4406TIP3    H134633   2.901   4.245   5.092 -0.2826  0.4897  0.2000
 4406TIP3    H234634   2.938   4.382   5.144  0.9087 -0.0476  0.7939
 4407TIP3   OH234635   5.946   4.280   3.894  0.0075  0.5069 -0.2948
 4407TIP3    H134636   6.019   4.302   3.836  0.8887  2.6655  1.4978
 4407TIP3    H234637   5.974   4.309   3.980 -2.7136  0.7882  0.5980
 4408TIP3   OH234638   3.714   3.448  12.133 -0.1855 -0.0469 -0.4636
 4408TIP3    H134639   3.713   3.413  12.222  1.1425 -0.2679 -0.5161
 4408TIP3    H234640   3.660   3.387  12.083 -0.8492  0.0149  0.1626
 4409TIP3   OH234641   2.933   4.252   0.455 -0.2097  0.4230  0.2527
 4409TIP3    H134642   2.888   4.263   0.372  0.0938 -2.7640 -0.4703
 4409TIP3    H234643   3.023   4.278   0.437 -0.3494  0.6386 -0.1393
 4410TIP3   OH234644   5.105   3.231   3.609 -0.2405 -0.0900  0.5032
 4410TIP3    H134645   5.128   3.160   3.669 -1.6785 -0.2162  0.9402
 4410TIP3    H234646   5.061   3.188   3.536  1.1832  0.1015 -0.5208
 4411TIP3   OH234647   6.210   2.188   4.469 -0.2290 -0.3410 -0.4776
 4411TIP3    H134648   6.229   2.270   4.515 -0.7936 -0.3632 -0.1950
 4411TIP3    H234649   6.262   2.122   4.515 -0.9127 -0.3913  0.2492
 4412TIP3   OH234650   1.857   4.786  13.475  0.1506 -0.4929 -0.7795
 4412TIP3    H134651   1.884   4.763  13.386  0.1520  0.2647 -0.9827
 4412TIP3    H234652   1.764   4.764  13.478  0.2840 -1.0866 -0.7646
 4413TIP3   OH234653   4.042   3.508  11.830 -0.2957 -0.4618  0.4589
 4413TIP3    H134654   4.119   3.564  11.828  1.0853 -2.1835 -2.5406
 4413TIP3    H234655   3.987   3.544  11.899  1.8517  2.6241  0.7452
 4414TIP3   OH234656   2.613   3.895   4.729 -0.2864 -0.4983  0.4820
 4414TIP3    H134657   2.655   3.860   4.651 -0.8923 -2.3688  0.9523
 4414TIP3    H234658   2.670   3.967   4.756 -0.5394  0.8385 -2.1701
 4415TIP3   OH234659   2.142   0.601  15.426 -0.2938 -0.7820 -0.2023
 4415TIP3    H134660   2.208   0.619  15.359  0.7333 -2.7306  0.1975
 4415TIP3    H234661   2.186   0.543  15.488 -1.8652 -0.7196  1.0419
 4416TIP3   OH234662   0.467   1.203   5.522  0.3662  0.0290 -0.2962
 4416TIP3    H134663   0.439   1.279   5.471 -1.2630 -0.9383 -0.9140
 4416TIP3    H234664   0.513   1.147   5.459 -0.2933 -0.4524 -0.3632
 4417TIP3   OH234665   6.627   3.838  13.334 -0.5727  0.3122 -0.0891
 4417TIP3    H134666   6.679   3.779  13.389 -0.2506  0.2653 -0.4410
 4417TIP3    H234667   6.670   3.923  13.341 -2.2979  1.0796  2.1834
 4418TIP3   OH234668   5.615   4.057  16.667  0.2676  0.4214 -0.4659
 4418TIP3    H134669   5.593   4.117  16.738 -0.2287 -0.2471 -0.0415
 4418TIP3    H234670   5.533   4.012  16.646  0.1647  1.3384 -2.1938
 4419TIP3   OH234671   4.325   4.326   1.524  0.0283 -0.1030 -0.1012
 4419TIP3    H134672   4.248   4.382   1.527 -1.5573 -2.1465 -0.3053
 4419TIP3    H234673   4.336   4.305   1.431 -1.1472 -2.2726  0.1736
 4420TIP3   OH234674   4.584   0.136  13.540  0.3721 -0.2141  0.1034
 4420TIP3    H134675   4.607   0.179  13.623 -0.1647  1.5068 -0.5927
 4420TIP3    H234676   4.591   0.205  13.475 -1.3534 -0.9750 -0.9605
 4421TIP3   OH234677   3.712   5.886   0.237 -0.1630 -0.1990  0.2656
 4421TIP3    H134678   3.690   5.969   0.280 -0.7904  0.3014 -0.9625
 4421TIP3    H234679   3.781   5.909   0.174 -1.0695 -0.3732 -0.8252
 4422TIP3   OH234680   3.572   4.931  11.618  0.3646  0.3641  0.2197
 4422TIP3    H134681   3.569   4.929  11.714  1.5556  0.0006  0.2607
 4422TIP3    H234682   3.622   5.009  11.597  0.7239  0.0583 -0.0841
 4423TIP3   OH234683   0.780   5.251   3.744  0.1569 -0.3694  0.2308
 4423TIP3    H134684   0.722   5.320   3.712  1.1290  0.2979 -0.1825
 4423TIP3    H234685   0.725   5.173   3.749 -1.0003  0.4628  0.8341
 4424TIP3   OH234686   1.328   1.930  16.972  0.0119  0.3278  0.2779
 4424TIP3    H134687   1.295   1.860  17.029 -0.3765  0.4046  0.1546
 4424TIP3    H234688   1.422   1.917  16.969  0.2156  1.0841  1.9967
 4425TIP3   OH234689   6.557   5.410  16.759  0.0784  0.0622 -0.1432
 4425TIP3    H134690   6.605   5.477  16.711  0.6576 -0.5030 -0.3699
 4425TIP3    H234691   6.531   5.346  16.692 -0.3144 -0.0276  0.0906
 4426TIP3   OH234692   5.066   0.659  15.393 -0.2455 -0.2913  0.6200
 4426TIP3    H134693   5.046   0.679  15.485 -1.8390 -1.1406  0.4965
 4426TIP3    H234694   5.037   0.738  15.346  2.1556  0.8696  0.9462
 4427TIP3   OH234695   0.791   0.650  16.771  0.0061  0.0049  0.1344
 4427TIP3    H134696   0.786   0.635  16.866  0.8119 -0.3778  0.1226
 4427TIP3    H234697   0.758   0.568  16.733 -2.3032  0.8903  0.0551
 4428TIP3   OH234698   0.965   3.258  16.139 -0.1141 -1.1526  0.2304
 4428TIP3    H134699   0.871   3.242  16.136 -0.3446 -0.0546  0.9338
 4428TIP3    H234700   0.983   3.280  16.230  0.4981  0.3456 -0.2119
 4429TIP3   OH234701   6.148   2.840  13.938  0.1107  0.1563 -0.3709
 4429TIP3    H134702   6.244   2.840  13.939  0.1638  2.5794  0.1865
 4429TIP3    H234703   6.125   2.790  13.859  1.6772 -3.0638  1.0223
 4430TIP3   OH234704   1.202   3.452  16.945  1.1616  0.2278 -0.3160
 4430TIP3    H134705   1.181   3.360  16.932  1.2135  0.4657 -2.4370
 4430TIP3    H234706   1.275   3.469  16.885  0.9170  1.7057 -0.2367
 4431TIP3   OH234707   1.591   0.082  12.433 -0.5758  0.3671  0.8688
 4431TIP3    H134708   1.538   0.058  12.356  1.3572  0.5500 -0.6040
 4431TIP3    H234709   1.562   0.171  12.455 -1.4817  0.1338  0.6615
 4432TIP3   OH234710   0.660   5.396   4.643  0.1167  0.2380 -0.0307
 4432TIP3    H134711   0.617   5.425   4.724 -2.0886 -1.7383 -0.3755
 4432TIP3    H234712   0.647   5.301   4.642  2.2001 -0.0967 -1.5740
 4433TIP3   OH234713   3.320   3.735   3.557 -0.2677  0.1308  0.4795
 4433TIP3    H134714   3.251   3.670   3.542  1.0108 -1.1294 -0.1824
 4433TIP3    H234715   3.299   3.807   3.498 -1.7190  0.3611  1.2385
 4434TIP3   OH234716   5.394   2.074  12.131 -0.2154 -0.0488 -0.1115
 4434TIP3    H134717   5.320   2.109  12.180 -0.8632  1.8138 -2.2409
 4434TIP3    H234718   5.471   2.102  12.181 -0.8765 -0.1775  1.0113
 4435TIP3   OH234719   5.106   0.453   4.443 -0.2360 -0.0340 -0.0216
 4435TIP3    H134720   5.179   0.496   4.488  0.9396 -0.5637 -1.3421
 4435TIP3    H234721   5.032   0.512   4.456  0.8774  1.4944 -0.2241
 4436TIP3   OH234722   3.408   2.223   5.267 -0.0573 -0.4195 -0.0265
 4436TIP3    H134723   3.440   2.301   5.220  1.6944  0.0430  1.8010
 4436TIP3    H234724   3.353   2.178   5.203  0.2432  1.4291 -1.6995
 4437TIP3   OH234725   4.498   1.394  11.776 -0.1184 -0.2321 -0.4743
 4437TIP3    H134726   4.429   1.419  11.837  0.7505  1.0259  0.0215
 4437TIP3    H234727   4.464   1.316  11.732 -2.4376  1.1087 -1.2022
 4438TIP3   OH234728   6.046   6.659   1.529 -0.0791 -0.2695  0.1430
 4438TIP3    H134729   5.989   6.733   1.508 -0.6426 -0.1430  1.9729
 4438TIP3    H234730   6.134   6.695   1.526 -0.3018  0.3018  0.3125
 4439TIP3   OH234731   5.326   4.680   1.415 -0.2674 -0.2179 -0.2767
 4439TIP3    H134732   5.387   4.754   1.421  0.2641 -0.7637  2.0125
 4439TIP3    H234733   5.239   4.721   1.415 -0.0307  0.4785  2.1765
 4440TIP3   OH234734   6.264   6.502   0.037  0.2932  0.3381 -0.3692
 4440TIP3    H134735   6.183   6.497  -0.015 -0.8382  2.4669  1.0109
 4440TIP3    H234736   6.278   6.413   0.068 -1.8115 -0.0315 -0.2970
 4441TIP3   OH234737   3.688   6.608   5.624  0.2626  0.3384  0.0791
 4441TIP3    H134738   3.758   6.626   5.687  1.4665  0.2003 -1.1708
 4441TIP3    H234739   3.661   6.695   5.592 -1.5273  0.5470  1.9314
 4442TIP3   OH234740   3.904   4.959  14.694  0.4372  0.3914  0.1644
 4442TIP3    H134741   3.903   4.929  14.603 -0.7835 -0.5824  0.4770
 4442TIP3    H234742   3.825   5.012  14.703  0.0400 -0.2977  0.8883
 4443TIP3   OH234743   4.061   2.158  17.006  0.2364 -0.1810 -0.2186
 4443TIP3    H134744   3.983   2.193  17.048 -0.7870 -1.1312 -1.2738
 4443TIP3    H234745   4.032   2.080  16.960  1.6176 -0.0578 -1.4007
 4444TIP3   OH234746   3.095   3.733   1.354 -0.2525  0.8989  0.5852
 4444TIP3    H134747   3.168   3.676   1.378  0.7817  1.7616 -0.3800
 4444TIP3    H234748   3.021   3.700   1.405  0.5580 -0.6294  0.8382
 4445TIP3   OH234749   2.724   1.681  14.962 -0.1298  1.2324  0.1340
 4445TIP3    H134750   2.730   1.588  14.986  0.6869  1.2938  0.1664
 4445TIP3    H234751   2.794   1.723  15.011  0.3178  1.6671 -0.8788
 4446TIP3   OH234752   2.696   0.213  14.784  0.0641 -0.1321 -0.1542
 4446TIP3    H134753   2.608   0.249  14.773  0.0641  0.1408  0.6928
 4446TIP3    H234754   2.682   0.123  14.813  0.0685 -0.6600 -1.6933
 4447TIP3   OH234755   4.921   0.621  12.817  0.3243 -0.3894  0.1028
 4447TIP3    H134756   4.935   0.571  12.737  0.7861  0.0714 -0.1081
 4447TIP3    H234757   4.906   0.711  12.788  1.3880 -0.0410  0.5559
 4448TIP3   OH234758   6.016   2.548   0.545 -0.1456  0.2906 -0.2164
 4448TIP3    H134759   5.967   2.474   0.581 -2.7758  2.4767  1.0248
 4448TIP3    H234760   5.996   2.547   0.452 -0.4589 -0.3390 -0.1481
 4449TIP3   OH234761   4.605   6.081  15.558 -0.1025  0.1522 -0.4749
 4449TIP3    H134762   4.700   6.085  15.575 -0.1361 -0.6392 -0.0857
 4449TIP3    H234763   4.577   5.998  15.596 -0.9214  0.2793 -0.7855
 4450TIP3   OH234764   3.312   3.404   5.539 -0.0468 -0.1517  0.1826
 4450TIP3    H134765   3.244   3.399   5.472 -1.5642 -1.4259  1.7145
 4450TIP3    H234766   3.387   3.446   5.495 -1.6534  0.9324 -1.6833
 4451TIP3   OH234767   4.073   4.128  15.419 -0.3692 -0.2183 -0.4287
 4451TIP3    H134768   4.138   4.197  15.435  0.2617 -1.0257  0.7291
 4451TIP3    H234769   4.060   4.128  15.325  1.1836  0.1219 -0.6788
 4452TIP3   OH234770   5.211   4.743  11.350 -0.1042  0.3837  0.2110
 4452TIP3    H134771   5.290   4.798  11.349  0.0070  0.2451 -1.5818
 4452TIP3    H234772   5.235   4.668  11.405  1.3812 -0.1240 -1.0613
 4453TIP3   OH234773   1.224   6.605   4.953  0.1099 -0.2686 -0.5195
 4453TIP3    H134774   1.262   6.666   5.016  1.2050 -1.1890 -0.2569
 4453TIP3    H234775   1.173   6.544   5.007 -0.2025 -0.1505 -0.6807
 4454TIP3   OH234776   1.835   4.604  15.588 -0.0942 -0.5194  0.8004
 4454TIP3    H134777   1.854   4.510  15.585 -0.1129 -0.5078  0.3466
 4454TIP3    H234778   1.917   4.646  15.562 -0.4479 -0.4445 -0.2104
 4455TIP3   OH234779   2.424   4.165  14.090 -0.7869 -0.1646 -0.0827
 4455TIP3    H134780   2.453   4.200  14.174 -1.6333 -1.1859  0.6739
 4455TIP3    H234781   2.357   4.100  14.114 -1.6416  0.1253 -1.5876
 4456TIP3   OH234782   0.275   1.672  13.085 -0.0935  0.1416  0.0269
 4456TIP3    H134783   0.236   1.639  13.166  1.0091 -1.7522 -0.1419
 4456TIP3    H234784   0.367   1.645  13.090  0.2603  1.0374 -1.3194
 4457TIP3   OH234785   5.423   4.614  13.100  0.2051  0.2719  0.2140
 4457TIP3    H134786   5.460   4.532  13.134  0.1925  0.7134  1.3079
 4457TIP3    H234787   5.351   4.585  13.044 -0.2001 -0.4567  1.0740
 4458TIP3   OH234788   4.979   3.884   1.744 -0.3899 -0.4734  0.2407
 4458TIP3    H134789   4.929   3.802   1.746  0.1644 -0.7995  1.2150
 4458TIP3    H234790   5.037   3.874   1.668 -2.6120  0.4444 -1.7059
 4459TIP3   OH234791   1.310   0.969   3.060  0.1274 -0.8211  0.2496
 4459TIP3    H134792   1.290   0.886   3.103  0.4277 -1.0094  0.0268
 4459TIP3    H234793   1.376   0.947   2.995  1.3397 -0.1231  1.2207
 4460TIP3   OH234794   0.958   5.640   1.493  0.0387  0.1585  0.1684
 4460TIP3    H134795   0.965   5.639   1.588 -2.5776  0.0340  0.4179
 4460TIP3    H234796   0.965   5.548   1.467  0.1436  0.1312  0.2943
 4461TIP3   OH234797   1.903   4.471  15.254  0.3402  0.2874  0.6218
 4461TIP3    H134798   1.948   4.512  15.328  1.4716 -1.2381  0.8467
 4461TIP3    H234799   1.886   4.381  15.283 -0.3699  0.0363 -0.5046
 4462TIP3   OH234800   3.504   1.090  16.742 -0.2376 -0.5696  0.0658
 4462TIP3    H134801   3.416   1.054  16.748 -0.7219  0.5211 -0.3390
 4462TIP3    H234802   3.495   1.181  16.768  0.3896  0.0941 -1.8792
 4463TIP3   OH234803   1.002   4.258   4.696  0.2581  0.6791 -0.3941
 4463TIP3    H134804   0.993   4.349   4.667  0.4804  0.7084 -0.3731
 4463TIP3    H234805   0.928   4.244   4.755 -1.1105  0.1546 -2.1463
 4464TIP3   OH234806   5.320   3.966  13.464 -0.0797  0.5036 -0.6768
 4464TIP3    H134807   5.412   3.968  13.491 -0.1987  1.2445 -0.3073
 4464TIP3    H234808   5.311   4.039  13.403 -0.9801  2.0650  1.2002
 4465TIP3   OH234809   1.078   3.768   3.352  0.0885 -0.2812 -0.4312
 4465TIP3    H134810   1.009   3.701   3.355  0.0077 -0.2058 -0.5698
 4465TIP3    H234811   1.132   3.744   3.277  0.6462 -0.7563  0.1169
 4466TIP3   OH234812   2.319   1.388  11.342  0.5264 -0.0999  0.1022
 4466TIP3    H134813   2.314   1.438  11.424 -1.1270 -0.6413  0.3621
 4466TIP3    H234814   2.398   1.334  11.352  0.8917  0.5603  0.9055
 4467TIP3   OH234815   0.003   0.655   3.547 -0.2631  0.5157 -0.6153
 4467TIP3    H134816  -0.021   0.607   3.468  0.6517 -0.6471 -0.2264
 4467TIP3    H234817   0.040   0.588   3.605  0.6368  1.6184  0.1332
 4468TIP3   OH234818   3.330   0.743   4.192 -0.3638 -0.5931 -0.0647
 4468TIP3    H134819   3.294   0.689   4.122 -0.5272  0.1002 -0.5263
 4468TIP3    H234820   3.422   0.755   4.168 -0.1271 -1.3407  0.4647
 4469TIP3   OH234821   4.258   0.704  12.730  0.4078 -0.3829 -0.2479
 4469TIP3    H134822   4.316   0.769  12.692 -4.5763  3.1293 -3.1163
 4469TIP3    H234823   4.270   0.626  12.676  1.1760  0.8366 -1.9029
 4470TIP3   OH234824   0.271   6.227  15.651  0.4194 -0.4715  0.1628
 4470TIP3    H134825   0.312   6.166  15.713  0.5952 -2.0669 -1.4549
 4470TIP3    H234826   0.335   6.298  15.642  1.2550 -1.1852  0.3485
 4471TIP3   OH234827   4.507   0.865   4.728 -1.0345 -0.3633 -0.4106
 4471TIP3    H134828   4.592   0.907   4.737 -0.8465 -1.0725  1.6377
 4471TIP3    H234829   4.447   0.924   4.774 -1.1589 -1.1300  0.4544
 4472TIP3   OH234830   2.575   4.675   2.869 -0.2042  0.2881  0.1484
 4472TIP3    H134831   2.644   4.700   2.931 -1.2600  0.9763  1.0927
 4472TIP3    H234832   2.495   4.712   2.906 -1.8872 -3.9728  1.3767
 4473TIP3   OH234833   4.922   3.646  16.053  0.6620  0.4881 -0.0245
 4473TIP3    H134834   4.936   3.560  16.012 -2.3843  0.5533 -1.4482
 4473TIP3    H234835   4.934   3.708  15.981 -1.0967  0.8963 -0.0058
 4474TIP3   OH234836   5.674   6.453   1.480  0.1226 -0.8875  0.7103
 4474TIP3    H134837   5.631   6.514   1.541 -2.1647 -0.8696 -0.7966
 4474TIP3    H234838   5.642   6.367   1.507  1.9983 -1.3036  1.7575
 4475TIP3   OH234839   0.730   5.678   3.187  0.3481  0.3227  0.6940
 4475TIP3    H134840   0.733   5.592   3.144  0.9507  1.0480 -0.8041
 4475TIP3    H234841   0.783   5.734   3.130 -1.9512  2.2676  0.3073
 4476TIP3   OH234842   5.060   6.068  11.303 -0.3041 -0.1625  0.2702
 4476TIP3    H134843   5.018   6.151  11.326  1.0101  0.2499  1.3220
 4476TIP3    H234844   5.154   6.086  11.308  0.1133 -2.3281  3.2926
 4477TIP3   OH234845   1.359   5.358  10.913 -0.1195  0.1125  0.0406
 4477TIP3    H134846   1.304   5.340  10.990  0.2660 -0.6849  0.1402
 4477TIP3    H234847   1.373   5.273  10.873  1.6780  0.1643  0.4585
 4478TIP3   OH234848   2.498   6.464  13.884 -0.1646  0.3148 -0.2593
 4478TIP3    H134849   2.537   6.384  13.849 -0.7495 -0.4156  0.7191
 4478TIP3    H234850   2.418   6.475  13.831 -0.8206 -0.5493  0.5076
 4479TIP3   OH234851   3.422   5.628  12.193 -0.2935  0.2069 -0.0798
 4479TIP3    H134852   3.336   5.612  12.155  0.1615 -3.9535  0.2504
 4479TIP3    H234853   3.408   5.703  12.252 -3.5261  0.0436 -0.4485
 4480TIP3   OH234854   3.215   3.025   0.406 -0.3728 -0.0464 -0.0315
 4480TIP3    H134855   3.308   3.009   0.418 -0.2967  0.3979 -0.0276
 4480TIP3    H234856   3.208   3.062   0.318 -0.4907  0.3737  0.1536
 4481TIP3   OH234857   2.065   1.763  12.591  0.1328 -0.2333 -0.3870
 4481TIP3    H134858   1.971   1.747  12.577  0.5086 -2.1828 -0.9768
 4481TIP3    H234859   2.070   1.801  12.679 -1.1690 -0.6040 -0.1326
 4482TIP3   OH234860   4.163   1.609   4.333  0.0676  0.2934 -0.6640
 4482TIP3    H134861   4.172   1.629   4.427 -0.2683  0.1465 -0.6002
 4482TIP3    H234862   4.081   1.651   4.308 -0.0330  0.0148 -0.8048
 4483TIP3   OH234863   1.260   2.924   5.817 -0.7467  0.3529 -0.5880
 4483TIP3    H134864   1.328   2.947   5.880 -1.3577  2.0704 -0.5071
 4483TIP3    H234865   1.307   2.876   5.748 -0.1123 -1.7620  1.2038
 4484TIP3   OH234866   2.115   1.902  10.747 -0.3453  0.0099  0.0958
 4484TIP3    H134867   2.148   1.833  10.805 -1.1341  0.2564  0.8727
 4484TIP3    H234868   2.024   1.876  10.730 -0.4646  0.5439 -0.0944
 4485TIP3   OH234869   1.012   4.751   2.682  0.0977  0.1719 -1.2971
 4485TIP3    H134870   1.032   4.731   2.591  1.0887 -1.1055 -0.8418
 4485TIP3    H234871   1.097   4.747   2.726 -0.5577 -0.8164 -0.0592
 4486TIP3   OH234872   6.609   4.428  10.844 -0.0551 -0.3600  0.0381
 4486TIP3    H134873   6.592   4.458  10.933  4.2020  1.3711  0.5025
 4486TIP3    H234874   6.599   4.507  10.790  1.2569 -0.4460 -0.3558
 4487TIP3   OH234875   2.752   1.940  13.502 -0.2323  0.1379 -0.2991
 4487TIP3    H134876   2.742   1.930  13.407 -0.1548  0.5137 -0.3505
 4487TIP3    H234877   2.664   1.965  13.532 -0.5100 -0.9832 -0.1251
 4488TIP3   OH234878   0.709   2.404   2.710  0.0112 -0.4191  0.3769
 4488TIP3    H134879   0.800   2.413   2.681 -0.0968  1.7203  0.5198
 4488TIP3    H234880   0.681   2.320   2.676  0.8770  0.5128 -3.0301
 4489TIP3   OH234881   5.731   5.298   1.850 -0.7902  0.3308  0.2027
 4489TIP3    H134882   5.817   5.313   1.889 -0.6427  0.8645 -0.3100
 4489TIP3    H234883   5.725   5.362   1.779 -1.0096 -0.6793 -0.7169
 4490TIP3   OH234884   4.001   1.098  15.712 -0.2254  0.4104  0.1162
 4490TIP3    H134885   4.000   1.083  15.806  0.8130 -2.3134 -0.2118
 4490TIP3    H234886   4.089   1.072  15.685 -0.7144  0.5094 -1.6970
 4491TIP3   OH234887   0.484   0.411   6.142 -0.2764 -0.0678  0.4142
 4491TIP3    H134888   0.552   0.454   6.194 -0.8796  1.2555  0.1606
 4491TIP3    H234889   0.439   0.353   6.204 -0.1206  0.4791  1.0463
 4492TIP3   OH234890   2.236   4.713  10.541  0.1670  0.4355 -0.3514
 4492TIP3    H134891   2.261   4.639  10.597  0.8753  0.8573 -0.0952
 4492TIP3    H234892   2.144   4.697  10.520  0.4222 -0.7509 -0.6550
 4493TIP3   OH234893   3.137   0.954  10.419 -0.0427  0.0528  0.4370
 4493TIP3    H134894   3.101   0.884  10.473  0.2165 -0.5614 -0.1662
 4493TIP3    H234895   3.231   0.939  10.419  0.0686  0.7277  0.7438
 4494TIP3   OH234896   0.533   3.498  15.654 -0.0058  0.0594  0.2471
 4494TIP3    H134897   0.602   3.486  15.590  0.5883  1.5115  0.5693
 4494TIP3    H234898   0.575   3.544  15.727 -0.8526 -0.8218  1.3350
 4495TIP3   OH234899   1.960   2.402   5.374  0.1233 -0.2510  0.6275
 4495TIP3    H134900   2.045   2.444   5.360  0.5100 -1.1276  0.2476
 4495TIP3    H234901   1.903   2.441   5.308 -0.2697  1.6332  2.0075
 4496TIP3   OH234902   6.036   2.399  11.727  0.5791  0.2637  0.1237
 4496TIP3    H134903   6.041   2.357  11.813  1.7017  2.3142  1.1553
 4496TIP3    H234904   5.950   2.442  11.726  0.4016 -0.0917  0.0502
 4497TIP3   OH234905   0.347   6.761  14.443 -0.1981  0.5921 -0.2793
 4497TIP3    H134906   0.442   6.752  14.449 -0.0930  1.0115 -1.1541
 4497TIP3    H234907   0.316   6.747  14.533  0.7032  0.6488  0.0533
 4498TIP3   OH234908   2.864   4.630  16.357  0.2227  0.2308  0.0935
 4498TIP3    H134909   2.893   4.644  16.267  1.4692  0.6628  0.5394
 4498TIP3    H234910   2.888   4.710  16.403 -0.3197 -0.0186  0.8377
 4499TIP3   OH234911   3.099   0.938   0.148  0.8585 -0.9545 -0.1519
 4499TIP3    H134912   3.119   0.865   0.207 -1.4201 -1.6835 -0.1709
 4499TIP3    H234913   3.039   0.900   0.084 -2.0216  1.2921  0.9927
 4500TIP3   OH234914   3.570   3.099   2.547 -0.1196 -0.8355  0.3834
 4500TIP3    H134915   3.661   3.070   2.535  0.1972 -0.0644  0.7959
 4500TIP3    H234916   3.538   3.113   2.458  1.0421  1.4115  0.2392
 4501TIP3   OH234917   5.171   2.162  11.407  0.3335 -0.3091 -0.2546
 4501TIP3    H134918   5.143   2.243  11.363  0.0795 -0.8271 -1.0785
 4501TIP3    H234919   5.113   2.154  11.482 -0.6638 -0.5020 -1.0183
 4502TIP3   OH234920   1.868   2.748  11.843 -0.0664 -0.5840 -0.6779
 4502TIP3    H134921   1.838   2.827  11.798 -3.6222 -1.5930 -0.3629
 4502TIP3    H234922   1.867   2.680  11.775 -1.7386 -1.3025  0.0121
 4503TIP3   OH234923   1.966   3.021   4.875 -0.0277  0.6838 -0.0636
 4503TIP3    H134924   1.997   3.075   4.948 -1.3703  0.1135  0.9661
 4503TIP3    H234925   2.042   2.969   4.850  0.6610  1.4305  0.4045
 4504TIP3   OH234926   0.683   5.465  17.111 -0.3426 -0.1794 -0.0720
 4504TIP3    H134927   0.622   5.538  17.124  0.2233  0.6464 -1.7245
 4504TIP3    H234928   0.647   5.416  17.037  0.6191 -0.0632 -0.6416
 4505TIP3   OH234929   3.741   2.729   4.784 -0.1361  0.2744  0.3839
 4505TIP3    H134930   3.650   2.700   4.790  0.0132 -0.0697  1.0275
 4505TIP3    H234931   3.776   2.683   4.708 -0.2207 -0.3755  0.7326
 4506TIP3   OH234932   0.031   6.332  14.659  0.4601  0.2246 -0.3397
 4506TIP3    H134933  -0.001   6.415  14.624  0.7890  0.8093  0.7018
 4506TIP3    H234934   0.094   6.357  14.727  0.8258 -0.8773 -0.2516
 4507TIP3   OH234935   5.664   4.866   4.628 -0.0180 -0.4558  0.2995
 4507TIP3    H134936   5.635   4.913   4.550 -0.3149 -0.9683  0.0983
 4507TIP3    H234937   5.697   4.935   4.686  3.2706 -0.3226 -1.5328
 4508TIP3   OH234938   4.551   0.774   5.401  0.1512 -0.5956 -0.2352
 4508TIP3    H134939   4.460   0.777   5.370  0.3823 -0.5174 -0.9074
 4508TIP3    H234940   4.565   0.859   5.444 -0.2229 -0.7756  0.2599
 4509TIP3   OH234941   4.444   4.791   2.261  0.0259 -0.0066 -0.0804
 4509TIP3    H134942   4.443   4.877   2.302  0.6767 -0.0003 -0.0570
 4509TIP3    H234943   4.384   4.738   2.313  0.1363  0.2499  0.3125
 4510TIP3   OH234944   4.977   3.827  13.797 -0.0088  0.4298  0.0800
 4510TIP3    H134945   5.034   3.862  13.729  0.1443 -0.7383 -0.4034
 4510TIP3    H234946   4.898   3.800  13.751 -0.1434  0.1790  0.4556
 4511TIP3   OH234947   0.307   4.345  14.160 -0.2806 -0.1699 -0.0435
 4511TIP3    H134948   0.256   4.388  14.229 -0.6890  0.0864 -0.5045
 4511TIP3    H234949   0.264   4.261  14.148 -0.6358  0.0756 -0.4828
 4512TIP3   OH234950   1.928   0.518   5.437  0.0884  0.2875  0.1851
 4512TIP3    H134951   2.018   0.493   5.459 -0.3167  0.3422  2.0370
 4512TIP3    H234952   1.879   0.506   5.518 -1.6701 -0.0612 -0.8729
 4513TIP3   OH234953   4.808   5.236   4.610  0.2403  0.0395 -0.2961
 4513TIP3    H134954   4.744   5.245   4.540  0.2549  0.5754 -0.2458
 4513TIP3    H234955   4.775   5.293   4.680 -0.5352 -1.5858  0.6982
 4514TIP3   OH234956   4.129   4.717   1.170  0.0534  0.0122 -0.8529
 4514TIP3    H134957   4.054   4.658   1.181 -1.3456  1.6388 -1.2684
 4514TIP3    H234958   4.090   4.801   1.147  2.0693  0.7127 -1.9270
 4515TIP3   OH234959   3.034   3.727   5.884 -0.1636  0.2955 -0.5506
 4515TIP3    H134960   2.964   3.670   5.916  0.9302 -1.0076 -0.3730
 4515TIP3    H234961   3.077   3.676   5.816 -0.1132  1.5558 -1.5020
 4516TIP3   OH234962   1.618   5.981   2.082  0.0996  0.6407 -0.1852
 4516TIP3    H134963   1.694   6.002   2.138  1.2264  0.6424 -1.6534
 4516TIP3    H234964   1.596   6.063   2.040 -2.1258  1.1471  1.7797
 4517TIP3   OH234965   2.014   3.161  11.035 -0.0671 -0.0169 -0.1652
 4517TIP3    H134966   2.058   3.134  11.115  0.4947  1.5434  0.0827
 4517TIP3    H234967   1.977   3.080  11.000  3.7459 -1.6802 -0.8935
 4518TIP3   OH234968   3.395   3.918   4.923 -0.5401 -0.4764  0.6727
 4518TIP3    H134969   3.490   3.922   4.936 -0.4308 -0.8406  0.0139
 4518TIP3    H234970   3.363   4.003   4.954  0.2455  0.5085 -1.0697
 4519TIP3   OH234971   4.910   1.777  13.798 -0.5622 -0.4608 -0.1181
 4519TIP3    H134972   4.936   1.765  13.890  1.2964 -0.8479 -0.6614
 4519TIP3    H234973   4.964   1.715  13.749 -0.3187  0.9045 -1.6557
 4520TIP3   OH234974   6.023   2.835   4.043 -0.0686 -0.2851 -0.0785
 4520TIP3    H134975   6.095   2.772   4.042  0.3653  0.0509  2.3184
 4520TIP3    H234976   5.946   2.784   4.021  0.3541 -1.5754  1.2193
 4521TIP3   OH234977   5.867   4.014   2.519 -0.2836 -0.4515 -0.0230
 4521TIP3    H134978   5.860   4.090   2.461  1.0334 -0.3510 -0.0907
 4521TIP3    H234979   5.913   3.948   2.467  0.6541 -0.4619  0.7926
 4522TIP3   OH234980   3.821   4.600  11.617  0.4212 -0.0217  0.0777
 4522TIP3    H134981   3.844   4.652  11.694  0.4305 -1.2906  0.9704
 4522TIP3    H234982   3.727   4.611  11.607  0.4025  0.0659  0.3445
 4523TIP3   OH234983   2.486   2.647   6.395 -0.0149  0.3055  0.0151
 4523TIP3    H134984   2.540   2.649   6.474 -2.1137  0.5825  1.5281
 4523TIP3    H234985   2.454   2.737   6.385 -0.3107  0.1244 -0.7778
 4524TIP3   OH234986   3.808   6.272   5.060 -0.1216  0.0085  0.5148
 4524TIP3    H134987   3.868   6.198   5.067  0.9887  0.8795  0.5252
 4524TIP3    H234988   3.859   6.340   5.016 -0.7003  1.1780  1.5835
 4525TIP3   OH234989   5.525   3.875   0.688 -0.3792 -0.3225 -0.2107
 4525TIP3    H134990   5.444   3.906   0.728 -0.1592  0.1482 -0.1150
 4525TIP3    H234991   5.507   3.785   0.663 -0.6741 -0.4816  0.5396
 4526TIP3   OH234992   4.548   0.251  11.109 -0.2143  0.9452 -0.2887
 4526TIP3    H134993   4.553   0.297  11.025 -1.4114 -0.0002 -0.9121
 4526TIP3    H234994   4.461   0.272  11.143  0.4726  1.8095  1.0460
 4527TIP3   OH234995   6.761   3.642   3.102 -0.6890 -0.3209  0.2183
 4527TIP3    H134996   6.789   3.575   3.164 -1.4392 -1.0992 -0.2729
 4527TIP3    H234997   6.790   3.609   3.017 -1.2316 -0.1104 -0.0481
 4528TIP3   OH234998   5.945   6.023   1.473  0.0532 -0.4339 -0.3562
 4528TIP3    H134999   5.985   6.110   1.470  1.3628 -1.0327 -1.1429
 4528TIP3    H235000   5.990   5.979   1.546 -1.6268 -0.0117  1.0006
 4529TIP3   OH235001   1.313   4.691  11.696 -0.3863 -0.2935 -0.0070
 4529TIP3    H135002   1.276   4.621  11.751 -1.7246 -1.3112 -2.0960
 4529TIP3    H235003   1.405   4.666  11.686 -0.5369 -1.0470  0.3632
 4530TIP3   OH235004   4.466   0.451  13.569 -0.9897  0.2499 -0.1700
 4530TIP3    H135005   4.489   0.532  13.524 -1.3616  1.7427  2.1790
 4530TIP3    H235006   4.396   0.413  13.515 -0.2556  1.0234 -1.7479
 4531TIP3   OH235007   6.648   3.819  13.746  0.2141 -0.2693 -0.1358
 4531TIP3    H135008   6.709   3.891  13.728  1.2375 -1.0060  0.3178
 4531TIP3    H235009   6.684   3.744  13.699 -1.3565 -0.3038 -1.4025
 4532TIP3   OH235010   5.942   4.546   2.079  0.2506 -0.8150  0.1423
 4532TIP3    H135011   5.956   4.465   2.029  0.3529 -0.0449 -1.1222
 4532TIP3    H235012   5.869   4.589   2.034 -0.9894 -1.0106  1.8645
 4533TIP3   OH235013   4.628   3.521  11.255 -0.1635 -0.0953 -0.2118
 4533TIP3    H135014   4.547   3.517  11.204  0.3239 -1.9569 -0.9468
 4533TIP3    H235015   4.599   3.531  11.345 -1.2004 -0.3176 -0.5016
 4534TIP3   OH235016   4.618   6.611   2.243  0.0389  0.2226  0.2524
 4534TIP3    H135017   4.557   6.647   2.308 -0.2872 -0.3949  0.2906
 4534TIP3    H235018   4.568   6.543   2.198  0.2773  0.6104 -0.6283
 4535TIP3   OH235019   5.526   6.381  13.371  0.0633 -0.1659 -0.4764
 4535TIP3    H135020   5.478   6.455  13.410 -0.6519 -0.9600  0.1891
 4535TIP3    H235021   5.615   6.390  13.405  0.6568  1.7963 -2.3671
 4536TIP3   OH235022   6.428   0.471  16.922 -0.3870  0.3686 -0.2132
 4536TIP3    H135023   6.399   0.413  16.851  1.1566 -0.2098 -0.4005
 4536TIP3    H235024   6.514   0.439  16.946 -0.5622  1.0385  1.4328
 4537TIP3   OH235025   1.944   4.879  13.045 -0.5789 -0.2501  0.6980
 4537TIP3    H135026   1.867   4.933  13.033 -0.1138  0.7038  1.7955
 4537TIP3    H235027   1.974   4.858  12.957 -1.1999  0.6671  0.2629
 4538TIP3   OH235028   3.094   2.110  15.066 -0.6736  0.2081 -0.3296
 4538TIP3    H135029   3.076   2.189  15.118  1.6935 -0.4353  1.6993
 4538TIP3    H235030   3.153   2.058  15.121 -0.7430 -2.1851 -2.3224
 4539TIP3   OH235031   5.130   5.015  16.039  0.3131  0.3976  0.3076
 4539TIP3    H135032   5.068   5.066  15.988  0.6712 -1.8212 -2.6428
 4539TIP3    H235033   5.216   5.037  16.002  0.9912  0.9889  2.1044
 4540TIP3   OH235034   2.189   0.714  16.002 -0.2136  0.2800  0.4546
 4540TIP3    H135035   2.155   0.727  15.914  3.4488  1.8722 -0.8954
 4540TIP3    H235036   2.232   0.629  16.000  1.1017  0.9375  0.2338
 4541TIP3   OH235037   0.099   3.894   2.436  0.2531  0.7829  0.0112
 4541TIP3    H135038   0.128   3.968   2.489 -1.9876  0.6626  1.5611
 4541TIP3    H235039   0.021   3.927   2.391  0.6267  0.0636 -1.1993
 4542TIP3   OH235040   3.914   2.469   2.316 -0.4483 -0.2728  0.0328
 4542TIP3    H135041   3.850   2.431   2.376 -0.4413  0.0232  0.2257
 4542TIP3    H235042   3.909   2.563   2.331  1.1262 -0.3355  1.1614
 4543TIP3   OH235043   5.313   4.292  16.746 -0.4653  0.4206  0.1952
 4543TIP3    H135044   5.384   4.355  16.732 -0.9713  0.6497 -1.6206
 4543TIP3    H235045   5.250   4.339  16.801  0.4648  0.4271  1.3020
 4544TIP3   OH235046   3.109   0.660   3.265 -0.4731 -0.5750 -0.5020
 4544TIP3    H135047   3.027   0.655   3.313  0.0075 -2.8408  0.2253
 4544TIP3    H235048   3.176   0.635   3.329  0.4659 -1.3507 -1.7344
 4545TIP3   OH235049   0.337   3.368   6.017 -0.0248  0.6283 -0.4906
 4545TIP3    H135050   0.314   3.294   5.961  0.9200  0.5428 -0.8021
 4545TIP3    H235051   0.433   3.370   6.014  0.2118 -0.5684  2.6917
 4546TIP3   OH235052   4.631   5.252  10.682 -0.2807 -0.2320  0.5936
 4546TIP3    H135053   4.710   5.299  10.711 -0.8421  1.3296 -0.2705
 4546TIP3    H235054   4.632   5.170  10.732  1.6655 -0.0772  0.8919
 4547TIP3   OH235055   5.077   1.061   2.739 -0.0155 -0.2945 -0.3821
 4547TIP3    H135056   5.141   1.131   2.755 -0.7286 -0.0548  1.7411
 4547TIP3    H235057   5.072   1.014   2.822 -1.3510 -1.3689 -1.0320
 4548TIP3   OH235058   5.837   1.981  13.666 -0.2391 -0.1312  0.0705
 4548TIP3    H135059   5.784   2.052  13.630 -0.2798  0.9882  2.2231
 4548TIP3    H235060   5.782   1.941  13.733  0.5930 -0.7796  0.3866
 4549TIP3   OH235061   5.610   2.084  12.466  0.1167  0.9625 -0.3226
 4549TIP3    H135062   5.547   2.153  12.445 -1.1432 -0.3522 -1.1339
 4549TIP3    H235063   5.605   2.074  12.561 -0.5331  1.2286 -0.3223
 4550TIP3   OH235064   3.816   3.931  12.428  0.0066  0.4563 -0.3752
 4550TIP3    H135065   3.794   3.838  12.418 -2.8001  1.0881 -1.0554
 4550TIP3    H235066   3.733   3.972  12.452  0.7607  3.0632 -1.8871
 4551TIP3   OH235067   0.926   1.312   6.206  0.5940  0.4422 -0.1389
 4551TIP3    H135068   0.988   1.382   6.185  1.5020 -0.4879 -0.6368
 4551TIP3    H235069   0.968   1.263   6.277  0.5112 -0.2854 -0.5808
 4552TIP3   OH235070   1.516   2.226  11.687 -0.5942 -0.2136  0.1387
 4552TIP3    H135071   1.421   2.235  11.699 -0.6512 -0.1275 -0.3424
 4552TIP3    H235072   1.535   2.136  11.712 -0.8798 -0.3743 -0.2097
 4553TIP3   OH235073   1.262   6.675   1.597  0.0467 -0.0638 -0.1643
 4553TIP3    H135074   1.324   6.658   1.667 -0.1400  0.4691  0.1383
 4553TIP3    H235075   1.226   6.589   1.574  0.3878 -0.2828  0.1309
 4554TIP3   OH235076   1.372   3.673  13.659  0.0128  0.0872 -0.4164
 4554TIP3    H135077   1.402   3.582  13.667 -0.8030 -0.0766  1.2384
 4554TIP3    H235078   1.317   3.673  13.581 -0.9986 -1.1679  0.2524
 4555TIP3   OH235079   5.340   0.613  14.960 -0.2209 -0.2254  0.5746
 4555TIP3    H135080   5.295   0.696  14.949 -0.4516 -0.4331 -0.0784
 4555TIP3    H235081   5.422   0.623  14.913 -0.5368 -0.5869 -0.0678
 4556TIP3   OH235082   4.455   5.953  16.232  0.0488  0.4163 -0.0012
 4556TIP3    H135083   4.536   5.903  16.238 -0.4172 -0.2348  1.5349
 4556TIP3    H235084   4.477   6.038  16.271  0.1935  0.5084 -0.2858
 4557TIP3   OH235085   0.906   1.727   0.928  0.6236 -0.3151  0.0454
 4557TIP3    H135086   0.962   1.651   0.945  1.0376  0.0027  0.1087
 4557TIP3    H235087   0.938   1.794   0.988  0.6819  0.1186 -0.4621
 4558TIP3   OH235088   6.754   1.652   6.182 -0.2632  0.3684 -0.0276
 4558TIP3    H135089   6.701   1.713   6.232 -0.7070  0.6557 -0.8256
 4558TIP3    H235090   6.826   1.628   6.241 -0.8193  0.6191  0.7647
 4559TIP3   OH235091   1.714   1.250  16.482 -0.3710 -0.1642  0.6577
 4559TIP3    H135092   1.752   1.337  16.485 -0.3007 -0.0707 -1.4027
 4559TIP3    H235093   1.620   1.264  16.492 -0.4060  0.2296 -0.1187
 4560TIP3   OH235094   4.425   2.219  16.845  0.6865 -0.3374  0.1434
 4560TIP3    H135095   4.399   2.286  16.908  0.2167 -1.1389  0.8153
 4560TIP3    H235096   4.343   2.195  16.802  0.7252 -1.0498  0.4661
 4561TIP3   OH235097   4.109   4.673   3.602  0.7817  0.1544 -0.2408
 4561TIP3    H135098   4.115   4.601   3.665  0.1529  0.9571  0.7723
 4561TIP3    H235099   4.119   4.752   3.655 -0.6468  0.8870 -1.0088
 4562TIP3   OH235100   6.755   2.845  16.166  0.7847  0.3748 -0.5247
 4562TIP3    H135101   6.724   2.866  16.078  1.8188  1.6400 -0.6216
 4562TIP3    H235102   6.840   2.801  16.152  1.0456  0.7533 -0.1581
 4563TIP3   OH235103   3.173   5.757  13.277 -0.5048  0.2009  0.6635
 4563TIP3    H135104   3.100   5.702  13.304 -0.4842 -0.5197 -0.6694
 4563TIP3    H235105   3.134   5.844  13.264 -0.6645  0.3728  2.1117
 4564TIP3   OH235106   2.379   1.931   1.672  0.2453  0.1996 -0.2238
 4564TIP3    H135107   2.380   1.986   1.750 -1.4707  0.1197 -0.1142
 4564TIP3    H235108   2.355   1.991   1.601  1.1891  0.1477 -0.6022
 4565TIP3   OH235109   3.973   5.624   4.963 -0.2338  0.5629  0.2497
 4565TIP3    H135110   3.987   5.648   5.054  0.8894 -1.3825  0.6392
 4565TIP3    H235111   3.939   5.704   4.922 -1.0556  1.3922  2.4056
 4566TIP3   OH235112   2.870   5.345   2.417  0.4718 -0.3965 -0.8733
 4566TIP3    H135113   2.850   5.406   2.346  1.2721  0.8889 -0.0568
 4566TIP3    H235114   2.786   5.329   2.459  0.4335  1.5605 -0.0657
 4567TIP3   OH235115   2.576   0.221  15.393 -0.9076  0.0896  0.0811
 4567TIP3    H135116   2.568   0.134  15.433 -1.2232  0.6784  1.3545
 4567TIP3    H235117   2.600   0.278  15.466 -1.0768  1.1391 -0.6691
 4568TIP3   OH235118   3.999   6.215  13.878  0.2324 -0.6880  0.5340
 4568TIP3    H135119   3.995   6.302  13.917  0.8095  0.0514 -1.0048
 4568TIP3    H235120   4.093   6.193  13.880 -0.0256 -1.9018  2.1592
 4569TIP3   OH235121   2.542   6.237   4.908  0.3508  0.4423  0.2374
 4569TIP3    H135122   2.518   6.186   4.831 -0.2400 -0.9319  1.2699
 4569TIP3    H235123   2.460   6.243   4.958  1.1204 -0.3516  1.6478
 4570TIP3   OH235124   1.362   6.632  14.868 -0.0312 -0.2707  1.0119
 4570TIP3    H135125   1.323   6.719  14.857 -0.4771 -0.4795  0.9260
 4570TIP3    H235126   1.332   6.582  14.792  1.0114 -0.2182  0.5586
 4571TIP3   OH235127   6.735   2.876  13.035  0.0407  0.7372  0.4043
 4571TIP3    H135128   6.712   2.852  12.945 -0.8111 -0.2125  0.8471
 4571TIP3    H235129   6.682   2.954  13.053 -1.3105 -0.1953  0.6962
 4572TIP3   OH235130   1.997   5.807  13.131 -0.5252 -0.4334 -0.2660
 4572TIP3    H135131   1.942   5.733  13.159 -1.1840  0.4956  1.0142
 4572TIP3    H235132   2.026   5.846  13.213 -0.6678  1.0736 -0.9129
 4573TIP3   OH235133   5.269   2.279  14.000 -0.0477 -0.4603 -0.4161
 4573TIP3    H135134   5.202   2.325  14.050 -0.1517 -1.3811  0.3291
 4573TIP3    H235135   5.351   2.324  14.021 -0.1259 -0.6868  0.4165
 4574TIP3   OH235136   0.716   4.504  16.413  0.1727 -0.3581  0.3676
 4574TIP3    H135137   0.680   4.571  16.356  0.2567 -0.4909  0.1558
 4574TIP3    H235138   0.667   4.425  16.390  1.4785 -0.8542 -0.8602
 4575TIP3   OH235139   6.485   6.151  16.076 -0.1728  0.3668  0.0442
 4575TIP3    H135140   6.553   6.199  16.027  0.5233 -0.2963  0.3366
 4575TIP3    H235141   6.494   6.060  16.045 -0.2551  0.0905  0.8118
 4576TIP3   OH235142   6.519   4.045   0.730 -0.2971 -0.4751  0.3333
 4576TIP3    H135143   6.507   4.138   0.713 -0.6577 -0.5891 -0.0411
 4576TIP3    H235144   6.574   4.014   0.658  0.6488 -0.3565  0.9836
 4577TIP3   OH235145   3.807   5.094  13.943  0.4054 -0.5044 -0.5015
 4577TIP3    H135146   3.859   5.013  13.935 -0.3442 -0.9553 -1.0027
 4577TIP3    H235147   3.716   5.064  13.937  0.1386  0.4724 -1.5861
 4578TIP3   OH235148   3.763   0.170   2.793  0.5679  0.1479  0.5264
 4578TIP3    H135149   3.674   0.205   2.796  0.1730 -0.6900 -0.6111
 4578TIP3    H235150   3.805   0.216   2.720  0.9059  0.1995  0.7539
 4579TIP3   OH235151   5.575   2.677  15.621 -0.0764 -0.4039  0.8240
 4579TIP3    H135152   5.537   2.688  15.533 -0.4640 -0.0154  1.0364
 4579TIP3    H235153   5.509   2.627  15.669 -0.5389  0.6462  1.3215
 4580TIP3   OH235154   1.840   3.938  16.191 -0.0768 -0.0897 -0.2436
 4580TIP3    H135155   1.832   3.920  16.097  2.0165 -2.1145 -0.1196
 4580TIP3    H235156   1.773   3.882  16.231  0.9232 -1.4498 -0.3985
 4581TIP3   OH235157   2.395   3.913  15.307 -0.0700  0.5365 -0.7114
 4581TIP3    H135158   2.418   3.903  15.399 -1.2681  1.6413 -0.2603
 4581TIP3    H235159   2.430   3.999  15.283  2.2088 -0.6442 -1.9679
 4582TIP3   OH235160   5.743   4.399  11.465 -0.2507 -0.4155 -0.9149
 4582TIP3    H135161   5.733   4.493  11.481  2.7713 -0.4458  3.1150
 4582TIP3    H235162   5.655   4.364  11.470 -1.3289  2.0526 -1.1159
 4583TIP3   OH235163   1.711   3.405  17.212  0.4981 -0.0982  0.1180
 4583TIP3    H135164   1.763   3.429  17.288  0.9620 -0.7257  0.0035
 4583TIP3    H235165   1.772   3.409  17.138  0.7126 -1.9653  0.1408
 4584TIP3   OH235166   2.589   0.162  17.254  0.0318  0.4567  0.1264
 4584TIP3    H135167   2.653   0.127  17.192 -0.5687  1.0476 -0.8409
 4584TIP3    H235168   2.542   0.086  17.286 -1.6895  0.3372 -2.4220
 4585TIP3   OH235169   1.621   5.351   5.820  0.4939 -0.3255 -0.0704
 4585TIP3    H135170   1.577   5.309   5.746  0.1623  0.7889 -0.5335
 4585TIP3    H235171   1.569   5.326   5.896 -1.3227  1.3935 -0.6692
 4586TIP3   OH235172   1.506   4.602  12.874  0.0464 -0.6586 -0.5437
 4586TIP3    H135173   1.436   4.661  12.904  1.0755  0.1068  0.4342
 4586TIP3    H235174   1.495   4.524  12.928 -2.2467 -2.0989 -2.8380
 4587TIP3   OH235175   4.368   5.836   1.802 -0.3126  0.3795  0.8039
 4587TIP3    H135176   4.400   5.830   1.892  0.9244 -0.8886  0.3158
 4587TIP3    H235177   4.340   5.747   1.780  0.8527  0.3237 -0.5655
 4588TIP3   OH235178   0.558   0.740   5.220 -0.3592  0.8576  0.2034
 4588TIP3    H135179   0.513   0.766   5.300 -0.9155 -1.1926  0.6166
 4588TIP3    H235180   0.554   0.644   5.220  2.2445  0.6530 -0.7842
 4589TIP3   OH235181   4.305   4.736  16.359 -0.0488  0.0293 -0.5925
 4589TIP3    H135182   4.285   4.708  16.448 -0.4456 -0.4154 -0.8136
 4589TIP3    H235183   4.294   4.831  16.361  0.9072  0.1348  0.0693
 4590TIP3   OH235184   6.315   4.434  14.980 -0.7048 -0.0580 -0.3398
 4590TIP3    H135185   6.243   4.371  14.972 -1.0840  0.0904  1.5297
 4590TIP3    H235186   6.366   4.422  14.899 -2.4487 -0.6108 -1.4190
 4591TIP3   OH235187   5.705   0.670  12.822 -0.5322  0.0702 -0.0887
 4591TIP3    H135188   5.772   0.663  12.890 -1.3818 -0.0654  0.7603
 4591TIP3    H235189   5.724   0.598  12.762  0.4537  0.4167 -0.2119
 4592TIP3   OH235190   0.423   5.565   5.150  0.2050 -0.4756 -0.1728
 4592TIP3    H135191   0.331   5.541   5.157 -0.1608  0.9402  0.1642
 4592TIP3    H235192   0.450   5.580   5.241 -0.0346  1.8589 -0.4218
 4593TIP3   OH235193   2.603   3.061   1.247 -0.1684  0.4979  0.5426
 4593TIP3    H135194   2.547   3.138   1.249  0.2769  0.8635 -0.4071
 4593TIP3    H235195   2.692   3.095   1.248  0.0370  0.0321 -0.5111
 4594TIP3   OH235196   5.126   1.820   5.186 -0.2606 -0.6837 -0.3359
 4594TIP3    H135197   5.079   1.898   5.155  0.9509  0.3386  0.3223
 4594TIP3    H235198   5.075   1.790   5.261  0.5397  0.9177  0.8980
 4595TIP3   OH235199   6.414   2.671  17.199 -0.3418 -0.5912  0.3866
 4595TIP3    H135200   6.337   2.724  17.182 -0.8770 -1.6268 -0.5464
 4595TIP3    H235201   6.463   2.672  17.117  0.3518 -0.3993  0.7961
 4596TIP3   OH235202   5.900   0.492   6.715 -0.3847 -0.2891 -0.5369
 4596TIP3    H135203   5.904   0.452   6.801 -0.0278 -0.8383 -0.7997
 4596TIP3    H235204   5.956   0.569   6.721  0.5093 -0.9198 -0.5759
 4597TIP3   OH235205   0.397   3.200  16.895  0.2830 -0.3666  0.4383
 4597TIP3    H135206   0.307   3.211  16.866  0.9644  1.4594 -1.1700
 4597TIP3    H235207   0.389   3.185  16.990 -1.6872 -0.0148  0.3792
 4598TIP3   OH235208   3.291   0.275   3.564 -0.0382  0.6259  0.0630
 4598TIP3    H135209   3.383   0.251   3.566 -0.7685 -2.5521  1.6413
 4598TIP3    H235210   3.254   0.224   3.492 -1.0565 -0.4637  1.3177
 4599TIP3   OH235211   1.448   3.067   5.552 -0.7182  0.5729 -0.3164
 4599TIP3    H135212   1.534   3.106   5.537 -0.2239 -0.2430  0.2506
 4599TIP3    H235213   1.396   3.137   5.591  0.5050  0.4038  1.7769
 4600TIP3   OH235214   0.486   1.858  15.565  0.1775  0.1038 -0.3503
 4600TIP3    H135215   0.499   1.877  15.472  1.2840  0.4377 -0.1454
 4600TIP3    H235216   0.548   1.788  15.585 -0.5004 -0.4107  0.0003
 4601TIP3   OH235217   1.983   2.461   2.960  0.0185  0.2617 -0.2206
 4601TIP3    H135218   1.981   2.389   3.023 -2.9141  0.2139 -0.2054
 4601TIP3    H235219   2.006   2.538   3.012  0.8505 -0.2941  0.2417
 4602TIP3   OH235220   3.299   3.466   1.147  0.4256 -0.0284  0.6497
 4602TIP3    H135221   3.205   3.483   1.157  0.0568 -0.8876 -1.0523
 4602TIP3    H235222   3.317   3.485   1.055  1.0056 -3.8394 -0.1834
 4603TIP3   OH235223   6.483   6.158   1.537 -0.0959  0.1482 -0.5142
 4603TIP3    H135224   6.516   6.161   1.447 -0.7669  1.4173 -0.7363
 4603TIP3    H235225   6.561   6.149   1.592  0.5216  1.6800 -1.1002
 4604TIP3   OH235226   6.017   4.400   6.030  0.0326 -0.3007  0.4646
 4604TIP3    H135227   6.071   4.472   6.063 -1.2516  1.5986 -1.2696
 4604TIP3    H235228   6.049   4.322   6.076  2.4567  1.1216  1.3748
 4605TIP3   OH235229   3.176   0.330   3.796 -0.1560 -0.1345  0.1228
 4605TIP3    H135230   3.249   0.390   3.809 -1.1147  1.6967 -2.3480
 4605TIP3    H235231   3.186   0.298   3.706  0.0110 -3.3712  1.1568
 4606TIP3   OH235232   5.549   3.070   6.051  0.1328  0.3964  0.4038
 4606TIP3    H135233   5.624   3.052   5.995 -0.5212 -0.3846 -0.2379
 4606TIP3    H235234   5.479   3.094   5.991 -0.6334 -0.6414  0.8594
 4607TIP3   OH235235   2.253   6.751   6.058  0.0964  0.3075 -0.0878
 4607TIP3    H135236   2.190   6.814   6.025 -0.1863  0.9312  1.5659
 4607TIP3    H235237   2.282   6.787   6.142 -1.2313 -2.4599  1.7033
 4608TIP3   OH235238   3.245   3.341   1.477 -0.2401  0.0384 -0.2425
 4608TIP3    H135239   3.290   3.308   1.399  0.0573  1.2690 -0.6247
 4608TIP3    H235240   3.287   3.426   1.494 -1.6058  0.6711  0.1067
 4609TIP3   OH235241   6.343   6.100  15.234  0.0551 -0.2856  0.5794
 4609TIP3    H135242   6.357   6.117  15.141 -2.5845 -2.3931 -0.3352
 4609TIP3    H235243   6.363   6.007  15.244  2.8474  0.4287  2.7945
 4610TIP3   OH235244   2.089   2.083   2.451  0.1485  0.8378  0.1890
 4610TIP3    H135245   2.088   1.993   2.417 -0.2878  0.8305  0.2140
 4610TIP3    H235246   2.170   2.087   2.503  0.8398  0.8664 -0.8641
 4611TIP3   OH235247   6.024   2.310  14.143  0.1176  0.4478 -0.5097
 4611TIP3    H135248   5.980   2.255  14.079  1.0765 -0.2394 -0.5850
 4611TIP3    H235249   6.026   2.258  14.223 -0.3526  0.9891 -0.1309
 4612TIP3   OH235250   2.211   0.166  14.674 -0.0759 -0.0433  0.3470
 4612TIP3    H135251   2.294   0.127  14.646  0.1026  1.3818 -1.2858
 4612TIP3    H235252   2.145   0.125  14.618  0.2581  2.6798 -2.3182
 4613TIP3   OH235253   1.605   6.058   2.986  0.4771  0.4840 -0.3676
 4613TIP3    H135254   1.557   6.126   2.939 -0.2672 -1.1449 -2.1306
 4613TIP3    H235255   1.575   6.065   3.077 -1.1502  1.1893 -0.9170
 4614TIP3   OH235256   4.501   6.311  10.602 -0.2167  0.2630 -0.3924
 4614TIP3    H135257   4.470   6.370  10.670 -1.0749 -1.7558  1.0679
 4614TIP3    H235258   4.512   6.226  10.646  0.9335 -0.7086 -2.3783
 4615TIP3   OH235259   4.061   6.679  12.516 -0.0826 -0.2539  0.1154
 4615TIP3    H135260   4.008   6.723  12.582 -0.4506  1.2776 -1.1459
 4615TIP3    H235261   3.999   6.655  12.447  0.1406 -2.6185  0.6476
 4616TIP3   OH235262   6.293   1.914  15.302 -0.1705  0.1714  0.1511
 4616TIP3    H135263   6.277   1.909  15.396 -0.8083 -1.3598 -0.0258
 4616TIP3    H235264   6.328   1.829  15.279  2.7044  1.4315 -0.5465
 4617TIP3   OH235265   4.745   4.066   1.654 -0.4322  0.6098 -0.1177
 4617TIP3    H135266   4.795   3.986   1.672 -0.8991 -0.1542 -2.0189
 4617TIP3    H235267   4.809   4.137   1.664  1.2064 -0.3609 -2.7784
 4618TIP3   OH235268   1.162   3.441  13.767 -0.0708  0.3476 -0.6142
 4618TIP3    H135269   1.131   3.482  13.687  1.1745 -0.8284 -1.7659
 4618TIP3    H235270   1.241   3.395  13.741 -1.3315 -2.7502  0.5531
 4619TIP3   OH235271   5.956   6.416   4.333 -0.6623  0.0866 -0.2046
 4619TIP3    H135272   5.934   6.376   4.417  0.9377 -1.9394 -0.6806
 4619TIP3    H235273   5.912   6.362   4.268 -1.1207  1.0804 -0.7440
 4620TIP3   OH235274   0.158   1.284   0.626  0.4760 -0.3418  0.1628
 4620TIP3    H135275   0.245   1.269   0.590  0.2332 -0.5560 -0.3460
 4620TIP3    H235276   0.155   1.229   0.705  1.0795  0.2823  0.6306
 4621TIP3   OH235277   4.986   6.497   3.107  0.6368 -0.6583 -0.3221
 4621TIP3    H135278   4.996   6.574   3.051  0.4367 -0.0646  0.4399
 4621TIP3    H235279   4.910   6.450   3.071  0.5443 -0.3090 -0.5840
 4622TIP3   OH235280   1.964   0.419  16.349 -0.2087 -0.8813  0.2648
 4622TIP3    H135281   1.990   0.404  16.440 -2.8127  0.7181  1.3791
 4622TIP3    H235282   2.014   0.496  16.322 -1.2537  0.1750  1.2480
 4623TIP3   OH235283   4.389   2.648  15.162 -0.4260 -0.0152 -0.1035
 4623TIP3    H135284   4.484   2.651  15.175 -0.7350  0.2469  2.9231
 4623TIP3    H235285   4.376   2.681  15.073  2.3197 -0.5980 -0.8233
 4624TIP3   OH235286   5.902   1.142   3.532 -0.2631  0.3892  0.4743
 4624TIP3    H135287   5.966   1.197   3.577  0.3619 -1.1109  1.5161
 4624TIP3    H235288   5.824   1.146   3.587 -0.6646  1.1946 -0.1213
 4625TIP3   OH235289   0.713   4.840   4.693 -0.3449  0.1657 -0.2970
 4625TIP3    H135290   0.765   4.795   4.759 -1.4687 -0.4700  0.1924
 4625TIP3    H235291   0.758   4.821   4.610 -0.2055 -1.0083  0.0236
 4626TIP3   OH235292   4.088   5.488   5.274  0.3596  0.4339  0.0196
 4626TIP3    H135293   4.078   5.399   5.240  0.4809  0.8452 -1.1538
 4626TIP3    H235294   4.091   5.478   5.369  0.0704 -0.7801 -0.0885
 4627TIP3   OH235295   2.668   4.400   1.638 -0.7154  0.3947  0.3702
 4627TIP3    H135296   2.734   4.421   1.572 -0.6198 -0.5758  0.1471
 4627TIP3    H235297   2.716   4.353   1.706 -1.0874  0.1169  0.4408
 4628TIP3   OH235298   6.553   4.833   3.972  0.2110  0.1419  0.2104
 4628TIP3    H135299   6.612   4.897   4.012  1.1826 -1.1011  0.8243
 4628TIP3    H235300   6.608   4.782   3.914  0.3392 -2.4727  2.3906
 4629TIP3   OH235301   1.919   6.324   4.026  0.1152 -0.1902 -0.5419
 4629TIP3    H135302   1.824   6.339   4.021 -0.0132 -0.6954  0.2214
 4629TIP3    H235303   1.957   6.411   4.017 -0.5302  0.3861  1.6672
 4630TIP3   OH235304   0.249   1.766   4.998  0.4944  0.0458  0.0207
 4630TIP3    H135305   0.325   1.814   5.031  1.2530 -0.3405 -1.0988
 4630TIP3    H235306   0.214   1.821   4.929  0.0923 -0.0382  0.1595
 4631TIP3   OH235307   1.070   0.449   1.610  0.2592  0.0992 -0.4876
 4631TIP3    H135308   1.136   0.511   1.581  0.8944  0.6122  1.8557
 4631TIP3    H235309   1.103   0.415   1.693 -2.8996  1.3122  1.4656
 4632TIP3   OH235310   2.186   2.466   5.184 -0.4612  0.3749  0.1459
 4632TIP3    H135311   2.126   2.464   5.110  1.7468 -0.0465 -1.7463
 4632TIP3    H235312   2.204   2.373   5.203 -1.2637  0.4635  1.4839
 4633TIP3   OH235313   4.146   1.890  14.575 -0.0327  0.1906 -0.1142
 4633TIP3    H135314   4.185   1.832  14.510  0.9156 -0.2963  0.8587
 4633TIP3    H235315   4.112   1.831  14.642 -1.4065  0.6641 -0.3608
 4634TIP3   OH235316   4.382   3.445   1.893  0.0032 -0.4347  0.0293
 4634TIP3    H135317   4.367   3.351   1.898 -0.0883 -0.5151 -1.5109
 4634TIP3    H235318   4.477   3.455   1.897 -0.0310 -0.4701  1.6098
 4635TIP3   OH235319   1.526   0.796   5.323  0.0521  0.1436  1.0926
 4635TIP3    H135320   1.614   0.833   5.329  1.1879 -2.0953 -0.2883
 4635TIP3    H235321   1.535   0.707   5.358 -1.0088 -1.0221 -1.3438
 4636TIP3   OH235322   2.843   5.766  11.789  0.2895 -0.6351 -0.2343
 4636TIP3    H135323   2.771   5.810  11.742  1.4844  0.2140 -1.3406
 4636TIP3    H235324   2.877   5.703  11.726  1.6614  0.2361 -0.4195
 4637TIP3   OH235325   2.858   0.802   0.372 -0.7871  0.0460  0.7221
 4637TIP3    H135326   2.860   0.765   0.284  0.4808  1.8969 -0.0853
 4637TIP3    H235327   2.941   0.775   0.412  0.0831  1.7930  0.1773
 4638TIP3   OH235328   2.892   0.301   0.670 -0.3388 -0.5273 -0.2195
 4638TIP3    H135329   2.963   0.249   0.633  0.4097  0.7823 -0.6703
 4638TIP3    H235330   2.914   0.311   0.762  0.0114 -0.2171 -0.3350
 4639TIP3   OH235331   1.475   5.338  13.567  0.4358  0.2154 -0.4468
 4639TIP3    H135332   1.512   5.251  13.554  0.1165 -0.1148  0.7027
 4639TIP3    H235333   1.452   5.340  13.660 -1.5633  0.7262 -0.9005
 4640TIP3   OH235334   2.622   5.497  13.329  0.1260 -0.2506  0.3650
 4640TIP3    H135335   2.634   5.584  13.291 -0.9109 -0.8683 -1.4440
 4640TIP3    H235336   2.686   5.442  13.284  1.2963 -0.3468  2.0236
 4641TIP3   OH235337   6.046   1.221  13.144 -0.2800 -0.2375  0.1923
 4641TIP3    H135338   5.974   1.272  13.181  0.2038 -0.8200  2.0922
 4641TIP3    H235339   6.125   1.264  13.179  0.2253 -0.6417 -0.4350
 4642TIP3   OH235340   2.113   0.580   2.427 -0.3744 -0.2136  0.1812
 4642TIP3    H135341   2.101   0.664   2.383 -2.5953 -0.4624  0.2045
 4642TIP3    H235342   2.069   0.591   2.511  1.5525 -0.6007  1.3122
 4643TIP3   OH235343   0.135   3.797   5.662  0.2741  0.7153 -0.5495
 4643TIP3    H135344   0.114   3.708   5.691 -0.4997  0.8469 -0.7042
 4643TIP3    H235345   0.230   3.804   5.674 -0.0383  1.0428  2.7946
 4644TIP3   OH235346   6.405   0.747   5.531 -0.1155  0.0447  0.3640
 4644TIP3    H135347   6.461   0.818   5.499 -0.9186  1.1751  1.3689
 4644TIP3    H235348   6.462   0.696   5.588  1.4497 -2.2257 -2.9338
 4645TIP3   OH235349   2.117   1.785   2.283  0.9946  0.4255 -0.5650
 4645TIP3    H135350   2.109   1.696   2.251  1.0093  0.0221  0.5167
 4645TIP3    H235351   2.185   1.824   2.228  0.6201 -0.0524 -1.3910
 4646TIP3   OH235352   0.279   4.211  17.064  0.7228 -0.5583 -0.2819
 4646TIP3    H135353   0.247   4.228  16.975  0.6485  3.5356  0.3197
 4646TIP3    H235354   0.366   4.249  17.066  1.1315 -1.4914  1.1743
 4647TIP3   OH235355   3.791   3.492   4.564 -0.1776 -0.5700 -0.4664
 4647TIP3    H135356   3.742   3.546   4.501 -0.4581  1.4255  1.3663
 4647TIP3    H235357   3.870   3.541   4.582 -0.1958 -1.0002  0.8952
 4648TIP3   OH235358   4.629   3.617  13.058 -0.3609  0.9808 -0.5239
 4648TIP3    H135359   4.688   3.629  13.132 -1.1314  0.1453  0.2530
 4648TIP3    H235360   4.576   3.697  13.055 -1.5775  0.2836  1.0131
 4649TIP3   OH235361   4.266   2.308  14.975 -0.2968 -0.2462 -0.4182
 4649TIP3    H135362   4.215   2.372  14.925 -0.4694  1.0179  1.2888
 4649TIP3    H235363   4.357   2.336  14.965 -0.5288  1.8916  2.3267
 4650TIP3   OH235364   5.827   3.710  14.486 -0.1223  0.2150 -0.2890
 4650TIP3    H135365   5.838   3.793  14.441  0.1006  1.0003  1.1640
 4650TIP3    H235366   5.766   3.729  14.557 -0.0658 -0.8631  0.0653
 4651TIP3   OH235367   5.795   6.446   3.783 -0.3274 -0.1959 -0.8467
 4651TIP3    H135368   5.820   6.454   3.692  0.4917  1.6314 -0.5129
 4651TIP3    H235369   5.861   6.388   3.822  1.5724  1.9640 -0.6735
 4652TIP3   OH235370   0.992   1.705   3.885  0.3256 -0.2503 -0.5033
 4652TIP3    H135371   1.001   1.795   3.915  0.2952 -0.6306  0.7124
 4652TIP3    H235372   0.898   1.688   3.886  0.2918 -0.1196 -1.2840
 4653TIP3   OH235373   6.148   5.659  14.200  0.3159 -0.0052  0.1758
 4653TIP3    H135374   6.178   5.606  14.274  0.4749 -1.1503 -0.6896
 4653TIP3    H235375   6.222   5.660  14.139 -0.6314 -1.1075 -1.0390
 4654TIP3   OH235376   5.609   1.074  13.852 -0.7181 -0.0164 -0.1807
 4654TIP3    H135377   5.704   1.065  13.859 -0.8235 -0.8115  0.2993
 4654TIP3    H235378   5.595   1.166  13.830  0.1214  0.3642  0.8015
 4655TIP3   OH235379   4.467   6.083   1.046 -0.0428 -0.2259 -0.3999
 4655TIP3    H135380   4.459   6.033   1.127 -0.6837  1.1235  0.4208
 4655TIP3    H235381   4.552   6.126   1.053 -0.8212  1.2569  0.4168
 4656TIP3   OH235382   4.472   3.934   5.003 -0.2274 -0.0355 -0.7269
 4656TIP3    H135383   4.526   3.871   5.050  0.1681  1.7302  1.3648
 4656TIP3    H235384   4.527   4.013   4.997 -1.9890  1.3388  0.1569
 4657TIP3   OH235385   2.431   5.679  11.888  0.4028  0.4651  0.0368
 4657TIP3    H135386   2.507   5.675  11.946 -0.0281  0.9407  0.6413
 4657TIP3    H235387   2.460   5.634  11.809  1.4951  1.1259  0.0462
 4658TIP3   OH235388   0.487   4.004   1.800  0.5298 -0.1738 -0.3179
 4658TIP3    H135389   0.554   4.062   1.836 -0.0085  0.2615 -0.0039
 4658TIP3    H235390   0.416   4.007   1.864  0.6113 -1.4194 -0.1471
 4659TIP3   OH235391   3.967   6.471   0.121 -0.4481  0.3342 -0.2427
 4659TIP3    H135392   3.964   6.494   0.214 -1.6040  0.2907 -0.2487
 4659TIP3    H235393   4.057   6.444   0.106 -0.1761  0.5949  0.8037
 4660TIP3   OH235394   0.169   3.376  15.077 -0.1582 -0.0986  0.1758
 4660TIP3    H135395   0.149   3.388  14.984 -0.5606 -2.1177 -0.0490
 4660TIP3    H235396   0.109   3.435  15.122 -0.3340  0.5108 -0.8238
 4661TIP3   OH235397   6.033   1.688  11.512  0.4838  0.1289  0.6195
 4661TIP3    H135398   5.949   1.665  11.551 -1.1013  3.4056 -0.4694
 4661TIP3    H235399   6.090   1.704  11.588  0.4097 -2.6499  1.3741
 4662TIP3   OH235400   4.475   2.787   2.596 -0.4429  0.1274  0.1873
 4662TIP3    H135401   4.479   2.880   2.574 -0.8483  0.3354  0.9413
 4662TIP3    H235402   4.550   2.748   2.551 -1.4777  0.4187 -1.9330
 4663TIP3   OH235403   2.111   3.381   2.168 -0.5935 -0.2232  0.0029
 4663TIP3    H135404   2.143   3.295   2.196  0.8875 -0.1067 -1.1704
 4663TIP3    H235405   2.122   3.437   2.245  0.1124 -0.6888  0.2527
 4664TIP3   OH235406   1.948   3.757  16.730 -0.7629  0.0035  0.1688
 4664TIP3    H135407   2.000   3.769  16.651  0.1771  1.0264  0.9142
 4664TIP3    H235408   1.876   3.699  16.703 -0.8262  0.8241 -1.5792
 4665TIP3   OH235409   4.479   1.131   5.976 -0.4078  0.2434  0.0453
 4665TIP3    H135410   4.463   1.092   6.061 -1.2378  0.8784  0.2000
 4665TIP3    H235411   4.440   1.070   5.913 -1.5168  0.7024  0.2690
 4666TIP3   OH235412   3.314   2.758  14.595  0.1731  0.9405  0.1545
 4666TIP3    H135413   3.225   2.785  14.572  0.0455  1.1588  0.8799
 4666TIP3    H235414   3.307   2.665  14.617 -0.0896  1.2107  1.2688
 4667TIP3   OH235415   2.305   4.257   1.144 -0.3105 -0.1577 -0.2574
 4667TIP3    H135416   2.383   4.280   1.094 -0.5892 -0.4989 -0.8687
 4667TIP3    H235417   2.310   4.162   1.154 -1.7787 -0.5258 -2.3156
 4668TIP3   OH235418   1.824   0.530  14.626 -0.1520  0.1730  0.3764
 4668TIP3    H135419   1.905   0.480  14.640 -0.4741  0.1802  2.5852
 4668TIP3    H235420   1.754   0.468  14.645 -0.7529  0.0500 -1.9163
 4669TIP3   OH235421   0.012   6.575   2.577  0.4498  0.1317 -0.5658
 4669TIP3    H135422   0.075   6.536   2.517 -0.9006 -2.2613 -0.5248
 4669TIP3    H235423   0.062   6.588   2.658  2.1331  2.8943 -1.8915
 4670TIP3   OH235424   4.130   0.161  17.258 -0.0263  0.0707 -0.1375
 4670TIP3    H135425   4.065   0.142  17.190  0.1551 -0.2530 -0.2206
 4670TIP3    H235426   4.098   0.114  17.335  0.0279  0.0385 -0.1342
 4671TIP3   OH235427   0.469   2.895  17.052  0.5304  0.1348 -0.2092
 4671TIP3    H135428   0.387   2.910  17.006  0.6380  2.1420  0.1695
 4671TIP3    H235429   0.450   2.919  17.143  1.1059 -0.9717  0.2197
 4672TIP3   OH235430   5.293   1.582  16.427 -0.2083 -0.0956  0.0479
 4672TIP3    H135431   5.356   1.653  16.439  0.5132 -0.5852 -0.7006
 4672TIP3    H235432   5.298   1.532  16.508  0.3624 -0.1111  0.0079
 4673TIP3   OH235433   5.882   2.991   6.014  0.4013  0.2814 -0.0499
 4673TIP3    H135434   5.846   3.074   5.981 -1.7496 -0.7393 -0.4499
 4673TIP3    H235435   5.909   3.011   6.104 -0.2045  1.4132 -0.0952
 4674TIP3   OH235436   4.237   6.101   1.764  0.0015 -0.4068  0.1430
 4674TIP3    H135437   4.152   6.113   1.806  0.3777  0.7423  0.6217
 4674TIP3    H235438   4.253   6.007   1.770 -1.2902 -0.6686 -0.0825
 4675TIP3   OH235439   6.010   1.204  15.018  0.5555 -0.2389  0.8770
 4675TIP3    H135440   6.091   1.253  15.036  1.6634 -1.5709 -0.2309
 4675TIP3    H235441   5.996   1.151  15.096  0.3161  0.5193  1.3682
 4676TIP3   OH235442   1.959   6.220   2.007  0.5067  0.0038 -0.0456
 4676TIP3    H135443   2.004   6.185   1.930  0.0993 -1.0040  0.1573
 4676TIP3    H235444   2.026   6.225   2.074  0.4944 -0.7154  0.0210
 4677TIP3   OH235445   4.330   3.429   5.476 -0.3711  0.2076  0.0481
 4677TIP3    H135446   4.396   3.383   5.528  1.1632  0.5933 -1.4320
 4677TIP3    H235447   4.364   3.424   5.386 -1.8598  1.3326 -0.6143
 4678TIP3   OH235448   2.785   4.789  15.878  0.0890 -0.3101  0.3982
 4678TIP3    H135449   2.786   4.858  15.811 -0.2066  0.4528  1.1592
 4678TIP3    H235450   2.727   4.823  15.946  1.4997 -0.4139  1.7119
 4679TIP3   OH235451   5.291   4.452   1.657 -0.7384  0.0493  0.1915
 4679TIP3    H135452   5.226   4.479   1.593 -1.2235  0.4208  0.8369
 4679TIP3    H235453   5.375   4.480   1.619 -1.1201  1.3062  0.2520
 4680TIP3   OH235454   2.393   6.579  11.843 -0.1739 -0.2339  0.7829
 4680TIP3    H135455   2.464   6.535  11.890 -0.0374 -0.5947  0.2484
 4680TIP3    H235456   2.320   6.518  11.848  0.2890 -0.9671 -0.7523
 4681TIP3   OH235457   5.718   4.892  11.882  0.0713 -0.3531 -0.4297
 4681TIP3    H135458   5.739   4.934  11.798 -0.7362  1.8227  0.3756
 4681TIP3    H235459   5.774   4.938  11.945  1.5856 -2.7980  0.1290
 4682TIP3   OH235460   4.384   0.993   0.038 -0.0027 -0.3440  0.1797
 4682TIP3    H135461   4.463   1.030  -0.000  0.8701 -0.6466  1.6237
 4682TIP3    H235462   4.376   1.035   0.124 -1.9427  0.3654 -0.2764
 4683TIP3   OH235463   4.420   5.845  11.130 -0.0127  0.0120 -0.1089
 4683TIP3    H135464   4.410   5.753  11.152 -0.8075  0.3773  1.1316
 4683TIP3    H235465   4.382   5.892  11.203 -2.1878  1.3131 -1.9360
 4684TIP3   OH235466   0.121   1.919   1.502 -0.2365 -0.2390  0.3398
 4684TIP3    H135467   0.168   1.872   1.433 -2.8534 -1.6670 -0.6710
 4684TIP3    H235468   0.090   1.999   1.460 -0.3744 -0.2854  0.3497
 4685TIP3   OH235469   3.834   1.311   3.523 -0.2930 -0.1250  0.5487
 4685TIP3    H135470   3.756   1.284   3.475  1.7122 -1.8979 -1.9864
 4685TIP3    H235471   3.880   1.229   3.542  1.8238  0.9278  0.3261
 4686TIP3   OH235472   6.479   4.961   2.444  0.2175 -0.0622 -0.5218
 4686TIP3    H135473   6.520   4.880   2.473 -0.0954  0.0057  0.1168
 4686TIP3    H235474   6.538   4.995   2.376  0.3421 -0.8206 -0.7955
 4687TIP3   OH235475   2.636   1.403   2.597 -0.2298 -0.6222 -0.0863
 4687TIP3    H135476   2.551   1.369   2.568 -0.2569 -0.8426  0.2379
 4687TIP3    H235477   2.615   1.459   2.671 -0.2126  0.3570 -0.8092
 4688TIP3   OH235478   1.049   1.938  10.608 -0.5049  0.0056 -0.3759
 4688TIP3    H135479   0.964   1.894  10.605 -0.7090  0.4385 -1.1065
 4688TIP3    H235480   1.037   2.017  10.556 -0.6432  1.8182  2.1943
 4689TIP3   OH235481   1.851   1.525   4.090  0.7062  0.1327 -0.3816
 4689TIP3    H135482   1.891   1.575   4.018 -0.2151  2.0764  0.3820
 4689TIP3    H235483   1.924   1.507   4.150  1.0394  0.6441 -0.6226
 4690TIP3   OH235484   1.669   4.364   2.920  0.1043  0.2202 -0.1520
 4690TIP3    H135485   1.755   4.401   2.902  0.3088  0.5813  1.3978
 4690TIP3    H235486   1.610   4.409   2.859  0.5585  2.2168  0.7949
 4691TIP3   OH235487   2.381   6.369   3.587  0.3215  0.1230 -0.5760
 4691TIP3    H135488   2.416   6.392   3.501  1.9127 -0.6690 -0.1766
 4691TIP3    H235489   2.297   6.328   3.569  1.5374 -1.9000 -1.9498
 4692TIP3   OH235490   3.342   2.743   3.392 -0.0832  0.6380 -0.0959
 4692TIP3    H135491   3.363   2.661   3.347 -1.7475  0.4365 -0.5656
 4692TIP3    H235492   3.404   2.747   3.465  0.5133 -0.6653 -0.5050
 4693TIP3   OH235493   5.463   0.605  14.700  0.1575  0.7028  0.8005
 4693TIP3    H135494   5.518   0.536  14.738  0.2456  0.1152 -0.3632
 4693TIP3    H235495   5.522   0.653  14.642 -0.2839  0.7905  0.4217
 4694TIP3   OH235496   4.254   2.472   5.591 -0.0855 -0.3548 -0.1893
 4694TIP3    H135497   4.282   2.454   5.681  1.8900 -0.0032 -0.6702
 4694TIP3    H235498   4.198   2.549   5.598  1.2995  0.6362  0.6276
 4695TIP3   OH235499   2.616   0.564  13.703  0.1704  0.2447  0.1932
 4695TIP3    H135500   2.695   0.528  13.743  0.4424 -0.2624 -0.7892
 4695TIP3    H235501   2.591   0.500  13.637  0.2534  1.5132 -1.1033
 4696TIP3   OH235502   6.236   3.478  12.104  0.3458 -0.2882  0.3663
 4696TIP3    H135503   6.232   3.418  12.178  1.8940 -2.7588 -1.4074
 4696TIP3    H235504   6.212   3.425  12.028 -1.7112  2.2747 -0.9498
 4697TIP3   OH235505   3.126   2.972   1.364 -0.2073  0.2698  0.5714
 4697TIP3    H135506   3.200   2.986   1.304 -0.3932 -0.8464  0.0382
 4697TIP3    H235507   3.164   2.924   1.438  0.0548  1.7942  1.4595
 4698TIP3   OH235508   0.590   3.707  17.256 -0.0221  0.4181  0.1088
 4698TIP3    H135509   0.585   3.630  17.313  1.5669  0.1812 -0.0353
 4698TIP3    H235510   0.677   3.744  17.272 -0.6852  2.1100  0.0557
 4699TIP3   OH235511   6.441   2.450  12.850  0.5146 -0.1241  0.0111
 4699TIP3    H135512   6.469   2.440  12.941  1.0255  0.1686 -0.1110
 4699TIP3    H235513   6.510   2.407  12.799  1.3411  1.5390 -0.3573
 4700TIP3   OH235514   3.277   1.450  14.560 -0.0435  0.0168 -0.0280
 4700TIP3    H135515   3.328   1.466  14.640  0.6657 -0.2932 -0.4096
 4700TIP3    H235516   3.215   1.382  14.585 -0.7573  0.8955  0.6396
 4701TIP3   OH235517   2.750   2.778  10.837 -0.1644 -0.5221 -0.5192
 4701TIP3    H135518   2.783   2.689  10.845 -1.5282 -0.9457  1.0085
 4701TIP3    H235519   2.827   2.831  10.820  1.0273 -1.6824  1.0340
 4702TIP3   OH235520   4.479   2.133   3.622 -0.1516 -0.0634  0.1044
 4702TIP3    H135521   4.404   2.109   3.567  0.6685 -1.2540 -0.5415
 4702TIP3    H235522   4.506   2.219   3.589  0.6826 -1.0005 -1.8342
 4703TIP3   OH235523   0.109   1.692  12.299 -0.2356 -0.5889 -0.2026
 4703TIP3    H135524   0.202   1.709  12.312 -0.4635 -0.2721  1.1472
 4703TIP3    H235525   0.101   1.672  12.206  1.2247 -0.9382 -0.2714
 4704TIP3   OH235526   2.743   1.789  16.002  0.0363 -0.3004 -0.2631
 4704TIP3    H135527   2.810   1.837  15.953  0.8359  0.2610  1.2915
 4704TIP3    H235528   2.678   1.855  16.026  0.8416 -0.0399  1.3787
 4705TIP3   OH235529   6.344   3.249   1.635 -0.1766  0.2601  0.1724
 4705TIP3    H135530   6.371   3.223   1.723  3.2607  1.0828 -0.4982
 4705TIP3    H235531   6.308   3.337   1.646 -0.9692 -0.1387  0.8797
 4706TIP3   OH235532   4.392   6.087   4.505  0.8199  0.0920 -0.0565
 4706TIP3    H135533   4.350   6.081   4.591 -0.8312 -1.2503 -0.8798
 4706TIP3    H235534   4.478   6.046   4.517  0.6304 -0.0178  0.9780
 4707TIP3   OH235535   4.182   2.766  15.306  0.2539 -0.2452  0.2492
 4707TIP3    H135536   4.131   2.686  15.320  1.9285 -1.1422  1.6719
 4707TIP3    H235537   4.261   2.736  15.261  0.0189  0.9741 -1.0628
 4708TIP3   OH235538   5.945   2.434  12.369  0.1771 -0.1971  0.3625
 4708TIP3    H135539   6.000   2.359  12.392 -1.0140 -1.1899  0.1084
 4708TIP3    H235540   5.900   2.457  12.450  0.3734  0.0914  0.3888
 4709TIP3   OH235541   0.220   3.294  14.460 -0.1583 -0.3692  0.9926
 4709TIP3    H135542   0.307   3.318  14.427 -0.3646  0.4327  1.0010
 4709TIP3    H235543   0.195   3.368  14.516 -0.9708 -0.4535  0.7477
 4710TIP3   OH235544   0.723   2.109   1.571 -0.8281  0.0109  0.6357
 4710TIP3    H135545   0.773   2.190   1.561  0.6132 -0.8713  0.2637
 4710TIP3    H235546   0.687   2.091   1.484  1.1991 -1.1480 -0.0384
 4711TIP3   OH235547   0.890   1.414  12.166 -0.2158  0.2697  0.4452
 4711TIP3    H135548   0.891   1.319  12.175 -1.0728  0.2504  0.4413
 4711TIP3    H235549   0.834   1.430  12.090  0.3062  0.7644  0.1559
 4712TIP3   OH235550   5.301   1.904   2.706 -0.4861  0.5667  0.6902
 4712TIP3    H135551   5.275   1.829   2.759  1.3290 -0.4018  0.2862
 4712TIP3    H235552   5.227   1.918   2.646 -1.2589 -0.2488  1.4186
 4713TIP3   OH235553   4.006   5.253   5.864 -0.0095  0.0891  0.0932
 4713TIP3    H135554   3.974   5.166   5.841 -2.1415  1.1211 -1.1169
 4713TIP3    H235555   4.048   5.285   5.783 -2.5223  1.5478 -0.7350
 4714TIP3   OH235556   3.716   6.198  12.507  0.4715  0.5774  0.2449
 4714TIP3    H135557   3.704   6.229  12.596 -0.9839  0.8192  0.0013
 4714TIP3    H235558   3.721   6.103  12.515 -1.5195  0.4386  0.4702
 4715TIP3   OH235559   5.124   4.221   2.562  0.1273  0.3790 -0.1177
 4715TIP3    H135560   5.107   4.315   2.571 -0.6162  0.2594 -0.2404
 4715TIP3    H235561   5.109   4.186   2.650  1.7487  0.5663  0.2668
 4716TIP3   OH235562   5.489   4.554  11.269  0.4710 -0.6530  0.7191
 4716TIP3    H135563   5.549   4.604  11.215  1.6983 -2.0701  0.7155
 4716TIP3    H235564   5.483   4.603  11.351  0.8713 -0.0064  0.3692
 4717TIP3   OH235565   5.800   4.003  14.002  0.1215 -0.0185 -0.4370
 4717TIP3    H135566   5.844   3.952  13.935 -1.6450  0.6375 -2.2161
 4717TIP3    H235567   5.839   4.090  13.996  0.1711 -0.0379 -0.3960
 4718TIP3   OH235568   4.092   5.621  11.499  0.2002 -0.1164  0.4899
 4718TIP3    H135569   4.074   5.631  11.593 -0.0627 -0.8267  0.5254
 4718TIP3    H235570   4.017   5.660  11.456  1.0341  1.6050  0.5304
 4719TIP3   OH235571   2.394   6.755   0.080  0.2079  0.7541 -1.0370
 4719TIP3    H135572   2.359   6.824   0.136 -0.5469 -1.3494  1.2744
 4719TIP3    H235573   2.318   6.715   0.040  0.4047 -0.1540 -0.5430
 4720TIP3   OH235574   2.063   0.218   6.843 -0.0210 -0.4151  0.7606
 4720TIP3    H135575   2.049   0.126   6.868 -1.9937 -0.3759 -0.0419
 4720TIP3    H235576   2.137   0.215   6.782  0.8708 -1.2523  1.8226
 4721TIP3   OH235577   4.289   6.705   0.078 -0.0282 -0.3571 -1.0548
 4721TIP3    H135578   4.298   6.734  -0.012  0.5038 -1.6637 -1.4502
 4721TIP3    H235579   4.376   6.720   0.117  0.1379 -1.0024 -1.1556
 4722TIP3   OH235580   0.937   3.706   3.634  0.3363 -0.8689 -0.0068
 4722TIP3    H135581   0.853   3.743   3.606 -0.2036 -0.6783  1.7141
 4722TIP3    H235582   0.972   3.664   3.556 -1.4336 -1.0737 -0.7550
 4723TIP3   OH235583   3.616   3.702   3.410  0.1135  0.5144  0.3596
 4723TIP3    H135584   3.584   3.765   3.475 -1.5296  0.7760 -0.6442
 4723TIP3    H235585   3.685   3.749   3.363  1.2489  0.3572  1.8000
 4724TIP3   OH235586   2.415   0.764  12.424  0.2512 -0.0999 -0.2803
 4724TIP3    H135587   2.446   0.674  12.417 -1.3116 -0.9346  2.4416
 4724TIP3    H235588   2.492   0.813  12.452  0.7538 -0.8652 -0.2841
 4725TIP3   OH235589   6.641   1.208  13.522  0.3863 -0.4141 -0.3895
 4725TIP3    H135590   6.661   1.115  13.505 -1.2051 -1.0074  0.7156
 4725TIP3    H235591   6.672   1.223  13.611  2.1499  0.6367 -1.1241
 4726TIP3   OH235592   0.431   0.860   4.740  0.1234 -0.4887  0.4526
 4726TIP3    H135593   0.417   0.830   4.830 -1.0308 -0.3936  0.3102
 4726TIP3    H235594   0.346   0.853   4.698  0.4343  0.3985 -0.3609
 4727TIP3   OH235595   5.636   5.936   0.918 -0.3468  0.1196 -0.8297
 4727TIP3    H135596   5.685   5.864   0.879  1.3339  1.7032 -1.8539
 4727TIP3    H235597   5.593   5.979   0.844 -1.5933 -0.0028 -0.1996
 4728TIP3   OH235598   2.309   2.332   3.453 -0.8848  0.0864  0.2455
 4728TIP3    H135599   2.243   2.338   3.384 -1.3107 -1.0319  0.5253
 4728TIP3    H235600   2.383   2.382   3.420 -0.8771 -0.8703 -1.2836
 4729TIP3   OH235601   5.525   3.951   3.112 -0.5808  0.1026 -0.2154
 4729TIP3    H135602   5.539   3.901   3.193 -1.4167 -2.6765 -1.6620
 4729TIP3    H235603   5.474   4.027   3.139 -0.2320 -0.3564  1.9518
 4730TIP3   OH235604   1.337   5.551   5.508  0.3699  0.3171  0.3355
 4730TIP3    H135605   1.381   5.609   5.446  0.5073 -1.6915 -1.5645
 4730TIP3    H235606   1.245   5.579   5.506  0.2530 -0.0605 -1.2720
 4731TIP3   OH235607   1.058   3.816   6.726 -0.4133 -0.3040  0.1577
 4731TIP3    H135608   1.041   3.826   6.632 -0.2762  0.8079  0.2409
 4731TIP3    H235609   1.153   3.805   6.732 -0.2864  0.7264  0.2348
 4732TIP3   OH235610   6.634   0.833  15.208  0.2158  0.0596  0.2079
 4732TIP3    H135611   6.726   0.853  15.223  0.0162 -0.0298  1.6310
 4732TIP3    H235612   6.624   0.742  15.237 -0.3521  0.1220  0.2105
 4733TIP3   OH235613   1.702   0.910  16.238 -0.5729  0.0952 -0.5588
 4733TIP3    H135614   1.771   0.909  16.305 -1.3471  0.1650  0.2577
 4733TIP3    H235615   1.716   0.829  16.189  0.3129  0.2857 -0.6435
 4734TIP3   OH235616   2.707   1.949  10.528 -0.2056  0.1439  0.0321
 4734TIP3    H135617   2.758   1.935  10.607  1.5315 -1.7612 -1.2992
 4734TIP3    H235618   2.763   1.917  10.457 -1.4209  2.3097 -2.0756
 4735TIP3   OH235619   0.099   1.060   0.964 -0.0215 -0.0051 -0.1019
 4735TIP3    H135620   0.013   1.024   0.985  0.1791 -0.3189  0.1871
 4735TIP3    H235621   0.161   0.990   0.987  0.2286 -0.2411 -1.4267
 4736TIP3   OH235622   1.362   4.058   6.065 -0.1886  0.1463 -0.0806
 4736TIP3    H135623   1.367   4.077   6.159  2.4198 -0.9914  0.1253
 4736TIP3    H235624   1.441   4.099   6.029  0.0641 -1.3534 -1.3342
 4737TIP3   OH235625   0.602   0.771  13.657 -0.0802  0.1478 -0.2845
 4737TIP3    H135626   0.624   0.686  13.618 -2.4673 -0.8332  0.3706
 4737TIP3    H235627   0.672   0.786  13.721  3.5438  1.4455 -4.0374
 4738TIP3   OH235628   5.532   1.279  11.330  0.5880 -0.5173 -0.3970
 4738TIP3    H135629   5.509   1.208  11.271 -0.8907 -0.8362  0.5011
 4738TIP3    H235630   5.566   1.235  11.408  1.7884 -0.1344 -0.6852
 4739TIP3   OH235631   3.965   1.092   2.463 -0.2840  0.0520  0.0969
 4739TIP3    H135632   3.902   1.163   2.455 -2.1563 -1.0640  3.1169
 4739TIP3    H235633   4.037   1.129   2.514 -0.0819  0.4207 -0.4489
 4740TIP3   OH235634   3.897   5.284  17.142  0.1878 -0.2489  0.2140
 4740TIP3    H135635   3.836   5.304  17.213  0.0522 -2.4452  0.8014
 4740TIP3    H235636   3.845   5.234  17.079  0.7064  0.2995 -0.6709
 4741TIP3   OH235637   4.241   1.642   3.687 -0.2672 -0.0457  0.1921
 4741TIP3    H135638   4.190   1.566   3.714  0.0035  0.0380  0.9691
 4741TIP3    H235639   4.326   1.605   3.660 -0.7184 -0.1876 -1.1250
 4742TIP3   OH235640   6.312   2.074  16.794  0.4342  0.1652 -0.6719
 4742TIP3    H135641   6.333   2.016  16.868  1.6826 -0.5589 -1.5642
 4742TIP3    H235642   6.240   2.030  16.749 -0.9719  1.0657  0.5843
 4743TIP3   OH235643   5.314   2.637   2.560  0.2293  0.2219 -0.1228
 4743TIP3    H135644   5.276   2.718   2.595  0.1930  0.4476 -0.6722
 4743TIP3    H235645   5.351   2.663   2.475  1.4488 -0.0390  0.3097
 4744TIP3   OH235646   0.164   3.485   0.480 -0.2504 -0.0438  0.2334
 4744TIP3    H135647   0.098   3.467   0.548  0.0439 -1.1567  0.2483
 4744TIP3    H235648   0.133   3.437   0.403 -0.7070  1.4070 -0.5230
 4745TIP3   OH235649   1.196   1.638   5.781  0.0365  0.0919  0.4832
 4745TIP3    H135650   1.121   1.579   5.786 -1.7570  2.1169 -0.5213
 4745TIP3    H235651   1.208   1.669   5.871 -1.9385  1.4827  0.3524
 4746TIP3   OH235652   1.750   5.165  14.751  0.9872 -0.0444  0.0240
 4746TIP3    H135653   1.696   5.091  14.722  0.5781  0.4396 -0.4698
 4746TIP3    H235654   1.738   5.168  14.846 -0.9311  0.8637 -0.1929
 4747TIP3   OH235655   4.783   3.312   3.015 -0.0720  0.3968 -0.7237
 4747TIP3    H135656   4.753   3.305   2.924 -0.1271  1.6489 -0.8160
 4747TIP3    H235657   4.793   3.406   3.030  0.6747  0.1705  0.3304
 4748TIP3   OH235658   3.223   3.731  11.187 -0.1103  0.4673 -0.2762
 4748TIP3    H135659   3.162   3.678  11.238  2.2964 -1.0744  1.1703
 4748TIP3    H235660   3.269   3.668  11.132 -0.1755  1.6796 -1.8130
 4749TIP3   OH235661   3.831   0.409  16.090 -0.1089  0.3093  0.2871
 4749TIP3    H135662   3.774   0.393  16.015 -1.0354  1.3510  0.7449
 4749TIP3    H235663   3.772   0.414  16.165  0.6175  0.9721  0.8390
 4750TIP3   OH235664   0.464   0.868  15.725  0.0836 -0.1779 -0.0604
 4750TIP3    H135665   0.520   0.932  15.683  0.6583 -0.6154  0.0310
 4750TIP3    H235666   0.415   0.918  15.790  1.8268 -0.1199  1.2711
 4751TIP3   OH235667   3.940   3.775  12.661  1.2874  0.4447  0.5983
 4751TIP3    H135668   4.030   3.807  12.661  0.9830  1.3613  0.1027
 4751TIP3    H235669   3.887   3.855  12.658  0.4829 -0.0981 -1.0294
 4752TIP3   OH235670   0.953   0.837  12.387  0.2887 -0.2747 -0.5967
 4752TIP3    H135671   0.984   0.927  12.383  1.1651 -0.4409  1.2345
 4752TIP3    H235672   1.031   0.783  12.373 -0.0064 -0.7379 -0.4841
 4753TIP3   OH235673   1.793   1.734  12.501  0.8010 -0.3491 -0.4203
 4753TIP3    H135674   1.739   1.813  12.498 -0.8093 -1.2632  1.5683
 4753TIP3    H235675   1.729   1.662  12.498  2.1807 -1.5843 -1.5880
 4754TIP3   OH235676   3.692   4.598  14.835 -0.2167  0.0987 -0.0745
 4754TIP3    H135677   3.682   4.553  14.919 -1.0745  0.8229  0.2316
 4754TIP3    H235678   3.670   4.689  14.855 -0.5510  0.2519 -1.1110
 4755TIP3   OH235679   4.027   4.565   2.905 -0.5011  0.2941  0.0122
 4755TIP3    H135680   4.101   4.602   2.856 -1.9773  0.5611 -2.1601
 4755TIP3    H235681   3.992   4.638   2.955 -1.7469  1.3292 -2.1814
 4756TIP3   OH235682   5.839   4.745  16.869  0.1144 -0.2198 -0.2005
 4756TIP3    H135683   5.850   4.737  16.774  1.5105  0.4144 -0.1190
 4756TIP3    H235684   5.928   4.738  16.904 -0.2894  0.3285  0.9998
 4757TIP3   OH235685   5.107   6.575   2.208 -0.5756  0.5135  0.4046
 4757TIP3    H135686   5.194   6.614   2.201  0.4285 -1.6428 -0.1403
 4757TIP3    H235687   5.056   6.638   2.259  0.6409  2.8432 -1.0759
 4758TIP3   OH235688   0.221   0.029   3.884  0.2807  1.2032  0.3436
 4758TIP3    H135689   0.150   0.091   3.873 -1.6831 -1.0092 -0.2102
 4758TIP3    H235690   0.247   0.006   3.794 -2.9104 -2.8171  0.1618
 4759TIP3   OH235691   1.385   2.813  14.917 -0.9001 -0.5488  0.0801
 4759TIP3    H135692   1.349   2.726  14.930  0.1207 -0.6403  3.0704
 4759TIP3    H235693   1.332   2.870  14.973 -1.4157  0.7812 -1.6505
 4760TIP3   OH235694   0.016   5.159   0.296 -0.3472 -0.0432 -0.1432
 4760TIP3    H135695  -0.029   5.147   0.380 -2.5221 -0.0193 -1.2370
 4760TIP3    H235696   0.105   5.126   0.312 -1.2860 -2.0108  1.5975
 4761TIP3   OH235697   2.286   6.152  12.975  0.3754 -0.4492 -0.0866
 4761TIP3    H135698   2.353   6.218  12.955  0.5505 -0.1224  1.4446
 4761TIP3    H235699   2.303   6.082  12.912  0.1548  0.9570 -1.7884
 4762TIP3   OH235700   0.651   4.851  14.769  0.4234 -0.2558  0.0468
 4762TIP3    H135701   0.625   4.813  14.685 -0.3126  0.8838 -0.2650
 4762TIP3    H235702   0.580   4.828  14.829  0.2425  0.1477 -0.0091
 4763TIP3   OH235703   6.644   0.902   1.526 -0.2672 -0.2461  0.1329
 4763TIP3    H135704   6.577   0.919   1.460  0.0439 -1.1425 -0.4374
 4763TIP3    H235705   6.616   0.951   1.603 -0.0263  1.8077 -1.0236
 4764TIP3   OH235706   5.739   2.054   3.922  0.2763 -0.6081 -0.0382
 4764TIP3    H135707   5.805   2.050   3.992  1.1900 -1.3161 -0.9199
 4764TIP3    H235708   5.723   2.148   3.910  0.6402 -0.4530  0.6280
 4765TIP3   OH235709   4.700   4.704   2.201 -0.0704 -0.0123  0.1746
 4765TIP3    H135710   4.776   4.748   2.164 -0.5607  0.1001 -0.7280
 4765TIP3    H235711   4.634   4.773   2.209  0.2959  0.1741  2.1286
 4766TIP3   OH235712   4.855   6.575   4.961 -0.0678 -0.3406  0.2967
 4766TIP3    H135713   4.852   6.529   5.045  2.0236 -0.7627  0.2007
 4766TIP3    H235714   4.763   6.584   4.935 -0.7030 -1.2012  2.0764
 4767TIP3   OH235715   0.487   4.576   2.430  0.6139 -0.3627 -0.2772
 4767TIP3    H135716   0.497   4.491   2.387  0.8428 -1.0883  1.1394
 4767TIP3    H235717   0.551   4.575   2.501 -0.6662  0.2047  0.9456
 4768TIP3   OH235718   3.806   0.619   6.422 -0.4466  0.2739  0.1963
 4768TIP3    H135719   3.887   0.586   6.461  0.3975  1.6451 -0.3057
 4768TIP3    H235720   3.738   0.557   6.449  0.8689 -1.2510  0.1205
 4769TIP3   OH235721   4.469   3.263  12.722 -0.1449  0.0690  0.3685
 4769TIP3    H135722   4.494   3.260  12.630  0.2036  0.1462  0.4590
 4769TIP3    H235723   4.535   3.209  12.767 -1.1622 -1.2129  0.3925
 4770TIP3   OH235724   4.975   2.857  16.263  0.0687 -0.4441 -0.3103
 4770TIP3    H135725   5.063   2.829  16.286 -0.2954 -0.3575  1.3851
 4770TIP3    H235726   4.954   2.809  16.183  1.1478 -1.4961  0.0140
 4771TIP3   OH235727   0.764   5.423   0.338 -0.2778 -1.2882  0.6477
 4771TIP3    H135728   0.786   5.490   0.404 -0.1904 -0.8133  0.1471
 4771TIP3    H235729   0.843   5.371   0.329  0.3325 -0.2403 -0.3746
 4772TIP3   OH235730   1.939   4.031  11.514  0.3610 -0.2396 -0.1453
 4772TIP3    H135731   2.029   4.001  11.500 -0.3626 -3.5972  1.3150
 4772TIP3    H235732   1.930   4.036  11.609 -0.8434  0.7358 -0.2859
 4773TIP3   OH235733   3.973   4.287   0.251 -0.9273  0.4950  0.2128
 4773TIP3    H135734   3.932   4.201   0.245  0.9072 -0.4213  0.2535
 4773TIP3    H235735   4.038   4.288   0.181  0.9085  0.8023  1.8441
 4774TIP3   OH235736   5.962   6.486   5.274 -0.3081 -0.3026 -0.4940
 4774TIP3    H135737   5.949   6.579   5.292  3.1934  0.2016  0.1483
 4774TIP3    H235738   5.967   6.481   5.178 -0.8625  0.0951 -0.5472
 4775TIP3   OH235739   2.956   3.379   2.294  0.2125  0.2939 -0.5337
 4775TIP3    H135740   2.949   3.474   2.293 -2.0851  0.2359  1.3618
 4775TIP3    H235741   3.022   3.361   2.361  0.9422  0.5133 -1.1720
 4776TIP3   OH235742   6.117   4.229  11.953 -0.2147 -0.0262  0.1219
 4776TIP3    H135743   6.112   4.185  11.868  0.3101 -0.3054  0.2302
 4776TIP3    H235744   6.089   4.163  12.017  1.1460 -0.4208  0.3459
 4777TIP3   OH235745   5.757   6.751  16.428 -0.3412  0.5788 -0.6077
 4777TIP3    H135746   5.679   6.730  16.480  0.4172 -1.0161 -0.0274
 4777TIP3    H235747   5.728   6.818  16.367 -1.7607  1.1690  0.6346
 4778TIP3   OH235748   4.170   5.884   0.656 -0.3569  0.8587  0.0280
 4778TIP3    H135749   4.181   5.839   0.573  0.1536  0.2172  0.4260
 4778TIP3    H235750   4.129   5.819   0.713  0.0810  1.0002  0.5172
 4779TIP3   OH235751   6.567   6.502   6.535  0.2338  0.4405  0.1531
 4779TIP3    H135752   6.555   6.584   6.489  0.5943 -0.4070 -1.5368
 4779TIP3    H235753   6.489   6.450   6.512  1.6514 -0.9841 -1.8113
 4780TIP3   OH235754   1.624   0.446   5.092 -0.0675 -0.2418 -0.1951
 4780TIP3    H135755   1.549   0.497   5.124 -1.8285 -1.8498 -1.4901
 4780TIP3    H235756   1.677   0.430   5.170 -0.8735  1.2525  0.7017
 4781TIP3   OH235757   6.679   3.623   4.903  0.6807 -0.5177  0.5204
 4781TIP3    H135758   6.753   3.608   4.961  0.6170 -1.8621  0.2766
 4781TIP3    H235759   6.613   3.667   4.958  1.5113  0.3807  0.8196
 4782TIP3   OH235760   5.758   1.361  16.016 -0.4564  0.5259  0.0075
 4782TIP3    H135761   5.682   1.404  15.976 -0.2284 -1.1754 -2.5283
 4782TIP3    H235762   5.826   1.428  16.016 -0.9218  1.0322 -1.1213
 4783TIP3   OH235763   1.711   6.379   2.526 -0.1312 -0.0436  0.3477
 4783TIP3    H135764   1.790   6.359   2.575 -0.4921 -0.2403  0.8658
 4783TIP3    H235765   1.685   6.296   2.487 -0.4307 -0.1321  0.7154
 4784TIP3   OH235766   5.452   1.755   2.296  0.0374  0.2240 -0.5697
 4784TIP3    H135767   5.360   1.778   2.280  0.5687  2.0582 -1.2496
 4784TIP3    H235768   5.501   1.833   2.269  1.6319  0.4067  2.4590
 4785TIP3   OH235769   4.503   3.324   3.930 -0.1058 -0.6710  0.5505
 4785TIP3    H135770   4.515   3.403   3.983  0.3232 -0.7642  0.5937
 4785TIP3    H235771   4.572   3.265   3.958  0.1181 -0.7298 -0.1042
 4786TIP3   OH235772   1.118   2.959   0.736  0.6549  0.5440 -0.7829
 4786TIP3    H135773   1.098   2.871   0.769  1.9341  0.7837  0.7948
 4786TIP3    H235774   1.053   2.975   0.668  0.3574 -1.6006 -1.0733
 4787TIP3   OH235775   3.094   0.310  14.189  0.0881  0.1208 -0.1028
 4787TIP3    H135776   3.105   0.362  14.109 -0.9520 -0.9798 -1.0035
 4787TIP3    H235777   3.000   0.314  14.207  0.0360 -1.1737 -0.0124
 4788TIP3   OH235778   0.708   0.551  16.317  1.0225  0.4404 -0.2586
 4788TIP3    H135779   0.729   0.470  16.364  1.4091  0.9765  0.5165
 4788TIP3    H235780   0.696   0.616  16.386 -2.5686  0.3789 -0.6190
 4789TIP3   OH235781   6.375   0.019  16.316 -0.1205  0.2567  0.3789
 4789TIP3    H135782   6.340  -0.070  16.311 -0.0336  0.1364  1.6322
 4789TIP3    H235783   6.436   0.025  16.242 -0.6573 -0.4829 -0.1271
 4790TIP3   OH235784   2.794   4.033  11.990 -0.4325  0.3104 -0.2082
 4790TIP3    H135785   2.786   3.968  12.061  1.3058  2.1438  1.8126
 4790TIP3    H235786   2.861   3.996  11.932  0.6451  0.2916  0.9919
 4791TIP3   OH235787   5.239   0.285  14.563 -0.2354 -0.3570 -0.2641
 4791TIP3    H135788   5.199   0.362  14.602 -1.7047 -1.8074  1.2291
 4791TIP3    H235789   5.289   0.245  14.634  1.0875 -0.4458 -1.1988
 4792TIP3   OH235790   0.994   4.088  10.865  0.6178 -0.5502 -0.2980
 4792TIP3    H135791   1.017   4.128  10.781  0.3818  0.1094 -0.0602
 4792TIP3    H235792   0.979   4.163  10.923 -1.8440 -0.9170 -0.3643
 4793TIP3   OH235793   4.481   2.387   1.721  0.0546  0.6015 -0.0488
 4793TIP3    H135794   4.532   2.310   1.744 -0.7371 -0.1925 -0.8954
 4793TIP3    H235795   4.406   2.384   1.781  0.5933  1.3573  0.6884
 4794TIP3   OH235796   2.834   1.950  12.815  0.2986  0.1816 -0.1013
 4794TIP3    H135797   2.898   1.902  12.868  0.2052  0.7835  0.5705
 4794TIP3    H235798   2.751   1.905  12.830  0.2913  0.2885  0.1864
 4795TIP3   OH235799   2.411   6.366   5.138 -0.6356  0.4302  0.4407
 4795TIP3    H135800   2.497   6.408   5.137 -0.5960  0.3573  0.7301
 4795TIP3    H235801   2.430   6.272   5.145 -0.7131  0.3208 -0.6126
 4796TIP3   OH235802   0.343   0.739   3.204  0.3541  0.4754 -0.0430
 4796TIP3    H135803   0.370   0.831   3.195 -0.3339  0.7565  0.6223
 4796TIP3    H235804   0.307   0.734   3.293 -2.1951  0.2390 -1.0116
 4797TIP3   OH235805   3.432   5.989   2.857  0.6390 -0.3506 -0.1764
 4797TIP3    H135806   3.436   5.897   2.830  1.5266 -0.4296  0.1717
 4797TIP3    H235807   3.509   6.029   2.816  1.2920 -0.1866  1.1355
 4798TIP3   OH235808   2.827   3.012  11.739  0.0126  0.2306 -0.0902
 4798TIP3    H135809   2.855   3.089  11.689  0.1861 -0.2207 -0.7064
 4798TIP3    H235810   2.752   3.043  11.790  1.4634  1.3964  1.4318
 4799TIP3   OH235811   5.600   2.584  14.735 -0.2831 -0.0151  0.1246
 4799TIP3    H135812   5.577   2.666  14.777 -1.2071 -0.2726  0.1367
 4799TIP3    H235813   5.619   2.524  14.807 -1.6322 -0.3877  0.1956
 4800TIP3   OH235814   1.483   5.045   5.490  0.2540  0.5909  0.3065
 4800TIP3    H135815   1.481   5.117   5.554  0.1358  1.1152 -0.2799
 4800TIP3    H235816   1.442   5.081   5.412 -4.1152 -1.4828  1.3666
 4801TIP3   OH235817   4.178   2.963  11.156 -0.0816  0.0657  0.2262
 4801TIP3    H135818   4.110   2.918  11.105 -1.3554  0.3493  1.5790
 4801TIP3    H235819   4.191   2.907  11.232  1.6163 -0.2364 -0.2629
 4802TIP3   OH235820   6.277   4.334  16.950 -0.5472  0.5026  0.2351
 4802TIP3    H135821   6.254   4.411  17.002 -2.3645  0.3440 -0.2493
 4802TIP3    H235822   6.226   4.262  16.989 -1.5500  0.2836 -1.3773
 4803TIP3   OH235823   0.192   3.199  13.077 -0.4356  0.2997  0.4535
 4803TIP3    H135824   0.264   3.243  13.124  2.8535 -1.1133 -2.7422
 4803TIP3    H235825   0.177   3.253  13.000 -1.5790 -0.3443  0.2111
 4804TIP3   OH235826   3.133   2.578   3.160  0.9230 -0.2089  0.0672
 4804TIP3    H135827   3.127   2.548   3.250  1.1630 -0.1328  0.1107
 4804TIP3    H235828   3.070   2.649   3.154 -0.4663 -1.4396 -0.3430
 4805TIP3   OH235829   3.537   1.318  11.678 -0.0604 -0.2017  0.4392
 4805TIP3    H135830   3.504   1.325  11.589  0.8217 -1.4888 -0.0228
 4805TIP3    H235831   3.612   1.259  11.672  0.9044  0.8024  1.8210
 4806TIP3   OH235832   3.680   1.982  15.016 -0.1520  0.0342  0.0085
 4806TIP3    H135833   3.632   2.041  14.958  0.4456  1.1299  0.5892
 4806TIP3    H235834   3.668   1.895  14.978 -1.3319  0.4851 -0.6850
 4807TIP3   OH235835   4.958   6.664  14.627  0.2916 -1.1767  0.3249
 4807TIP3    H135836   4.881   6.719  14.617  0.1726 -1.3853  0.0915
 4807TIP3    H235837   5.031   6.720  14.600  0.1223 -1.2851 -0.3776
 4808TIP3   OH235838   5.713   3.803   3.922 -0.1086 -0.2858 -0.4469
 4808TIP3    H135839   5.785   3.740   3.931 -0.8176 -0.8542  1.9370
 4808TIP3    H235840   5.756   3.886   3.900  1.1189 -0.9486 -0.6375
 4809TIP3   OH235841   3.940   2.716   3.209  0.2527 -0.1233 -0.0583
 4809TIP3    H135842   3.946   2.794   3.153  1.6561 -1.0656 -1.2956
 4809TIP3    H235843   3.886   2.655   3.159 -0.0866 -0.2959  0.5062
 4810TIP3   OH235844   1.268   3.153   4.068  0.2847 -0.3338  0.1278
 4810TIP3    H135845   1.218   3.098   4.007  0.1584  0.7576 -0.8013
 4810TIP3    H235846   1.319   3.092   4.120 -0.7327 -1.3870 -0.0634
 4811TIP3   OH235847   3.472   3.232  12.052 -0.0868  0.5038 -0.0024
 4811TIP3    H135848   3.419   3.295  12.003  0.5522  0.6020 -0.5823
 4811TIP3    H235849   3.457   3.254  12.144 -0.8211  0.7165 -0.1684
 4812TIP3   OH235850   5.188   1.036  15.415  0.3996  0.3608 -1.0136
 4812TIP3    H135851   5.113   0.993  15.373  0.2719 -0.8821  0.3915
 4812TIP3    H235852   5.261   0.977  15.398  0.5318  0.3105 -0.2833
 4813TIP3   OH235853   0.359   4.774   2.667  0.5653 -0.2579 -0.1522
 4813TIP3    H135854   0.424   4.839   2.693  1.2177 -0.6316 -0.8059
 4813TIP3    H235855   0.409   4.693   2.658  0.1547 -0.3836 -1.4284
 4814TIP3   OH235856   6.258   5.796  11.707 -0.0181  0.1714 -0.3662
 4814TIP3    H135857   6.276   5.868  11.767  0.1944 -0.0848 -0.1164
 4814TIP3    H235858   6.196   5.832  11.644 -0.0467  0.5205 -0.1423
 4815TIP3   OH235859   0.982   4.814  14.671 -0.3734  0.5353  0.9976
 4815TIP3    H135860   0.890   4.840  14.679 -1.5312 -2.8217  0.0841
 4815TIP3    H235861   0.996   4.806  14.576  0.1010 -1.1855  1.1799
 4816TIP3   OH235862   0.388   1.040  13.264  0.2904  0.1346 -0.2117
 4816TIP3    H135863   0.447   1.006  13.196  1.7969  2.3016 -0.0771
 4816TIP3    H235864   0.430   1.014  13.347  0.5430  0.8090 -0.1207
 4817TIP3   OH235865   6.689   5.449  14.017 -0.0798 -0.6539  0.0130
 4817TIP3    H135866   6.728   5.361  14.014  1.6082 -0.1643  2.8740
 4817TIP3    H235867   6.602   5.435  14.054  0.2146 -1.1350  0.5465
 4818TIP3   OH235868   1.662   5.519   2.811 -0.4785  0.4208 -0.1802
 4818TIP3    H135869   1.575   5.505   2.848 -0.0940 -0.2327  0.5062
 4818TIP3    H235870   1.714   5.556   2.882  0.4016 -1.3064  0.1353
 4819TIP3   OH235871   6.554   1.068   4.832 -0.7146 -0.6718 -0.4333
 4819TIP3    H135872   6.530   1.148   4.880  4.9998  1.0100  0.3567
 4819TIP3    H235873   6.581   1.099   4.746  0.3103 -1.9586 -0.5876
 4820TIP3   OH235874   4.954   4.909  12.330  0.0087  0.6174 -0.6713
 4820TIP3    H135875   4.940   4.829  12.381 -0.8054  0.2137 -1.4937
 4820TIP3    H235876   4.874   4.917  12.277  0.6859  1.2136 -1.6180
 4821TIP3   OH235877   3.104   4.218   6.068  0.1241  0.1553  0.1210
 4821TIP3    H135878   3.019   4.177   6.054 -0.2639  1.2125 -0.8892
 4821TIP3    H235879   3.083   4.308   6.095  0.8224  1.1170 -2.2300
 4822TIP3   OH235880   5.205   5.972  10.587  0.3672  0.3881  0.6070
 4822TIP3    H135881   5.247   5.903  10.536  0.6092  2.3633 -2.0949
 4822TIP3    H235882   5.112   5.949  10.586  0.3875  0.2599 -0.6611
 4823TIP3   OH235883   5.641   4.544  16.941 -0.3805  0.1797 -0.0851
 4823TIP3    H135884   5.698   4.613  16.908  1.3270 -0.6944  0.8996
 4823TIP3    H235885   5.582   4.588  17.002 -0.0449  0.9281 -0.2943
 4824TIP3   OH235886   3.151   6.339  15.853 -0.2202  0.1553 -0.3174
 4824TIP3    H135887   3.155   6.349  15.948  0.3799  0.9599 -0.4169
 4824TIP3    H235888   3.232   6.379  15.821  1.3336 -3.1526 -0.9677
 4825TIP3   OH235889   4.742   3.105  12.647  0.0623 -0.1689  0.7081
 4825TIP3    H135890   4.781   3.192  12.646 -0.7636  0.2296  1.8071
 4825TIP3    H235891   4.705   3.095  12.735 -1.2132 -1.0083  0.1155
 4826TIP3   OH235892   5.418   4.160   3.620 -0.3072  0.5542  0.1319
 4826TIP3    H135893   5.400   4.085   3.677  1.9661  1.1985  1.8507
 4826TIP3    H235894   5.334   4.182   3.581 -1.2787 -2.0566  0.5928
 4827TIP3   OH235895   3.007   1.708  16.249 -0.2606  0.1233 -0.2945
 4827TIP3    H135896   2.982   1.772  16.315  0.4325 -0.8220  0.9278
 4827TIP3    H235897   3.044   1.759  16.178 -0.3720  1.1149  0.3447
 4828TIP3   OH235898   6.586   0.727   0.343 -0.0190  0.3539 -0.6216
 4828TIP3    H135899   6.539   0.810   0.358 -0.1855  0.1899 -0.2067
 4828TIP3    H235900   6.643   0.718   0.419 -1.0165 -0.5938  0.0457
 4829TIP3   OH235901   2.721   1.596   5.404 -0.1020 -0.1283  0.2912
 4829TIP3    H135902   2.792   1.650   5.370  1.1302 -2.2380 -0.6970
 4829TIP3    H235903   2.685   1.552   5.327 -1.7545  0.0663  0.9259
 4830TIP3   OH235904   1.247   2.870  12.273 -0.0157 -0.0024 -0.0164
 4830TIP3    H135905   1.303   2.911  12.339  0.5595  1.9239 -1.6010
 4830TIP3    H235906   1.298   2.796  12.241  0.5588  0.2606  0.2750
 4831TIP3   OH235907   6.492   2.719  13.074  0.6621 -0.2881  0.3405
 4831TIP3    H135908   6.545   2.732  13.153 -0.0514 -1.8592  1.1221
 4831TIP3    H235909   6.555   2.716  13.003  1.3952  0.3500  0.9501
 4832TIP3   OH235910   2.369   0.723  16.393 -0.0489  0.1367 -0.1712
 4832TIP3    H135911   2.289   0.692  16.349  0.4939 -0.7742 -0.5511
 4832TIP3    H235912   2.412   0.779  16.328  0.4228 -0.6817 -0.5837
 4833TIP3   OH235913   4.528   6.648   2.790 -0.1725 -0.1341  0.5983
 4833TIP3    H135914   4.438   6.662   2.761  0.0022  0.2998  0.2536
 4833TIP3    H235915   4.545   6.556   2.771  0.2922  0.3750 -1.7093
 4834TIP3   OH235916   3.476   3.622   1.287 -0.4326 -0.2232 -0.1226
 4834TIP3    H135917   3.424   3.565   1.230 -1.1692  1.0111 -0.7364
 4834TIP3    H235918   3.419   3.639   1.363  0.2119 -1.1702  0.5893
 4835TIP3   OH235919   4.690   2.504  17.071 -0.1691 -0.0430  0.4282
 4835TIP3    H135920   4.628   2.574  17.092 -0.0905  1.0167 -2.4220
 4835TIP3    H235921   4.770   2.550  17.045 -0.0734 -1.1175 -1.3985
 4836TIP3   OH235922   0.710   1.561  15.298 -0.7005 -0.1206 -0.2548
 4836TIP3    H135923   0.655   1.581  15.223  0.1381  1.3233 -0.5213
 4836TIP3    H235924   0.686   1.627  15.363 -0.4734 -0.5268  0.2458
 4837TIP3   OH235925   0.387   2.772   1.408  0.2944  0.2598 -0.4376
 4837TIP3    H135926   0.392   2.777   1.504  0.0728 -2.1296 -0.2444
 4837TIP3    H235927   0.300   2.806   1.387  0.1780  0.4067  0.2449
 4838TIP3   OH235928   4.207   5.783   2.429  0.2896  0.3800 -0.0509
 4838TIP3    H135929   4.125   5.826   2.402  0.4999  0.0355 -1.2875
 4838TIP3    H235930   4.272   5.853   2.429  0.1257  0.5361  0.3476
 4839TIP3   OH235931   0.934   0.089   6.534 -0.0810 -0.0559 -0.1277
 4839TIP3    H135932   0.839   0.081   6.544 -0.2299  0.8801 -0.6309
 4839TIP3    H235933   0.947   0.102   6.440  0.4983  0.3884  0.0083
 4840TIP3   OH235934   0.754   5.561  16.242  0.4211 -0.2253  0.1638
 4840TIP3    H135935   0.843   5.595  16.248  0.0656  0.6614  0.5215
 4840TIP3    H235936   0.750   5.493  16.309 -0.0789  1.8471  2.3775
 4841TIP3   OH235937   3.469   4.785  16.977  0.3587  0.3053  0.1526
 4841TIP3    H135938   3.536   4.765  16.913  0.7059 -1.3382  0.9825
 4841TIP3    H235939   3.421   4.703  16.989 -0.7956  1.0309  0.7412
 4842TIP3   OH235940   6.176   5.080  12.963  0.1206 -0.4497 -0.4998
 4842TIP3    H135941   6.146   5.105  12.875 -0.3636 -1.1508 -0.5491
 4842TIP3    H235942   6.270   5.066  12.953  0.1111 -0.2835 -0.8532
 4843TIP3   OH235943   1.186   0.388  13.725  0.8720 -0.2317 -0.1685
 4843TIP3    H135944   1.276   0.406  13.698  0.5425 -1.3304 -2.2360
 4843TIP3    H235945   1.139   0.372  13.642 -1.7569  2.4334  0.6415
 4844TIP3   OH235946   1.900   1.421   3.346  0.1269  0.1219  0.8329
 4844TIP3    H135947   1.893   1.425   3.442 -0.5722 -0.2353  0.8024
 4844TIP3    H235948   1.856   1.339   3.323  2.6499 -1.2307  0.4238
 4845TIP3   OH235949   4.076   4.593   4.843 -0.0749 -0.7420 -0.0964
 4845TIP3    H135950   4.123   4.658   4.895  1.4370 -1.5289 -0.4485
 4845TIP3    H235951   4.077   4.628   4.754 -0.0938 -0.7994 -0.1192
 4846TIP3   OH235952   4.174   5.149  13.982  0.6558 -0.4054 -0.3991
 4846TIP3    H135953   4.151   5.101  14.062 -0.7627  0.6148 -0.1459
 4846TIP3    H235954   4.099   5.138  13.924  0.7948  0.5221 -0.7827
 4847TIP3   OH235955   2.271   6.037   0.863  0.8613 -0.2698 -0.2051
 4847TIP3    H135956   2.190   6.083   0.885  0.8687  0.1104 -0.9333
 4847TIP3    H235957   2.304   6.083   0.785  1.1263 -1.2071 -0.6582
 4848TIP3   OH235958   4.939   2.558   1.970  0.3513  0.3713 -0.1402
 4848TIP3    H135959   4.909   2.570   1.880 -1.5583 -2.9183 -0.0860
 4848TIP3    H235960   4.986   2.475   1.969  0.3666  0.3077  1.8774
 4849TIP3   OH235961   1.511   0.416  17.125  0.3160  0.3771  0.4480
 4849TIP3    H135962   1.427   0.378  17.151 -0.3411  2.0446  0.8867
 4849TIP3    H235963   1.488   0.492  17.071  1.6123 -0.8666 -2.0457
 4850TIP3   OH235964   6.405   2.918  16.707 -0.0610 -0.5116  0.0796
 4850TIP3    H135965   6.411   3.002  16.663  0.8413 -0.2152  0.7487
 4850TIP3    H235966   6.472   2.864  16.666 -0.1832 -0.6892  0.1098
 4851TIP3   OH235967   4.886   2.225  16.555 -0.1603 -0.5429  0.0705
 4851TIP3    H135968   4.936   2.253  16.478 -0.1340 -1.5505 -0.3003
 4851TIP3    H235969   4.868   2.306  16.603 -1.4010  0.2969 -1.7145
 4852TIP3   OH235970   6.233   6.582  11.519 -0.1345 -0.9512 -0.2380
 4852TIP3    H135971   6.282   6.558  11.597  0.1246  0.3199 -0.0010
 4852TIP3    H235972   6.275   6.662  11.487 -1.6954 -0.1273 -0.3294
 4853TIP3   OH235973   4.651   1.663  15.969 -0.2428  0.3172 -0.3404
 4853TIP3    H135974   4.679   1.652  15.879 -1.1480 -0.8118 -0.5127
 4853TIP3    H235975   4.629   1.574  15.998  0.4374  0.5937  1.1321
 4854TIP3   OH235976   4.741   2.097   0.797 -0.2906  0.1291  0.1025
 4854TIP3    H135977   4.816   2.135   0.752 -1.6846  0.3621 -2.1482
 4854TIP3    H235978   4.690   2.173   0.826 -0.7034 -0.0337 -0.2026
 4855TIP3   OH235979   5.049   5.094   2.367  0.1120  0.1287 -0.0024
 4855TIP3    H135980   5.094   5.022   2.322  0.5808  0.4342 -0.0241
 4855TIP3    H235981   4.965   5.101   2.321  0.5414  0.3696 -0.7721
 4856TIP3   OH235982   1.898   6.572  10.381 -0.1600 -0.7555 -0.3029
 4856TIP3    H135983   1.806   6.579  10.352 -0.1518  0.4942 -0.0835
 4856TIP3    H235984   1.931   6.661  10.375  0.4502 -0.8207  1.6161
 4857TIP3   OH235985   4.194   2.641   5.941 -0.0770  0.1229  0.2055
 4857TIP3    H135986   4.219   2.549   5.933 -0.3877  0.1243 -1.1840
 4857TIP3    H235987   4.102   2.643   5.916  0.2917  0.9778 -1.2000
 4858TIP3   OH235988   2.361   2.176   3.902  0.5481 -0.2103  0.4612
 4858TIP3    H135989   2.395   2.205   3.818 -1.1393  0.3626 -0.0671
 4858TIP3    H235990   2.426   2.115   3.935  1.4274 -0.1375 -1.0687
 4859TIP3   OH235991   0.599   1.046   5.747  0.2687  0.0837 -0.1357
 4859TIP3    H135992   0.600   1.126   5.800 -1.5396  0.2991 -0.3561
 4859TIP3    H235993   0.536   1.064   5.677 -0.4669 -1.6533  0.0224
 4860TIP3   OH235994   6.264   6.333   1.531  0.8930  1.0542 -0.2285
 4860TIP3    H135995   6.307   6.248   1.539  1.5416  1.2469 -1.3659
 4860TIP3    H235996   6.282   6.377   1.614 -2.5230 -1.1984  1.9364
 4861TIP3   OH235997   2.071   1.943  11.968 -0.7509 -0.3135 -0.1768
 4861TIP3    H135998   2.118   1.867  11.934 -0.5055 -0.6974  0.9635
 4861TIP3    H235999   2.050   1.920  12.058  2.6398  2.3863  1.5330
 4862TIP3   OH236000   0.834   2.137   0.665  0.7318  0.2075 -0.0901
 4862TIP3    H136001   0.744   2.108   0.654  0.2830  1.4526  0.1551
 4862TIP3    H236002   0.887   2.060   0.642 -0.3955 -1.1922  1.6942
 4863TIP3   OH236003   4.561   2.003   2.495 -0.5125 -0.0157 -0.2515
 4863TIP3    H136004   4.481   1.969   2.457 -0.1605 -0.5806 -0.4915
 4863TIP3    H236005   4.538   2.092   2.524 -1.2270 -0.1860 -0.2840
 4864TIP3   OH236006   5.084   0.147  13.873 -0.9390 -0.1001  0.5121
 4864TIP3    H136007   5.031   0.227  13.865 -0.5486  0.0526 -0.7261
 4864TIP3    H236008   5.080   0.106  13.787  1.0176 -0.0303  0.3363
 4865TIP3   OH236009   1.903   6.375  15.399 -0.0964 -0.1495 -0.3547
 4865TIP3    H136010   1.943   6.403  15.481 -0.6145 -0.6417  0.0732
 4865TIP3    H236011   1.897   6.455  15.347  0.4680  0.1193 -0.0199
 4866TIP3   OH236012   0.280   2.841   3.410 -0.0542 -0.0241 -0.1025
 4866TIP3    H136013   0.187   2.826   3.390 -0.0708  1.0229 -0.9183
 4866TIP3    H236014   0.278   2.906   3.480  0.0607 -0.4622  0.3089
 4867TIP3   OH236015   2.695   1.121   2.254 -0.2186  0.0308 -0.0928
 4867TIP3    H136016   2.683   1.210   2.289 -0.2223 -1.1787  3.3103
 4867TIP3    H236017   2.789   1.115   2.237 -0.5363  1.4890 -3.1685
 4868TIP3   OH236018   0.548   6.600  11.533 -0.6483  0.0977  0.0588
 4868TIP3    H136019   0.518   6.650  11.608  0.8390  0.3891  0.4896
 4868TIP3    H236020   0.495   6.633  11.460 -1.4119  0.5199  0.7795
 4869TIP3   OH236021   5.512   2.865   2.073  0.1078  0.2235 -0.1970
 4869TIP3    H136022   5.453   2.940   2.083  0.4299  0.5040 -0.3328
 4869TIP3    H236023   5.470   2.810   2.007 -0.3340  0.0782  0.2023
 4870TIP3   OH236024   2.172   5.438   2.590 -0.0736  0.5457  0.0253
 4870TIP3    H136025   2.143   5.360   2.637  0.1292 -0.7571 -1.8874
 4870TIP3    H236026   2.097   5.462   2.536 -0.1337  1.7209  0.5999
 4871TIP3   OH236027   0.047   1.832  14.308  0.3862 -0.1966  0.2730
 4871TIP3    H136028   0.137   1.861  14.292  0.7076 -2.5068 -3.1706
 4871TIP3    H236029   0.057   1.745  14.346 -0.4721  0.1675  1.3827
 4872TIP3   OH236030   4.738   2.649   4.134 -0.4161  0.1853  0.5561
 4872TIP3    H136031   4.822   2.646   4.179 -0.1288  1.0153  0.0917
 4872TIP3    H236032   4.744   2.581   4.068  0.8912  1.8525 -1.1464
 4873TIP3   OH236033   0.195   1.311   4.831  0.0703  0.4261  0.0109
 4873TIP3    H136034   0.180   1.236   4.773 -1.0971 -0.3394  1.2590
 4873TIP3    H236035   0.123   1.371   4.812 -0.2967  0.1876  0.6433
 4874TIP3   OH236036   3.650   2.024   1.149  0.5448 -0.2832  0.4020
 4874TIP3    H136037   3.695   2.013   1.232 -0.0108  1.4984  0.9635
 4874TIP3    H236038   3.618   2.114   1.149 -0.0495 -0.4375 -1.4539
 4875TIP3   OH236039   2.608   0.973   4.897 -0.1272  0.4268  0.3894
 4875TIP3    H136040   2.599   1.022   4.816 -2.0683  0.6430  0.6976
 4875TIP3    H236041   2.673   0.905   4.877 -1.9067 -0.7076 -1.9529
 4876TIP3   OH236042   0.341   4.082   3.630 -0.3524  0.0998  0.3175
 4876TIP3    H136043   0.334   3.997   3.586 -1.5288  1.2118 -1.8113
 4876TIP3    H236044   0.293   4.071   3.712  0.3838 -1.5468  0.5715
 4877TIP3   OH236045   1.111   2.583  13.293 -0.5840  0.6345  0.1982
 4877TIP3    H136046   1.187   2.638  13.310  0.6163 -0.8400 -0.2160
 4877TIP3    H236047   1.108   2.575  13.197 -0.5700 -0.2167  0.2575
 4878TIP3   OH236048   6.558   2.026  15.251  0.0220 -0.3725  0.5172
 4878TIP3    H136049   6.552   2.077  15.332  0.1712 -2.9860  2.2926
 4878TIP3    H236050   6.468   1.999  15.232  0.0117  0.0834 -0.1132
 4879TIP3   OH236051   5.780   3.332   0.836  0.2454 -0.0112 -0.3397
 4879TIP3    H136052   5.788   3.383   0.917  0.9634  0.4374 -0.6860
 4879TIP3    H236053   5.864   3.288   0.827 -0.2453 -0.9911 -0.2323
 4880TIP3   OH236054   0.270   2.184  10.759 -0.4047  0.6041 -0.0989
 4880TIP3    H136055   0.351   2.184  10.810  0.0150 -0.0268 -0.7481
 4880TIP3    H236056   0.278   2.108  10.700 -1.1546  0.9388 -0.6556
 4881TIP3   OH236057   1.191   4.500  11.832 -0.0607  0.1982  0.1572
 4881TIP3    H136058   1.100   4.484  11.858 -0.5110 -0.9764 -1.9226
 4881TIP3    H236059   1.208   4.435  11.764  2.2990  0.5194  0.3666
 4882TIP3   OH236060   3.200   5.469  12.713 -0.4882  0.0138  0.0587
 4882TIP3    H136061   3.205   5.437  12.623  0.1692  0.7287 -0.1739
 4882TIP3    H236062   3.230   5.560  12.708  0.4566 -0.2118  1.1346
 4883TIP3   OH236063   2.671   2.826   1.332  0.3198  0.5219  0.2391
 4883TIP3    H136064   2.619   2.904   1.312 -0.5962 -0.2331 -0.3712
 4883TIP3    H236065   2.628   2.755   1.285  0.8392 -0.4570  1.1907
 4884TIP3   OH236066   4.002   2.843   4.964  0.0496  0.6606 -0.2507
 4884TIP3    H136067   3.948   2.904   5.014 -1.8745 -0.1730 -1.2284
 4884TIP3    H236068   3.969   2.756   4.988  0.4984  0.1509 -1.3876
 4885TIP3   OH236069   4.323   6.038   2.653 -0.2653  0.2635 -0.1844
 4885TIP3    H136070   4.239   6.067   2.617  0.2498  0.1716 -1.5302
 4885TIP3    H236071   4.388   6.090   2.605  0.4249  1.0148  1.5057
 4886TIP3   OH236072   3.170   1.341  15.014 -0.4586 -0.2020  0.9308
 4886TIP3    H136073   3.184   1.419  14.960  0.9515 -0.4188  0.9436
 4886TIP3    H236074   3.188   1.268  14.955 -0.3954 -0.4793  1.2892
 4887TIP3   OH236075   5.094   2.566  10.602  0.1705  0.2163 -0.1991
 4887TIP3    H136076   5.019   2.610  10.642  1.8292 -0.1479  3.7462
 4887TIP3    H236077   5.164   2.631  10.604  1.3922 -1.0763  1.3843
 4888TIP3   OH236078   2.482   3.869   0.729  0.2510  0.4471  0.5403
 4888TIP3    H136079   2.510   3.793   0.780  1.4569  0.8385  0.4880
 4888TIP3    H236080   2.559   3.894   0.679 -0.1912  1.5849  0.3989
 4889TIP3   OH236081   5.408   1.889  16.233 -0.0122  0.4037  0.5423
 4889TIP3    H136082   5.386   1.978  16.205 -0.1815  0.5145  1.0066
 4889TIP3    H236083   5.395   1.835  16.156  0.5619  0.8558  0.1202
 4890TIP3   OH236084   3.680   3.312  13.754  0.0315  0.1455 -0.7824
 4890TIP3    H136085   3.649   3.392  13.797  1.1928 -0.0577  0.4786
 4890TIP3    H236086   3.764   3.337  13.715  0.0673 -0.2828 -0.9887
 4891TIP3   OH236087   3.066   0.216  12.799 -0.1687 -0.1076  0.3231
 4891TIP3    H136088   3.062   0.140  12.741 -0.0660  1.4768 -1.9165
 4891TIP3    H236089   3.155   0.249  12.790 -1.0442  2.1003 -1.4199
 4892TIP3   OH236090   3.121   0.031   1.455  0.3495  0.7885 -0.3865
 4892TIP3    H136091   3.164   0.004   1.374  0.0752  1.2993 -0.7060
 4892TIP3    H236092   3.173   0.105   1.486  1.4837 -0.4635  0.8247
 4893TIP3   OH236093   0.625   2.291  13.349 -0.0705 -0.5164 -0.1168
 4893TIP3    H136094   0.607   2.278  13.442  3.8212  0.3064  0.9522
 4893TIP3    H236095   0.652   2.205  13.317  0.4081 -0.4341  0.0523
 4894TIP3   OH236096   3.387   4.788   1.015 -0.4229  0.2452  0.2585
 4894TIP3    H136097   3.358   4.729   1.084 -0.0621  0.3161  0.4713
 4894TIP3    H236098   3.472   4.753   0.986  0.0711  0.9832  0.7893
 4895TIP3   OH236099   4.258   3.197  15.883  0.2233 -0.4882 -0.3378
 4895TIP3    H136100   4.247   3.129  15.817  1.1591  0.5756 -1.6507
 4895TIP3    H236101   4.304   3.268  15.838  1.9083 -0.1281  1.7205
 4896TIP3   OH236102   5.634   4.930  16.862  0.0025 -0.3521  0.8908
 4896TIP3    H136103   5.721   4.890  16.865  0.0708 -0.2401  0.4871
 4896TIP3    H236104   5.580   4.867  16.815  0.1268  0.0495  0.1925
 4897TIP3   OH236105   0.068   4.573   1.762 -0.0539  0.0271 -0.6134
 4897TIP3    H136106  -0.022   4.540   1.769  0.4299 -1.6270 -1.5078
 4897TIP3    H236107   0.117   4.499   1.727  1.6371  0.9612 -0.2961
 4898TIP3   OH236108   6.024   1.106  16.529 -0.7886 -0.2850 -0.4732
 4898TIP3    H136109   6.018   1.150  16.445  0.3097  0.8452  0.0166
 4898TIP3    H236110   6.117   1.110  16.553 -1.1304 -0.2165  0.9806
 4899TIP3   OH236111   4.882   1.041  16.971 -0.5280  0.2143  0.2623
 4899TIP3    H136112   4.804   1.095  16.961 -1.8179 -1.3578  1.2574
 4899TIP3    H236113   4.879   1.011  17.062  0.3051 -1.2481 -0.1504
 4900TIP3   OH236114   0.455   3.200   5.723  0.0998 -0.5701  0.3289
 4900TIP3    H136115   0.438   3.172   5.813  0.5731 -0.3729  0.4799
 4900TIP3    H236116   0.540   3.242   5.726  0.2173 -0.7515 -0.2569
 4901TIP3   OH236117   3.873   1.124   2.175  0.2707  0.1367  0.0514
 4901TIP3    H136118   3.858   1.180   2.251 -0.3104 -1.2593  1.0080
 4901TIP3    H236119   3.965   1.101   2.179  0.2518  0.1011  0.3242
 4902TIP3   OH236120   5.766   4.676   6.046  0.5874  0.2155  0.0566
 4902TIP3    H136121   5.672   4.685   6.030  0.7470 -0.2503 -1.2371
 4902TIP3    H236122   5.780   4.719   6.130 -0.9646 -0.6905  0.8217
 4903TIP3   OH236123   2.520   0.201   2.082 -0.0800 -0.1802 -0.0182
 4903TIP3    H136124   2.487   0.113   2.065 -1.9465  0.8492 -2.2368
 4903TIP3    H236125   2.459   0.237   2.147  0.9858 -0.6240  1.2869
 4904TIP3   OH236126   5.261   5.469  11.006 -0.2654 -0.5483  0.0703
 4904TIP3    H136127   5.212   5.461  10.924 -0.1901  2.0063 -0.2974
 4904TIP3    H236128   5.193   5.480  11.073 -0.2863 -0.2470  0.0031
 4905TIP3   OH236129   0.199   5.249   3.969 -0.2018  0.2598 -0.2260
 4905TIP3    H136130   0.248   5.223   4.048 -0.6617 -0.9757 -0.3238
 4905TIP3    H236131   0.257   5.310   3.924  0.8541 -0.4387  0.1423
 4906TIP3   OH236132   1.172   5.320  17.200 -0.0128  0.0288 -0.3136
 4906TIP3    H136133   1.172   5.241  17.146 -0.3738  0.3783 -0.8235
 4906TIP3    H236134   1.083   5.354  17.194 -0.0095  0.1788  0.3511
 4907TIP3   OH236135   5.715   0.161   3.328 -0.0728 -0.4707  0.3778
 4907TIP3    H136136   5.758   0.120   3.404  0.2320 -0.7600  0.0531
 4907TIP3    H236137   5.659   0.229   3.366  0.5470 -0.1986  0.8288
 4908TIP3   OH236138   1.554   2.403   5.661  0.0817 -0.6641 -0.6490
 4908TIP3    H136139   1.580   2.368   5.746  0.6270  0.3357 -0.3880
 4908TIP3    H236140   1.534   2.495   5.678 -0.1648 -0.5474 -1.5295
 4909TIP3   OH236141   2.313   3.687   3.967 -0.6671 -0.0854 -0.7696
 4909TIP3    H136142   2.380   3.706   4.032  0.2187 -1.4583 -1.2424
 4909TIP3    H236143   2.248   3.757   3.978  1.2593  1.8352 -0.9008
 4910TIP3   OH236144   2.795   2.266  11.282  0.3506  0.6933  0.1614
 4910TIP3    H136145   2.746   2.347  11.289  0.0096  0.5304 -0.2587
 4910TIP3    H236146   2.853   2.265  11.358  1.8262  2.3078 -0.8825
 4911TIP3   OH236147   1.062   4.921   3.607  0.4385 -0.1505  0.8462
 4911TIP3    H136148   1.012   4.990   3.562  3.3631  2.0689  0.7057
 4911TIP3    H236149   1.052   4.844   3.551 -1.3945  0.6589 -0.0185
 4912TIP3   OH236150   4.656   4.779  10.754 -0.2256 -0.1447  0.4276
 4912TIP3    H136151   4.649   4.689  10.788  2.7657  0.4865  3.3545
 4912TIP3    H236152   4.707   4.770  10.674 -1.7156 -1.1629 -0.4547
 4913TIP3   OH236153   1.329   4.484   4.416  0.1321 -0.0916  0.1052
 4913TIP3    H136154   1.332   4.492   4.321  1.0733 -1.7919 -0.0342
 4913TIP3    H236155   1.400   4.424   4.438 -0.5032 -0.2681  1.8224
 4914TIP3   OH236156   0.201   3.362  12.847 -0.1110 -0.2112 -0.0943
 4914TIP3    H136157   0.114   3.349  12.809  0.3479 -0.8905 -0.9630
 4914TIP3    H236158   0.206   3.455  12.866 -0.7023 -0.0040 -0.9004
 4915TIP3   OH236159   0.322   3.433   4.004  0.2828 -0.3516  0.0636
 4915TIP3    H136160   0.265   3.505   4.031  0.0355 -0.7201  0.5365
 4915TIP3    H236161   0.410   3.470   4.006  0.1631 -0.0808  0.3586
 4916TIP3   OH236162   3.679   6.103  13.561  0.1829  0.0672  0.1211
 4916TIP3    H136163   3.616   6.148  13.618 -1.0080  1.4955 -2.1502
 4916TIP3    H236164   3.746   6.169  13.542  1.1117 -0.7074  0.6396
 4917TIP3   OH236165   3.817   6.691   2.909  0.1054 -0.2426  0.0883
 4917TIP3    H136166   3.911   6.701   2.899  0.0238 -1.3308 -3.0998
 4917TIP3    H236167   3.782   6.779   2.895  0.6224  0.2130  1.5512
 4918TIP3   OH236168   4.584   0.905  14.195  0.1543  0.2361  0.2651
 4918TIP3    H136169   4.530   0.829  14.218  0.1380  0.4852  1.1013
 4918TIP3    H236170   4.587   0.905  14.100  0.9041 -1.3388  0.2624
 4919TIP3   OH236171   4.959   5.849   5.673  0.5077 -0.1082 -0.1752
 4919TIP3    H136172   4.958   5.928   5.728 -0.9057  0.8869 -1.5368
 4919TIP3    H236173   4.892   5.792   5.712 -1.1038  0.9469 -1.2472
 4920TIP3   OH236174   0.967   2.765   0.818 -0.3254  0.3850 -0.4116
 4920TIP3    H136175   0.925   2.832   0.872 -0.7406 -0.0090 -0.2446
 4920TIP3    H236176   0.895   2.724   0.770 -0.0451  0.2092 -0.6846
 4921TIP3   OH236177   5.757   6.113  11.539  0.1024 -0.3593 -0.0442
 4921TIP3    H136178   5.688   6.046  11.539 -0.1329 -0.1419 -1.4277
 4921TIP3    H236179   5.837   6.064  11.559  0.1142 -1.3104 -2.0835
 4922TIP3   OH236180   1.778   3.400  11.971 -0.2055 -0.2198 -0.0080
 4922TIP3    H136181   1.821   3.456  12.036 -0.5897 -1.3059  1.2441
 4922TIP3    H236182   1.781   3.450  11.890  2.8164  0.0745  0.1458
 4923TIP3   OH236183   1.360   5.076  12.964  0.5699 -0.0432 -0.3000
 4923TIP3    H136184   1.356   4.983  12.944 -1.8827  0.0158 -0.4012
 4923TIP3    H236185   1.280   5.113  12.925  0.3664  1.7099  1.5779
 4924TIP3   OH236186   1.870   4.440   4.694  0.2579  0.8124  0.5196
 4924TIP3    H136187   1.833   4.495   4.625  0.6221  3.8359  2.5577
 4924TIP3    H236188   1.840   4.479   4.776  2.1176 -0.9047  2.1443
 4925TIP3   OH236189   5.734   4.596   5.408 -0.0414  0.3282 -0.1350
 4925TIP3    H136190   5.775   4.609   5.494  0.9771  1.6920 -0.7885
 4925TIP3    H236191   5.669   4.528   5.423 -0.0141  0.6597  1.7608
 4926TIP3   OH236192   1.446   4.767  15.177  0.4939  0.1904  0.0313
 4926TIP3    H136193   1.353   4.779  15.196  0.5832 -0.4112  0.9106
 4926TIP3    H236194   1.490   4.794  15.257  1.1550  1.4264 -0.7245
 4927TIP3   OH236195   3.965   4.769   3.296 -0.0323  0.0470 -0.2081
 4927TIP3    H136196   3.996   4.692   3.343  1.0631  0.5589 -0.0524
 4927TIP3    H236197   3.930   4.734   3.214  2.9257 -0.4711 -1.3786
 4928TIP3   OH236198   6.711   2.526  16.171  0.6021 -0.1970 -0.5139
 4928TIP3    H136199   6.728   2.583  16.246 -0.9218  2.2856 -1.9087
 4928TIP3    H236200   6.785   2.466  16.169  1.0782  0.1142  2.4948
 4929TIP3   OH236201   2.783   3.614   4.875  0.1096 -0.0712  0.3653
 4929TIP3    H136202   2.704   3.647   4.918  0.1202  0.6720 -0.1727
 4929TIP3    H236203   2.797   3.527   4.914 -0.8510 -0.1226  0.6078
 4930TIP3   OH236204   5.179   6.678   3.362 -0.0526 -0.1892 -0.1637
 4930TIP3    H136205   5.141   6.699   3.276 -0.4667  0.6368  0.2039
 4930TIP3    H236206   5.123   6.610   3.398  0.0825 -0.4890 -0.5228
 4931TIP3   OH236207   1.871   4.612   3.650 -0.1806 -0.6069 -0.1747
 4931TIP3    H136208   1.943   4.559   3.616 -0.1512 -0.3260 -0.5466
 4931TIP3    H236209   1.845   4.667   3.577 -0.0379  0.0860  0.2909
 4932TIP3   OH236210   6.371   2.846   0.981 -0.2484 -0.2532 -0.0187
 4932TIP3    H136211   6.299   2.808   1.032 -0.0437 -0.1902  0.3184
 4932TIP3    H236212   6.418   2.771   0.946 -0.7656 -0.2922 -0.6479
 4933TIP3   OH236213   3.308   4.579  16.477  0.5234  0.3707 -0.0256
 4933TIP3    H136214   3.248   4.534  16.536  0.5019  1.3832  0.7669
 4933TIP3    H236215   3.333   4.658  16.525  0.6427  1.1395 -1.3095
 4934TIP3   OH236216   5.311   3.260  10.737 -0.2734  0.0828 -0.4956
 4934TIP3    H136217   5.237   3.305  10.694 -0.8194  0.4910  0.8263
 4934TIP3    H236218   5.371   3.330  10.762  0.5427 -0.2422 -1.4824
 4935TIP3   OH236219   6.577   1.415  16.729 -0.7822 -0.5562 -0.3736
 4935TIP3    H136220   6.518   1.382  16.797 -0.8870 -1.0246 -0.6883
 4935TIP3    H236221   6.652   1.355  16.732  0.1739  0.6310  0.7262
 4936TIP3   OH236222   4.831   3.349  16.943  0.3380  0.4406  0.2972
 4936TIP3    H136223   4.820   3.365  16.849  0.2080 -1.9260 -0.1431
 4936TIP3    H236224   4.742   3.341  16.976  0.3986  0.6975  0.5268
 4937TIP3   OH236225   6.124   2.607   4.991 -0.0356  0.4053  0.6862
 4937TIP3    H136226   6.051   2.650   4.947 -0.1426 -0.1999  0.2564
 4937TIP3    H236227   6.125   2.645   5.079 -1.3824 -0.1394  0.9706
 4938TIP3   OH236228   5.052   4.431   3.200 -0.0074 -0.2862  0.1489
 4938TIP3    H136229   5.125   4.382   3.238  0.5316  0.0264 -0.4459
 4938TIP3    H236230   5.092   4.479   3.127 -0.7183  0.2592  0.1102
 4939TIP3   OH236231   4.092   2.133  14.429  0.1713 -0.1561  0.0859
 4939TIP3    H136232   4.067   2.161  14.517 -0.6589 -1.2427  0.2154
 4939TIP3    H236233   4.166   2.075  14.443  1.7187  1.6490 -0.1635
 4940TIP3   OH236234   6.365   2.858   3.499  0.4821 -0.2171 -0.4102
 4940TIP3    H136235   6.340   2.769   3.526  0.4566 -0.0458  0.1448
 4940TIP3    H236236   6.283   2.898   3.469 -0.0371  0.4642  1.7422
 4941TIP3   OH236237   6.402   1.784   3.532 -0.0219 -0.1666 -0.6993
 4941TIP3    H136238   6.401   1.847   3.460  0.2264  0.7976  0.1253
 4941TIP3    H236239   6.323   1.804   3.582 -0.4497 -1.1520 -0.9657
 4942TIP3   OH236240   1.465   6.385   1.216 -0.0696  0.6144 -0.1854
 4942TIP3    H136241   1.482   6.442   1.142  0.4581  1.3095  0.4584
 4942TIP3    H236242   1.546   6.387   1.267  0.1463 -1.0886 -0.3841
 4943TIP3   OH236243   3.227   0.966   0.714 -0.0603  0.4780  0.1431
 4943TIP3    H136244   3.259   1.033   0.654  0.5164  0.8263  0.8310
 4943TIP3    H236245   3.147   1.003   0.751 -0.0060  0.5776  0.1600
 4944TIP3   OH236246   3.846   1.837   4.802  0.2834  0.0275 -0.2885
 4944TIP3    H136247   3.927   1.826   4.751 -0.7440 -0.5173 -1.8751
 4944TIP3    H236248   3.838   1.756   4.851  0.2615 -0.2865 -0.8018
 4945TIP3   OH236249   4.117   5.056   1.268  0.6690 -0.0564  0.0061
 4945TIP3    H136250   4.023   5.057   1.249  0.7365 -0.9111 -0.3955
 4945TIP3    H236251   4.147   5.143   1.241  0.1973 -0.1791 -0.9685
 4946TIP3   OH236252   1.691   5.199   6.263  0.3481 -0.1353 -0.2701
 4946TIP3    H136253   1.598   5.183   6.249 -0.1283  0.7783  1.5844
 4946TIP3    H236254   1.695   5.285   6.306  2.1788  0.6124 -1.8118
 4947TIP3   OH236255   6.607   0.493   4.801 -0.2569  0.1132 -0.3522
 4947TIP3    H136256   6.675   0.529   4.858 -0.2089  1.4654 -1.2252
 4947TIP3    H236257   6.577   0.414   4.847  2.7659 -1.3005 -0.5493
 4948TIP3   OH236258   6.173   2.041  16.056 -0.1712 -0.2937  0.1709
 4948TIP3    H136259   6.215   2.002  15.980  0.6735  0.9957 -0.0557
 4948TIP3    H236260   6.243   2.057  16.118 -0.5348  0.4994  0.4011
 4949TIP3   OH236261   4.947   1.455   4.937  0.5546 -0.2749 -0.1173
 4949TIP3    H136262   4.936   1.436   5.030  2.3609 -1.8211 -0.1441
 4949TIP3    H236263   5.002   1.534   4.935 -0.1919  0.2532  0.1115
 4950TIP3   OH236264   0.684   5.027   2.893  0.0443 -0.4292 -0.1061
 4950TIP3    H136265   0.646   4.953   2.940 -1.7615  0.4822 -0.0615
 4950TIP3    H236266   0.628   5.038   2.816  0.7503  0.4269 -0.5138
 4951TIP3   OH236267   0.126   0.120   3.225 -0.2058  0.1466  0.1132
 4951TIP3    H136268   0.160   0.209   3.221 -0.5730  0.4954  2.8379
 4951TIP3    H236269   0.033   0.130   3.205 -0.4119  0.5424  1.1809
 4952TIP3   OH236270   5.372   3.624   2.934 -0.3310  0.3656  0.1639
 4952TIP3    H136271   5.326   3.566   2.873 -0.5418  0.4456  0.2452
 4952TIP3    H236272   5.302   3.667   2.983 -0.1820  0.8649 -0.0549
 4953TIP3   OH236273   0.933   0.774  13.560 -0.6363 -0.3798  0.3423
 4953TIP3    H136274   0.937   0.688  13.519  1.0413 -0.6748  1.0033
 4953TIP3    H236275   0.972   0.760  13.647 -2.0131  0.6840  1.1649
 4954TIP3   OH236276   0.929   5.612  10.850 -0.6353 -0.1914 -0.2171
 4954TIP3    H136277   0.912   5.700  10.817 -0.9021 -0.1740 -0.0347
 4954TIP3    H236278   1.018   5.592  10.821 -1.1278 -0.4775 -1.6272
 4955TIP3   OH236279   0.714   3.403  15.423 -0.6002 -0.3722 -0.0047
 4955TIP3    H136280   0.791   3.423  15.476 -1.4740  3.1752  0.1780
 4955TIP3    H236281   0.685   3.488  15.390 -2.9842 -1.8691 -2.1692
 4956TIP3   OH236282   0.586   1.976   0.670 -0.1460  0.1146 -0.2572
 4956TIP3    H136283   0.615   1.917   0.600  0.3923  0.7754 -0.5901
 4956TIP3    H236284   0.490   1.965   0.670 -0.1084 -0.3046 -0.7229
 4957TIP3   OH236285   3.016   2.135   2.029 -0.0105 -0.0211 -0.3498
 4957TIP3    H136286   3.078   2.160   2.099  1.0296 -1.1737 -0.8232
 4957TIP3    H236287   3.063   2.156   1.948  0.4928 -2.4358 -0.7503
 4958TIP3   OH236288   6.223   3.632   3.389 -0.6435 -0.0684  0.1220
 4958TIP3    H136289   6.177   3.714   3.409  1.1868  0.5138  2.4719
 4958TIP3    H236290   6.276   3.652   3.312 -0.7432  0.7665  0.2589
 4959TIP3   OH236291   0.079   4.030  13.668 -0.3439 -0.0251  0.2290
 4959TIP3    H136292   0.151   4.043  13.606 -0.3695 -3.1721 -0.6430
 4959TIP3    H236293   0.120   4.036  13.754  0.6548 -0.1148 -0.2240
 4960TIP3   OH236294   5.932   0.330   4.163  0.3213 -0.9101  0.0390
 4960TIP3    H136295   6.022   0.320   4.192  1.1861  1.9879 -1.2665
 4960TIP3    H236296   5.931   0.295   4.074  0.0026 -1.4866  0.2684
 4961TIP3   OH236297   1.104   2.317   2.131 -0.1085 -0.4571  0.3767
 4961TIP3    H136298   1.046   2.393   2.120  0.9776  0.3329 -0.1494
 4961TIP3    H236299   1.186   2.354   2.164  1.4487 -0.9340 -2.6130
 4962TIP3   OH236300   0.729   1.686  12.672  0.4493 -0.0721 -0.0937
 4962TIP3    H136301   0.685   1.652  12.594  0.8543 -0.0155 -0.3531
 4962TIP3    H236302   0.710   1.779  12.673 -1.0807 -0.3483  0.8941
 4963TIP3   OH236303   6.129   6.231   3.221 -0.3361  0.0681  0.0757
 4963TIP3    H136304   6.144   6.314   3.267  1.0070 -0.0283 -0.1475
 4963TIP3    H236305   6.168   6.165   3.278 -0.9680 -0.3656  0.0156
 4964TIP3   OH236306   4.348   5.144  11.968 -0.5139  0.0461 -0.3736
 4964TIP3    H136307   4.300   5.122  12.048  0.6192  0.9089  0.5816
 4964TIP3    H236308   4.281   5.145  11.900 -1.5743 -0.3585  0.6202
 4965TIP3   OH236309   0.929   4.456  11.898  0.3547  0.3147  0.8022
 4965TIP3    H136310   0.871   4.395  11.943  0.5245  0.3356  1.0480
 4965TIP3    H236311   0.872   4.529  11.872  0.0642 -0.1409  0.1350
 4966TIP3   OH236312   2.398   4.432   0.027  0.2296  0.2690 -0.3623
 4966TIP3    H136313   2.393   4.339   0.048  0.7837  0.3722  0.2278
 4966TIP3    H236314   2.480   4.442  -0.021  0.8844  0.6766  0.7947
 4967TIP3   OH236315   4.251   4.601  13.459 -0.3355  0.4027  1.1227
 4967TIP3    H136316   4.304   4.680  13.442 -0.0306  0.2599  1.4176
 4967TIP3    H236317   4.259   4.550  13.378 -0.0627  0.4024  1.1502
 4968TIP3   OH236318   0.263   6.753   5.148  0.1918 -0.3976 -0.5258
 4968TIP3    H136319   0.221   6.680   5.193  0.0958  0.6190  1.0956
 4968TIP3    H236320   0.192   6.794   5.098 -0.1687 -0.3058  0.0529
 4969TIP3   OH236321   1.751   3.799  12.444  0.3787 -0.2278 -0.0548
 4969TIP3    H136322   1.720   3.730  12.503 -1.9264 -0.1684 -1.0765
 4969TIP3    H236323   1.710   3.879  12.477  1.1353  0.2473 -0.2439
 4970TIP3   OH236324   3.808   4.593  13.028 -0.4382 -0.6286 -0.5939
 4970TIP3    H136325   3.778   4.538  13.100  0.4217 -2.0390 -1.2631
 4970TIP3    H236326   3.827   4.531  12.957  0.7317  0.5065 -1.3263
 4971TIP3   OH236327   3.589   6.630   1.159 -0.1710  0.1179 -0.1846
 4971TIP3    H136328   3.674   6.591   1.137 -0.0932 -0.1647  0.5579
 4971TIP3    H236329   3.607   6.724   1.167  0.1066  0.0431  0.0991
 4972TIP3   OH236330   6.633   0.470   5.145 -0.0071 -0.5505  0.5030
 4972TIP3    H136331   6.555   0.476   5.200 -0.1804 -0.1633  0.2180
 4972TIP3    H236332   6.701   0.516   5.195  0.0408 -0.9047  0.7592
 4973TIP3   OH236333   3.600   1.110  14.934 -0.1049  0.3415  0.2723
 4973TIP3    H136334   3.658   1.152  14.871 -1.7624  3.9538  0.9199
 4973TIP3    H236335   3.635   1.135  15.019  0.3049 -1.8633  0.8179
 4974TIP3   OH236336   6.721   5.666  13.852  0.5747 -0.2380  0.7540
 4974TIP3    H136337   6.803   5.712  13.870  0.3636  0.7068 -0.5507
 4974TIP3    H236338   6.720   5.592  13.913  0.6508  1.7923  3.3747
 4975TIP3   OH236339   1.174   4.070  16.149  0.0782  0.3706 -0.3325
 4975TIP3    H136340   1.210   4.063  16.061  0.3446  0.6237 -0.2488
 4975TIP3    H236341   1.083   4.044  16.141 -0.0341  0.8912 -0.7805
 4976TIP3   OH236342   6.582   6.601   6.798 -0.0979 -0.0049 -0.1111
 4976TIP3    H136343   6.490   6.593   6.823  0.4720 -2.2866  1.6517
 4976TIP3    H236344   6.582   6.593   6.703 -1.7207  0.2201 -0.1550
 4977TIP3   OH236345   2.783   1.392   2.362  0.0262 -0.3053  0.0472
 4977TIP3    H136346   2.876   1.398   2.382  0.1424 -2.1124  0.1936
 4977TIP3    H236347   2.738   1.416   2.443  0.4002 -1.4953  0.6109
 4978TIP3   OH236348   5.164   0.511   3.990  0.0997 -0.4879 -0.3671
 4978TIP3    H136349   5.202   0.443   3.935 -1.5516  0.1488 -2.3880
 4978TIP3    H236350   5.236   0.574   4.003  0.5191 -0.6298 -1.8558
 4979TIP3   OH236351   1.207   6.348  16.866 -0.3401  0.3184 -0.0758
 4979TIP3    H136352   1.153   6.269  16.860  0.2570 -0.0574 -0.7253
 4979TIP3    H236353   1.145   6.420  16.865 -0.8092 -0.0429 -2.2050
 4980TIP3   OH236354   2.213   6.110  14.773 -0.4370 -0.0667 -0.3577
 4980TIP3    H136355   2.152   6.124  14.846 -1.5016 -1.1531 -1.0024
 4980TIP3    H236356   2.259   6.194  14.765  0.0495 -0.0631  1.8401
 4981TIP3   OH236357   3.903   6.335  11.857  0.8068  0.2178 -0.0455
 4981TIP3    H136358   3.848   6.314  11.782  1.9282 -0.1332 -0.7981
 4981TIP3    H236359   3.849   6.393  11.911 -0.7160 -1.0361 -0.1570
 4982TIP3   OH236360   5.640   6.083  14.065 -0.4832 -0.1320  0.0200
 4982TIP3    H136361   5.675   6.002  14.028 -0.6513 -0.0418 -0.3417
 4982TIP3    H236362   5.667   6.081  14.156  0.4376 -0.0770 -0.2450
 4983TIP3   OH236363   3.277   3.342  14.905  0.1397  0.1278  0.2934
 4983TIP3    H136364   3.363   3.302  14.894  0.4641  0.7621  0.4567
 4983TIP3    H236365   3.225   3.308  14.832  0.4191 -0.5306  0.3883
 4984TIP3   OH236366   2.474   5.783   3.381 -0.0226  0.0220  0.2160
 4984TIP3    H136367   2.409   5.737   3.328  0.2410 -0.7931  0.5829
 4984TIP3    H236368   2.430   5.863   3.411 -0.3004  0.2937 -0.8893
 4985TIP3   OH236369   3.149   6.033  16.944  0.2998 -0.1576  0.4180
 4985TIP3    H136370   3.166   6.049  16.851 -0.7249 -0.4587  0.1671
 4985TIP3    H236371   3.130   5.940  16.949  0.8228 -0.2372  1.0121
 4986TIP3   OH236372   1.841   0.948   2.208 -0.0635 -0.2910  0.0005
 4986TIP3    H136373   1.812   0.936   2.117  0.8794 -2.4460 -0.0726
 4986TIP3    H236374   1.785   0.890   2.259  2.1002 -2.3746  0.1961
 4987TIP3   OH236375   1.124   4.676   0.112 -0.4686  0.1840 -0.2049
 4987TIP3    H136376   1.062   4.743   0.084  1.3299  2.2488  0.4856
 4987TIP3    H236377   1.109   4.666   0.206 -2.0708 -1.9479 -0.6038
 4988TIP3   OH236378   4.352   3.908  14.622 -0.4775 -0.3041 -0.2319
 4988TIP3    H136379   4.367   3.899  14.528 -0.0456  0.3301 -0.2263
 4988TIP3    H236380   4.257   3.896  14.633 -0.6336  0.3215 -0.8363
 4989TIP3   OH236381   5.292   5.015   3.753  0.3687 -0.3638 -0.2379
 4989TIP3    H136382   5.377   5.040   3.717  0.3763  1.4553  0.8751
 4989TIP3    H236383   5.233   5.014   3.678  0.9037  0.7471 -0.6955
 4990TIP3   OH236384   4.628   0.288  12.506 -0.0212 -0.5423  0.4811
 4990TIP3    H136385   4.564   0.337  12.455  0.0984 -1.8354 -1.0047
 4990TIP3    H236386   4.703   0.278  12.448 -0.0386 -2.4169  0.6957
 4991TIP3   OH236387   0.256   2.237   5.946  0.1269  0.2704 -0.4219
 4991TIP3    H136388   0.212   2.306   5.995 -2.0010 -1.2250 -0.0522
 4991TIP3    H236389   0.252   2.160   6.004 -0.0060 -0.8442 -1.8515
 4992TIP3   OH236390   0.405   2.324   3.013  0.3786 -0.5640 -0.3175
 4992TIP3    H136391   0.460   2.370   2.950  0.4686 -0.3738 -0.1021
 4992TIP3    H236392   0.435   2.233   3.009  0.9203 -0.4078  0.0162
 4993TIP3   OH236393   2.945   4.003   0.690 -0.1271 -0.6904 -0.2375
 4993TIP3    H136394   2.942   3.912   0.659 -1.2031 -0.7328 -0.0585
 4993TIP3    H236395   2.975   4.053   0.614 -0.1578 -1.1228 -0.5402
 4994TIP3   OH236396   3.943   0.595   0.563  0.4050 -0.7472  0.3911
 4994TIP3    H136397   3.932   0.690   0.557  0.6101 -0.7318  0.2574
 4994TIP3    H236398   3.933   0.575   0.656 -0.3371 -0.6798  0.3281
 4995TIP3   OH236399   6.131   0.770  11.835 -0.4092  0.0852  0.0267
 4995TIP3    H136400   6.218   0.801  11.811 -0.2579  0.8861  1.4553
 4995TIP3    H236401   6.138   0.675  11.838  0.9526  0.2036  1.9092
 4996TIP3   OH236402   3.579   1.053   1.130 -0.0946 -0.0123  0.0178
 4996TIP3    H136403   3.558   0.960   1.128 -0.1765  0.0092 -2.6054
 4996TIP3    H236404   3.658   1.058   1.184 -0.5664 -1.4691  0.8957
 4997TIP3   OH236405   2.031   1.257   1.356  0.0550 -0.5249 -0.2732
 4997TIP3    H136406   1.976   1.180   1.346  1.5771 -1.8930  1.2152
 4997TIP3    H236407   2.019   1.284   1.447 -0.4832  1.0694 -0.7726
 4998TIP3   OH236408   4.531   4.133   3.642 -0.4663 -0.2653 -0.0372
 4998TIP3    H136409   4.488   4.065   3.694  1.2607 -0.4436  1.2121
 4998TIP3    H236410   4.573   4.086   3.570 -2.4959 -0.0595 -1.4558
 4999TIP3   OH236411   3.721   5.439   2.565  0.4536  0.0331 -0.2920
 4999TIP3    H136412   3.750   5.485   2.644 -1.4398  0.0422  0.4638
 4999TIP3    H236413   3.643   5.391   2.593  0.8760 -1.5513 -1.7127
 5000TIP3   OH236414   6.645   0.346  16.540  0.3463  0.1920 -0.2829
 5000TIP3    H136415   6.715   0.286  16.515  0.6716  0.1468  0.6821
 5000TIP3    H236416   6.567   0.292  16.545  0.9584 -0.6061  2.3656
 5001TIP3   OH236417   1.107   0.961   3.876  0.5027  0.6699 -0.4951
 5001TIP3    H136418   1.166   0.894   3.912 -2.0463 -0.9463  0.9566
 5001TIP3    H236419   1.083   1.015   3.951 -0.8562  0.4820 -0.7768
 5002TIP3   OH236420   1.394   3.563  16.781  0.4138 -0.1422  0.3808
 5002TIP3    H136421   1.405   3.651  16.744 -2.1675 -0.2293 -0.7931
 5002TIP3    H236422   1.425   3.504  16.711 -1.1846 -0.2124 -0.3073
 5003TIP3   OH236423   2.431   6.715  13.132  0.0976 -0.1107 -0.3404
 5003TIP3    H136424   2.487   6.787  13.101  0.0713 -0.0422 -0.2286
 5003TIP3    H236425   2.474   6.636  13.100  0.0975 -0.0426 -0.5104
 5004TIP3   OH236426   6.707   0.615  16.065  0.0009 -0.7421 -0.2817
 5004TIP3    H136427   6.639   0.663  16.112 -0.6595 -1.7997 -0.1361
 5004TIP3    H236428   6.751   0.563  16.133 -0.1651 -1.3550 -0.6313
 5005TIP3   OH236429   2.550   5.218  15.309 -0.0847 -0.3258 -0.1995
 5005TIP3    H136430   2.506   5.257  15.385  0.4061 -0.5681  0.2129
 5005TIP3    H236431   2.643   5.228  15.328  0.0392 -0.3352 -0.8011
 5006TIP3   OH236432   0.305   6.455   5.414 -0.5144 -0.4685 -0.3261
 5006TIP3    H136433   0.389   6.484   5.379  0.1412 -1.2010  0.5990
 5006TIP3    H236434   0.241   6.515   5.375  0.4390  0.1582 -0.9701
 5007TIP3   OH236435   4.844   5.542   3.160 -0.3388 -0.0815  0.3360
 5007TIP3    H136436   4.811   5.591   3.084  0.2024 -0.7328 -0.3291
 5007TIP3    H236437   4.839   5.450   3.133  1.0313 -0.2539  0.6133
 5008TIP3   OH236438   3.048   1.880   4.682  0.3704  0.1017 -0.0292
 5008TIP3    H136439   2.992   1.823   4.629  0.9470 -0.5014  0.0011
 5008TIP3    H236440   3.010   1.968   4.671  0.0477 -0.1296 -0.8379
 5009TIP3   OH236441   6.262   6.274   0.242 -0.4069 -0.3128 -0.6893
 5009TIP3    H136442   6.167   6.288   0.246 -0.3124  1.8550 -3.1453
 5009TIP3    H236443   6.297   6.328   0.313 -0.9533  0.7394 -1.1822
 5010TIP3   OH236444   0.858   0.758  16.197  0.8454  0.6281 -0.2341
 5010TIP3    H136445   0.779   0.756  16.251  0.2609 -1.7502 -1.0380
 5010TIP3    H236446   0.927   0.724  16.253  0.1803 -2.1156 -0.9270
 5011TIP3   OH236447   4.945   4.757   2.069 -0.1946 -0.3770 -0.1525
 5011TIP3    H136448   5.013   4.782   2.132 -1.5037  0.1214  1.1202
 5011TIP3    H236449   4.990   4.699   2.007  1.3007 -0.3512  0.8570
 5012TIP3   OH236450   4.249   5.962  11.882 -0.3150  0.6404 -0.2883
 5012TIP3    H136451   4.194   6.011  11.942 -0.0340  1.4443 -0.6691
 5012TIP3    H236452   4.202   5.880  11.867  0.0423 -0.0008  1.7373
 5013TIP3   OH236453   4.711   3.685   6.237 -0.1807 -0.1381 -0.1975
 5013TIP3    H136454   4.640   3.738   6.201 -1.9928 -3.2207 -1.6071
 5013TIP3    H236455   4.679   3.655   6.322  0.3849  0.1957  0.1383
 5014TIP3   OH236456   5.244   2.189   1.598 -0.3871  0.0542 -0.4454
 5014TIP3    H136457   5.271   2.257   1.660 -1.2442  0.8268 -0.8946
 5014TIP3    H236458   5.326   2.146   1.573  0.2266  1.1609 -0.4332
 5015TIP3   OH236459   1.881   6.115  15.584 -0.3569  0.6191  0.0395
 5015TIP3    H136460   1.824   6.129  15.509 -0.1471  0.8210 -0.0855
 5015TIP3    H236461   1.835   6.157  15.657 -0.5655  0.4131  0.0274
 5016TIP3   OH236462   2.151   4.135   2.370  1.0629  0.2282  0.3809
 5016TIP3    H136463   2.147   4.077   2.294 -1.4386 -1.8961  1.9630
 5016TIP3    H236464   2.230   4.187   2.356  1.5227 -1.1065 -2.8850
 5017TIP3   OH236465   5.401   5.255  14.812 -0.0916 -0.8789  0.4283
 5017TIP3    H136466   5.314   5.223  14.837  0.8792 -1.7477  3.1235
 5017TIP3    H236467   5.452   5.250  14.893  1.5932  2.7365 -0.2368
 5018TIP3   OH236468   1.742   1.661   5.856  0.6151 -0.4453 -0.3079
 5018TIP3    H136469   1.790   1.716   5.918 -0.9764 -1.3301  1.7910
 5018TIP3    H236470   1.652   1.693   5.860  0.3500 -0.9630 -1.7086
 5019TIP3   OH236471   4.470   6.702  12.750 -0.0724  0.1778  0.0409
 5019TIP3    H136472   4.497   6.613  12.727  1.7502  0.9864 -1.1683
 5019TIP3    H236473   4.420   6.732  12.674  0.5638  0.6603 -0.2017
 5020TIP3   OH236474   4.662   4.893   4.849 -1.0310  0.0955  0.2301
 5020TIP3    H136475   4.677   4.961   4.914  0.9759 -0.6231  0.5994
 5020TIP3    H236476   4.645   4.814   4.901  1.6338 -0.7229  0.0389
 5021TIP3   OH236477   4.890   2.012  13.081  0.3053 -0.1917  0.0975
 5021TIP3    H136478   4.847   2.020  13.166  0.5905  2.2781  0.0918
 5021TIP3    H236479   4.819   1.991  13.020 -0.9243  2.9808  0.2292
 5022TIP3   OH236480   4.168   3.443   3.572 -0.0461  0.4869  0.1883
 5022TIP3    H136481   4.227   3.367   3.576  1.3058  1.5158  0.5793
 5022TIP3    H236482   4.121   3.441   3.656 -0.1411 -0.0031  0.1283
 5023TIP3   OH236483   5.954   0.580   5.832 -0.1074  0.2118 -0.1263
 5023TIP3    H136484   6.009   0.535   5.769  2.0823  1.2289  0.9509
 5023TIP3    H236485   5.990   0.556   5.917 -2.7621 -0.8529  0.8019
 5024TIP3   OH236486   5.052   0.615   0.616  0.0739 -0.0304  0.5202
 5024TIP3    H136487   5.033   0.671   0.540  1.8551  1.0324  0.7815
 5024TIP3    H236488   4.986   0.546   0.613 -1.0701  1.0648 -0.8909
 5025TIP3   OH236489   0.846   5.472  14.991 -0.1867 -0.3185 -0.0733
 5025TIP3    H136490   0.895   5.529  14.932  0.1788 -0.4137  0.1371
 5025TIP3    H236491   0.768   5.523  15.014 -0.3262 -0.2771 -0.6247
 5026TIP3   OH236492   6.155   3.081   4.027  0.0242  0.5324 -0.1366
 5026TIP3    H136493   6.130   2.991   4.004  0.6269  0.3097  0.0576
 5026TIP3    H236494   6.171   3.078   4.121 -1.9475  1.3294  0.2652
 5027TIP3   OH236495   1.089   5.775   2.645 -0.3719 -0.0898  0.3275
 5027TIP3    H136496   1.102   5.705   2.581  0.5816  0.9358 -0.6463
 5027TIP3    H236497   1.019   5.743   2.702  1.8648 -3.0950  1.6730
 5028TIP3   OH236498   2.446   0.092  16.805 -0.3562  0.4093  0.0222
 5028TIP3    H136499   2.530   0.130  16.780  0.6238 -2.4069 -1.5251
 5028TIP3    H236500   2.460   0.057  16.893  0.6914 -1.4151 -0.8202
 5029TIP3   OH236501   3.612   1.610   1.037 -0.0139 -0.1733  0.8171
 5029TIP3    H136502   3.554   1.680   1.006  0.7918  0.3165  0.3909
 5029TIP3    H236503   3.553   1.536   1.051 -1.3240  1.2082  3.6005
 5030TIP3   OH236504   4.579   4.892  16.357  0.3371  0.8286  0.6152
 5030TIP3    H136505   4.562   4.799  16.341  1.8807  0.4637  0.9418
 5030TIP3    H236506   4.673   4.897  16.375  0.5824  2.6462 -0.8226
 5031TIP3   OH236507   4.725   6.206  13.673 -0.2818 -0.1976  0.7314
 5031TIP3    H136508   4.759   6.160  13.750  0.2927 -1.4983 -0.2624
 5031TIP3    H236509   4.788   6.186  13.603 -1.3042  0.1419 -0.3241
 5032TIP3   OH236510   4.076   0.449  13.373 -0.0344  0.1935 -0.0421
 5032TIP3    H136511   4.072   0.509  13.447 -0.8534 -1.8381  1.6354
 5032TIP3    H236512   4.169   0.443  13.351  0.1235  1.5110  0.1757
 5033TIP3   OH236513   5.472   6.107   1.930  0.0473  0.3506  0.4043
 5033TIP3    H136514   5.532   6.065   1.869 -0.1193 -1.1304  1.1993
 5033TIP3    H236515   5.516   6.187   1.957 -0.7677  2.1834 -3.1930
 5034TIP3   OH236516   6.301   2.175   1.434  0.7786 -0.4241  0.1704
 5034TIP3    H136517   6.336   2.246   1.487 -0.2206  0.5333 -0.4154
 5034TIP3    H236518   6.373   2.112   1.428  1.6679  0.5059  0.7472
 5035TIP3   OH236519   0.215   5.449   6.577  0.0496 -0.5750  0.4563
 5035TIP3    H136520   0.305   5.479   6.561  0.5635 -2.0554  0.4473
 5035TIP3    H236521   0.174   5.521   6.624  1.5537 -0.2874  1.3884
 5036TIP3   OH236522   3.514   5.665   4.103  0.0082 -0.0891  0.0095
 5036TIP3    H136523   3.484   5.591   4.156 -0.9128  0.4081  0.2018
 5036TIP3    H236524   3.536   5.733   4.166 -0.9769  0.4617 -0.2298
 5037TIP3   OH236525   1.242   0.532  16.627 -0.5272 -0.1345 -0.0154
 5037TIP3    H136526   1.324   0.580  16.641 -0.4460 -0.3495  0.2649
 5037TIP3    H236527   1.258   0.447  16.668 -0.5538 -0.5114 -0.7680
 5038TIP3   OH236528   5.806   2.100  15.165 -0.6965  0.3035 -0.4945
 5038TIP3    H136529   5.724   2.110  15.117 -0.1728  0.3852 -1.4071
 5038TIP3    H236530   5.861   2.047  15.107 -0.4215 -0.5378  0.5043
 5039TIP3   OH236531   0.073   1.625  13.975  0.0414 -0.8343  0.2106
 5039TIP3    H136532   0.071   1.538  13.936 -3.8111 -0.6347 -0.4280
 5039TIP3    H236533   0.079   1.609  14.070  0.4709 -1.7045  0.0445
 5040TIP3   OH236534   6.316   0.787   4.881  0.1332 -0.0420  0.4103
 5040TIP3    H136535   6.299   0.861   4.938 -0.6723  0.1377 -0.0489
 5040TIP3    H236536   6.251   0.721   4.906 -1.4414  0.6943 -1.4422
 5041TIP3   OH236537   1.284   4.585   5.647  0.2402  0.7134  0.2052
 5041TIP3    H136538   1.286   4.679   5.635  1.6087  0.6732  0.0074
 5041TIP3    H236539   1.374   4.561   5.668  0.3991 -0.8171 -1.9374
 5042TIP3   OH236540   2.618   3.092   5.541  0.5248 -0.0308  0.4661
 5042TIP3    H136541   2.533   3.064   5.576 -0.0864  0.1151 -0.8554
 5042TIP3    H236542   2.597   3.137   5.460  1.9002 -0.3042 -0.0709
 5043TIP3   OH236543   2.815   6.103  14.440 -0.3980  0.4463  0.1378
 5043TIP3    H136544   2.866   6.090  14.361  0.7811 -0.1960  0.9790
 5043TIP3    H236545   2.829   6.024  14.492 -1.0315  0.9029  1.0462
 5044TIP3   OH236546   2.399   4.331  11.260  0.7720  0.4912 -0.1220
 5044TIP3    H136547   2.322   4.380  11.228  0.3063 -1.0219 -1.4472
 5044TIP3    H236548   2.462   4.336  11.188  0.1320 -2.0578 -0.9726
 5045TIP3   OH236549   3.545   0.302  12.632  0.4855  0.7176 -0.4571
 5045TIP3    H136550   3.637   0.298  12.658  0.2431  0.0318  0.3430
 5045TIP3    H236551   3.548   0.318  12.538  1.4666 -0.9731 -0.7708
 5046TIP3   OH236552   3.192   4.103   0.090 -0.7047 -0.2735 -0.0838
 5046TIP3    H136553   3.145   4.021   0.082 -1.4455 -0.0491  1.4515
 5046TIP3    H236554   3.244   4.093   0.170  0.5989  0.1097 -0.8449
 5047TIP3   OH236555   6.252   2.418  17.118 -0.0606 -0.1910 -0.3509
 5047TIP3    H136556   6.222   2.382  17.035  0.7759  0.3188 -0.8886
 5047TIP3    H236557   6.331   2.367  17.139  0.5654  0.6542 -0.6181
 5048TIP3   OH236558   1.852   5.142  16.306 -0.1416  0.0977  0.0250
 5048TIP3    H136559   1.874   5.151  16.398  1.9127  2.5975 -0.5945
 5048TIP3    H236560   1.913   5.075  16.273  2.1177  2.1519 -0.2654
 5049TIP3   OH236561   3.959   0.804  16.342 -0.0216  0.4810 -0.8709
 5049TIP3    H136562   3.893   0.757  16.394  1.1903  1.2753  1.5202
 5049TIP3    H236563   3.910   0.877  16.303 -0.4656  1.8332  1.9071
 5050TIP3   OH236564   4.672   4.611  16.744 -0.4021 -0.3867  0.2514
 5050TIP3    H136565   4.605   4.605  16.676 -1.6268 -0.7251  1.4554
 5050TIP3    H236566   4.689   4.705  16.752  1.1561 -0.4161 -1.7908
 5051TIP3   OH236567   2.750   3.766   5.222 -0.3223 -0.0648 -0.2916
 5051TIP3    H136568   2.681   3.743   5.160 -1.0449  0.8839  0.1218
 5051TIP3    H236569   2.787   3.848   5.189  0.7297 -0.6528 -0.5955
 5052TIP3   OH236570   2.708   5.109  16.583  0.1527 -0.6167 -0.2920
 5052TIP3    H136571   2.655   5.048  16.532  1.5028 -0.9192 -1.3988
 5052TIP3    H236572   2.748   5.055  16.651 -0.0051 -0.6312 -0.2111
 5053TIP3   OH236573   2.225   1.175  16.398 -0.2019 -0.2220 -0.2448
 5053TIP3    H136574   2.288   1.242  16.370  1.0231 -0.1906  2.3043
 5053TIP3    H236575   2.141   1.207  16.367  0.5638  1.7026 -0.4625
 5054TIP3   OH236576   2.388   1.088   3.535 -0.6316 -0.0254 -0.1813
 5054TIP3    H136577   2.465   1.067   3.588  1.1130  1.5911 -1.9129
 5054TIP3    H236578   2.365   1.006   3.491 -0.2561 -0.6510  0.7665
 5055TIP3   OH236579   4.013   1.415   1.356  0.0558 -0.3813  0.1205
 5055TIP3    H136580   3.953   1.461   1.297 -0.9430 -1.2017  0.4603
 5055TIP3    H236581   4.097   1.416   1.311 -0.3145  0.4263 -0.5652
 5056TIP3   OH236582   6.454   4.618  12.481  0.8447  0.2434 -0.2165
 5056TIP3    H136583   6.525   4.557  12.500  0.6682  0.7230  2.3249
 5056TIP3    H236584   6.480   4.699  12.525 -0.0563  1.2719 -1.5076
 5057TIP3   OH236585   0.167   2.835  13.676 -0.1632  0.3965  0.0051
 5057TIP3    H136586   0.145   2.759  13.623  0.4829 -0.5768  1.1031
 5057TIP3    H236587   0.087   2.888  13.677 -1.5677 -1.6264  1.4793
 5058TIP3   OH236588   2.185   0.841  16.839 -0.5175 -0.2306 -0.1929
 5058TIP3    H136589   2.161   0.799  16.921  2.0764 -1.3017  0.1025
 5058TIP3    H236590   2.161   0.778  16.772 -0.2578 -0.4695 -0.0611
 5059TIP3   OH236591   4.362   2.746  16.910  0.4232  0.6043 -0.3477
 5059TIP3    H136592   4.330   2.727  16.822 -0.4537 -0.3460  0.1497
 5059TIP3    H236593   4.283   2.756  16.963  0.8840 -1.4386  0.8331
 5060TIP3   OH236594   6.361   4.290   3.296 -0.2704 -0.4782 -0.3104
 5060TIP3    H136595   6.342   4.266   3.386  1.5484 -2.1958 -0.3406
 5060TIP3    H236596   6.427   4.359   3.303  0.2333 -0.9549 -0.3214
 5061TIP3   OH236597   0.052   3.210   5.095  0.0333  0.1489 -0.1292
 5061TIP3    H136598   0.064   3.132   5.040 -0.2226  0.3627 -0.4932
 5061TIP3    H236599   0.054   3.176   5.185  0.6828 -0.1747 -0.2551
 5062TIP3   OH236600   2.637   4.147  11.120 -0.1731  0.2035 -0.1573
 5062TIP3    H136601   2.622   4.054  11.100 -0.6740  0.4915 -1.1736
 5062TIP3    H236602   2.707   4.173  11.060 -0.8374  0.7698 -0.7033
 5063TIP3   OH236603   0.583   0.955   1.647  0.9642 -0.5411 -0.8534
 5063TIP3    H136604   0.604   0.936   1.738 -0.1712  0.2161 -0.4172
 5063TIP3    H236605   0.501   0.909   1.630 -0.1523  1.2914 -0.7164
 5064TIP3   OH236606   1.521   3.208  12.334 -0.5737 -0.9250  0.3625
 5064TIP3    H136607   1.538   3.157  12.255 -0.9771  0.2395 -0.5062
 5064TIP3    H236608   1.457   3.157  12.383  0.5915 -2.2572  0.5637
 5065TIP3   OH236609   2.215   6.663  16.914  0.1434 -0.1224  0.4071
 5065TIP3    H136610   2.217   6.733  16.980  2.1990 -0.7178  1.0387
 5065TIP3    H236611   2.257   6.588  16.956  1.1813 -0.6358 -1.4279
 5066TIP3   OH236612   0.593   6.590   3.405  0.2952 -0.1308 -0.1201
 5066TIP3    H136613   0.628   6.546   3.327  1.0381  0.6123 -0.2133
 5066TIP3    H236614   0.501   6.606   3.384  0.4215 -0.1893 -0.7266
 5067TIP3   OH236615   6.577   5.113   3.237 -0.2898  0.0018 -0.2516
 5067TIP3    H136616   6.650   5.160   3.196  0.3099 -0.1109  0.6465
 5067TIP3    H236617   6.615   5.075   3.316 -0.8970 -1.5716 -0.6957
 5068TIP3   OH236618   2.897   4.968   4.557  0.1323  0.4028  0.1489
 5068TIP3    H136619   2.957   4.895   4.570  0.3257  0.7169  1.0221
 5068TIP3    H236620   2.940   5.044   4.597 -1.0723  0.5166  1.3099
 5069TIP3   OH236621   1.615   5.839   0.787  0.1561  0.3742  0.0806
 5069TIP3    H136622   1.573   5.924   0.796 -0.3524  0.1975 -0.4967
 5069TIP3    H236623   1.643   5.835   0.695 -0.1015 -0.1926  0.0165
 5070TIP3   OH236624   0.569   5.721   1.490  0.4840 -0.3101 -0.1563
 5070TIP3    H136625   0.514   5.686   1.559  0.6401  0.2496  0.2600
 5070TIP3    H236626   0.584   5.647   1.431 -0.5158 -0.5248 -0.1566
 5071TIP3   OH236627   2.475   4.509   3.253 -0.3360  0.2029 -0.6736
 5071TIP3    H136628   2.399   4.534   3.306  0.1004  0.3834 -0.1216
 5071TIP3    H236629   2.491   4.418   3.276 -0.6697  0.0244 -1.1427
 5072TIP3   OH236630   0.938   4.995  13.705 -0.5888  0.1118 -0.5574
 5072TIP3    H136631   0.967   4.904  13.707 -1.7020 -0.2588  1.8943
 5072TIP3    H236632   0.884   5.001  13.626 -0.2292 -1.2544 -0.9341
 5073TIP3   OH236633   4.610   0.054   1.380  0.5637 -0.0426 -0.7662
 5073TIP3    H136634   4.645  -0.017   1.327 -0.5735 -3.0127  2.1282
 5073TIP3    H236635   4.518   0.059   1.357  0.3043 -0.6049  0.1108
 5074TIP3   OH236636   1.004   1.257  11.624  0.5346  0.7395 -0.1785
 5074TIP3    H136637   0.917   1.222  11.641  0.3132  0.4258 -1.7953
 5074TIP3    H236638   1.003   1.346  11.660 -0.0484  0.3260  0.8532
 5075TIP3   OH236639   1.953   1.122   5.991  0.0679  0.3676  0.3414
 5075TIP3    H136640   1.879   1.134   6.051  0.3785  1.3036  0.5451
 5075TIP3    H236641   2.030   1.123   6.048  0.2829 -0.0801  0.0648
 5076TIP3   OH236642   5.796   5.485  15.992 -0.4921 -0.4269 -0.2048
 5076TIP3    H136643   5.882   5.443  16.002 -0.0436  0.3637 -0.6914
 5076TIP3    H236644   5.808   5.573  16.027 -0.7155  0.1539 -1.5423
 5077TIP3   OH236645   4.362   0.227   2.883  0.5127  0.0438 -0.2011
 5077TIP3    H136646   4.284   0.225   2.827  0.3277 -2.7052  0.0397
 5077TIP3    H236647   4.435   0.234   2.822  0.2486 -1.7268 -0.7714
 5078TIP3   OH236648   3.194   4.439  11.459 -0.0121 -0.3985  0.0244
 5078TIP3    H136649   3.102   4.417  11.451 -0.0810  0.1004 -0.7657
 5078TIP3    H236650   3.221   4.462  11.369  0.4804  0.9299  0.4760
 5079TIP3   OH236651   5.241   6.741  12.603  0.3298  0.1960 -0.8244
 5079TIP3    H136652   5.196   6.787  12.532  0.2464  0.8345 -0.3635
 5079TIP3    H236653   5.329   6.777  12.603 -0.2211  1.6632  0.6571
 5080TIP3   OH236654   5.329   1.265  15.108  0.1855 -0.2738  0.1695
 5080TIP3    H136655   5.302   1.337  15.050 -2.5094 -1.1355  0.2055
 5080TIP3    H236656   5.372   1.203  15.049 -1.2771 -0.5116 -0.6959
 5081TIP3   OH236657   0.958   0.772   4.991  0.0028 -0.2367  0.1774
 5081TIP3    H136658   0.983   0.726   4.911 -2.0954 -0.7079 -0.2841
 5081TIP3    H236659   0.867   0.746   5.005 -0.1322  1.0216  1.9037
 5082TIP3   OH236660   5.377   2.124   1.878 -0.0441  0.2418  0.6132
 5082TIP3    H136661   5.427   2.064   1.932 -0.8372 -0.3461  0.7160
 5082TIP3    H236662   5.336   2.069   1.812  1.0502  0.9750 -0.7176
 5083TIP3   OH236663   3.914   5.763   1.391  0.0135 -0.0762  0.2666
 5083TIP3    H136664   3.926   5.820   1.467 -1.3988 -0.1056  0.5347
 5083TIP3    H236665   3.907   5.675   1.428  2.6373 -0.5792 -0.1749
 5084TIP3   OH236666   1.819   3.708   0.252 -0.3412 -0.1167  0.1928
 5084TIP3    H136667   1.839   3.654   0.175  1.0098  0.9427 -0.2459
 5084TIP3    H236668   1.741   3.668   0.290  0.0099 -1.7417 -0.6983
 5085TIP3   OH236669   2.805   1.492   3.026 -0.2997  0.0795  0.4250
 5085TIP3    H136670   2.889   1.457   2.997 -0.7423 -0.4310 -0.2818
 5085TIP3    H236671   2.748   1.416   3.030 -1.0393  0.5828 -0.2438
 5086TIP3   OH236672   1.851   0.391  13.391 -0.1675  0.7751 -0.2365
 5086TIP3    H136673   1.786   0.425  13.329  0.5663  1.8014 -0.4536
 5086TIP3    H236674   1.932   0.386  13.341  0.9772  3.6317  1.1025
 5087TIP3   OH236675   3.613   1.367   0.272 -0.3069  0.5108 -0.1091
 5087TIP3    H136676   3.628   1.279   0.306 -0.0984  0.5260 -0.1577
 5087TIP3    H236677   3.549   1.356   0.202 -1.3488  0.5791  0.8001
 5088TIP3   OH236678   3.173   0.404  13.368  0.1676  0.4196 -0.3573
 5088TIP3    H136679   3.231   0.433  13.438 -0.8875  0.2734  0.6089
 5088TIP3    H236680   3.223   0.420  13.287  0.6360  2.4667  0.2837
 5089TIP3   OH236681   0.884   4.994   4.998  0.4662 -0.5616  0.1761
 5089TIP3    H136682   0.951   4.955   5.054  0.3411 -1.7280 -0.4650
 5089TIP3    H236683   0.932   5.063   4.950  0.9628 -0.6941  0.4697
 5090TIP3   OH236684   4.487   3.721  15.276  0.5057 -0.4757  0.2581
 5090TIP3    H136685   4.399   3.758  15.282  0.5177 -0.6324  1.7405
 5090TIP3    H236686   4.479   3.633  15.313  1.0502 -0.9521 -0.7144
 5091TIP3   OH236687   5.223   3.148  16.497  0.3755 -0.3785 -0.1996
 5091TIP3    H136688   5.187   3.198  16.423 -2.0373 -1.5184  0.1309
 5091TIP3    H236689   5.174   3.178  16.573  1.2241 -0.8838  0.5741
 5092TIP3   OH236690   0.250   5.848  14.267 -0.5766 -0.5693 -0.2719
 5092TIP3    H136691   0.232   5.759  14.299 -0.2042 -0.8849 -0.9071
 5092TIP3    H236692   0.164   5.888  14.258 -0.8014 -1.1431 -0.7405
 5093TIP3   OH236693   0.551   5.310  16.905 -0.2728  0.2488  0.1870
 5093TIP3    H136694   0.605   5.233  16.884 -1.3613 -0.6342  0.5258
 5093TIP3    H236695   0.466   5.274  16.930 -0.2981  1.4689  2.0990
 5094TIP3   OH236696   1.584   4.772  15.464  0.3765  0.4888  0.1612
 5094TIP3    H136697   1.514   4.752  15.526 -1.7441 -1.2452 -2.5260
 5094TIP3    H236698   1.653   4.708  15.484 -0.6116 -0.5860  0.2644
 5095TIP3   OH236699   4.490   2.631   5.552 -0.1616  0.3087 -0.2311
 5095TIP3    H136700   4.449   2.690   5.489  0.1353  0.8204  0.0425
 5095TIP3    H236701   4.427   2.560   5.563 -0.2247  0.2247 -1.0760
 5096TIP3   OH236702   2.524   2.339  16.984  0.2322 -0.2991 -0.0891
 5096TIP3    H136703   2.447   2.310  16.936  0.3744  1.6110 -1.6105
 5096TIP3    H236704   2.598   2.295  16.942  0.2818  0.7687 -1.1697
 5097TIP3   OH236705   3.835   1.978  13.706 -0.5743  0.6009  0.1267
 5097TIP3    H136706   3.787   1.926  13.770  0.7499  0.2727  0.9040
 5097TIP3    H236707   3.827   2.068  13.737 -1.8285  0.7384 -0.5326
 5098TIP3   OH236708   6.224   5.425  14.318 -0.1905 -0.0211  0.3352
 5098TIP3    H136709   6.201   5.398  14.407 -0.6133  0.3491  0.3406
 5098TIP3    H236710   6.168   5.372  14.261  1.7421 -2.0058  0.1660
 5099TIP3   OH236711   2.783   3.820   3.463 -0.1762 -0.0028  0.0945
 5099TIP3    H136712   2.779   3.730   3.495 -0.2177  0.2871  0.9319
 5099TIP3    H236713   2.692   3.847   3.452 -0.1838  0.1964  0.6135
 5100TIP3   OH236714   3.150   4.859   6.045 -0.1044  0.5875  0.4717
 5100TIP3    H136715   3.246   4.856   6.048 -0.1186  0.4176  0.7572
 5100TIP3    H236716   3.126   4.784   5.991 -0.1045  0.2262  0.9665
 5101TIP3   OH236717   6.447   2.566   0.875 -0.5030  0.0060 -0.2100
 5101TIP3    H136718   6.371   2.537   0.924 -0.5336 -0.6272 -0.6181
 5101TIP3    H236719   6.515   2.578   0.940 -0.8612  0.2783  0.1194
 5102TIP3   OH236720   6.258   1.385  15.435  0.4085 -0.3661 -0.4584
 5102TIP3    H136721   6.206   1.389  15.515 -0.1355  0.6482 -0.8420
 5102TIP3    H236722   6.237   1.300  15.397 -1.4350  0.2484 -0.8903
 5103TIP3   OH236723   3.481   4.791  15.880  0.3412 -0.1847  0.5341
 5103TIP3    H136724   3.573   4.815  15.892  1.1710 -2.5674 -0.4418
 5103TIP3    H236725   3.432   4.864  15.916  2.6185  1.0739  1.2550
 5104TIP3   OH236726   2.932   0.879  12.298  0.1358 -0.2164  0.3421
 5104TIP3    H136727   2.870   0.878  12.225  0.9488  0.3968 -0.3697
 5104TIP3    H236728   2.888   0.828  12.366  0.5487 -3.3134 -1.5122
 5105TIP3   OH236729   2.952   5.203  11.336  0.0328  0.3003 -0.1771
 5105TIP3    H136730   3.026   5.165  11.289 -0.9627 -1.0309 -0.7358
 5105TIP3    H236731   2.875   5.175  11.286 -0.9828 -0.1740  1.5961
 5106TIP3   OH236732   2.632   2.280  12.903  0.1598 -0.6625  0.4286
 5106TIP3    H136733   2.707   2.267  12.846  0.6815 -1.6350  1.2963
 5106TIP3    H236734   2.601   2.368  12.883  2.4163  0.3429  1.0512
 5107TIP3   OH236735   1.670   5.312   2.515  0.7876 -0.2289  0.5783
 5107TIP3    H136736   1.728   5.379   2.552  0.2303  0.3512  0.4163
 5107TIP3    H236737   1.718   5.280   2.438  0.6616  0.6452  0.1201
 5108TIP3   OH236738   5.033   3.722  14.175 -0.2452  0.0402  0.0143
 5108TIP3    H136739   5.110   3.761  14.133 -0.4316 -1.2265 -1.6145
 5108TIP3    H236740   4.964   3.787  14.162  0.3421  0.8446  0.7979
 5109TIP3   OH236741   0.131   3.351  12.203 -0.6224 -0.1694 -1.0121
 5109TIP3    H136742   0.076   3.305  12.267 -3.4193  2.5201 -1.2289
 5109TIP3    H236743   0.219   3.346  12.239 -1.6109 -1.2762  1.5061
 5110TIP3   OH236744   4.583   2.153  16.376  0.0203 -0.5821 -0.3663
 5110TIP3    H136745   4.496   2.133  16.411  0.1079 -0.5391 -0.1272
 5110TIP3    H236746   4.625   2.207  16.443 -0.4533  0.9803 -1.2702
 5111TIP3   OH236747   3.446   6.624  11.529 -0.4217  0.3030 -0.4740
 5111TIP3    H136748   3.421   6.639  11.621 -0.0061 -1.1116 -0.1104
 5111TIP3    H236749   3.506   6.696  11.509 -1.5064  1.3598 -0.0552
 5112TIP3   OH236750   6.107   6.715  11.145 -1.1424  0.0576  0.0864
 5112TIP3    H136751   6.199   6.721  11.117 -0.2669 -1.6301  2.2735
 5112TIP3    H236752   6.060   6.689  11.066  0.1405  1.5047 -1.2309
 5113TIP3   OH236753   6.450   5.652   0.094  0.0500  0.0745 -0.1099
 5113TIP3    H136754   6.491   5.597   0.160 -1.4097  0.5702  1.2911
 5113TIP3    H236755   6.366   5.609   0.076 -0.8095  1.4332  0.5071
 5114TIP3   OH236756   5.365   5.634  14.945  0.3092 -0.4768 -0.3161
 5114TIP3    H136757   5.288   5.676  14.906  0.2837 -1.0475 -0.8920
 5114TIP3    H236758   5.437   5.694  14.925  0.2780 -0.7021 -1.1492
 5115TIP3   OH236759   0.858   0.387   0.682 -0.1615  0.0767 -0.1055
 5115TIP3    H136760   0.866   0.328   0.607 -0.5441  0.4039 -0.4113
 5115TIP3    H236761   0.930   0.449   0.671  0.9583 -0.9977  0.8464
 5116TIP3   OH236762   3.638   2.687  16.196 -0.1854  0.1540 -0.1580
 5116TIP3    H136763   3.572   2.620  16.177  0.1861 -0.4863  0.7430
 5116TIP3    H236764   3.603   2.767  16.156 -0.9984 -0.4055 -0.5996
 5117TIP3   OH236765   6.009   5.877  15.786  0.0821 -0.7980 -0.2804
 5117TIP3    H136766   5.917   5.868  15.763  0.0596 -2.8252  0.4284
 5117TIP3    H236767   6.010   5.896  15.880  0.3565  2.6761 -0.8209
 5118TIP3   OH236768   1.867   3.714   4.393  0.1167 -0.1567  0.3731
 5118TIP3    H136769   1.790   3.756   4.432  1.8195  0.3598  3.5231
 5118TIP3    H236770   1.894   3.774   4.324 -1.7408  0.1241 -0.1482
 5119TIP3   OH236771   1.778   5.212  12.471 -0.0295 -0.4291  0.4553
 5119TIP3    H136772   1.750   5.169  12.390 -0.6524  1.4933 -0.4069
 5119TIP3    H236773   1.727   5.293  12.474  2.5390  1.2938  0.8771
 5120TIP3   OH236774   2.203   0.940  14.922  0.0970 -0.1435 -0.3614
 5120TIP3    H136775   2.178   1.026  14.888 -0.5915  0.0165  0.5326
 5120TIP3    H236776   2.299   0.939  14.914  0.1565  0.8844  0.0054
 5121TIP3   OH236777   3.893   2.522   3.602  0.6571 -0.0922  0.0046
 5121TIP3    H136778   3.933   2.594   3.649  0.4507  0.5948 -0.8499
 5121TIP3    H236779   3.960   2.495   3.538 -1.1114  3.0524 -3.5640
 5122TIP3   OH236780   4.617   2.874   1.639  0.6718  0.5801  0.0694
 5122TIP3    H136781   4.568   2.873   1.721 -0.0834  2.5609 -0.2855
 5122TIP3    H236782   4.625   2.967   1.617 -1.0396  0.1271 -3.1840
 5123TIP3   OH236783   0.610   3.387   5.525  0.1042  0.1724 -0.0470
 5123TIP3    H136784   0.607   3.292   5.516  2.3745  0.1884 -1.8314
 5123TIP3    H236785   0.689   3.413   5.478 -0.6502  2.9935  0.0730
 5124TIP3   OH236786   0.173   1.216   5.580  0.0161 -0.2333  0.3674
 5124TIP3    H136787   0.267   1.207   5.565 -0.1418 -0.6874 -0.4513
 5124TIP3    H236788   0.158   1.311   5.583  0.5350 -0.1626  0.7925
 5125TIP3   OH236789   0.627   6.576   3.870 -0.1209  0.2020  0.3544
 5125TIP3    H136790   0.554   6.569   3.807  0.8256 -2.3010 -0.5831
 5125TIP3    H236791   0.705   6.576   3.816  0.6805  2.3282  1.3896
 5126TIP3   OH236792   1.597   0.859  12.580 -0.2399 -0.1425 -0.1491
 5126TIP3    H136793   1.541   0.930  12.612  2.4322  1.6886  0.9066
 5126TIP3    H236794   1.642   0.827  12.658 -0.2933 -2.0345 -0.8415
 5127TIP3   OH236795   4.136   2.780   4.266  0.0060  0.3012 -0.1093
 5127TIP3    H136796   4.230   2.798   4.273  0.4316 -0.7352 -2.2075
 5127TIP3    H236797   4.130   2.717   4.194 -2.2682 -0.0620  0.3412
 5128TIP3   OH236798   4.988   6.557   4.593 -0.2353 -0.4552  0.5581
 5128TIP3    H136799   4.998   6.522   4.505  3.3116 -2.9496  1.7307
 5128TIP3    H236800   4.943   6.487   4.641 -0.2913  0.0012  1.1738
 5129TIP3   OH236801   1.671   0.769  17.029  0.6450  0.2639  0.2936
 5129TIP3    H136802   1.663   0.830  17.104 -1.4839  0.9609 -0.4014
 5129TIP3    H236803   1.597   0.709  17.040  0.8532 -0.1983 -0.7484
 5130TIP3   OH236804   5.208   4.076  10.594 -0.0766 -0.6570 -0.4840
 5130TIP3    H136805   5.132   4.065  10.651  1.7175 -0.4414  2.0930
 5130TIP3    H236806   5.193   4.160  10.551 -0.6344  0.1009  1.1115
 5131TIP3   OH236807   2.115   3.446  14.056 -0.0913  0.2044 -0.0105
 5131TIP3    H136808   2.075   3.533  14.052  0.3300  0.3964 -3.2944
 5131TIP3    H236809   2.180   3.453  14.126 -1.0049  2.0716  0.7260
 5132TIP3   OH236810   3.022   4.975  13.245 -0.1917 -0.2802  0.2260
 5132TIP3    H136811   2.981   4.980  13.331  0.4135 -0.7284  0.5518
 5132TIP3    H236812   2.968   4.914  13.195 -2.9449  2.9425 -1.1221
 5133TIP3   OH236813   6.754   6.476  12.378  0.5393 -0.2250  0.6324
 5133TIP3    H136814   6.750   6.487  12.283  0.4785  0.2886  0.6902
 5133TIP3    H236815   6.719   6.389  12.394 -0.0555 -0.0654  0.2364
 5134TIP3   OH236816   2.533   0.939   3.106 -0.3229  0.3166  0.5007
 5134TIP3    H136817   2.624   0.920   3.081 -0.5595 -1.4122  0.8120
 5134TIP3    H236818   2.485   0.859   3.082 -1.4893  0.6217  1.7329
 5135TIP3   OH236819   1.463   1.825   6.159  0.0531  0.4615 -0.7171
 5135TIP3    H136820   1.382   1.777   6.146  0.1798  0.2136 -0.6081
 5135TIP3    H236821   1.449   1.875   6.240  0.4982 -0.6387  0.0621
 5136TIP3   OH236822   5.918   2.563  17.239 -0.3392 -0.2175  0.6403
 5136TIP3    H136823   5.857   2.592  17.171 -1.2785 -0.1720  1.4971
 5136TIP3    H236824   5.888   2.475  17.262 -0.7876  0.2416  1.8677
 5137TIP3   OH236825   1.604   1.336  13.568  0.1861  0.2237 -0.3789
 5137TIP3    H136826   1.512   1.324  13.590 -0.2128  3.4583  0.1856
 5137TIP3    H236827   1.650   1.320  13.650 -0.2686  2.0501  0.2675
 5138TIP3   OH236828   4.811   6.198  13.251 -0.2831 -0.3462 -0.7474
 5138TIP3    H136829   4.806   6.175  13.344  0.8594  1.1624 -0.2900
 5138TIP3    H236830   4.853   6.122  13.210  1.3552 -0.0712  0.3540
 5139TIP3   OH236831   3.521   3.406   3.849  0.3037  0.7240 -0.6704
 5139TIP3    H136832   3.585   3.472   3.821  0.6770  0.8904  0.5176
 5139TIP3    H236833   3.565   3.323   3.835  0.8840  0.8473  0.3592
 5140TIP3   OH236834   4.666   3.764   3.771  0.4200 -0.0239 -0.0721
 5140TIP3    H136835   4.678   3.691   3.711 -1.5571 -1.0480  0.7077
 5140TIP3    H236836   4.658   3.724   3.857  0.4522  1.2128  0.5367
 5141TIP3   OH236837   4.575   5.087  12.956  0.9581  0.6782 -0.5111
 5141TIP3    H136838   4.660   5.043  12.949  1.4428  1.8023 -2.1894
 5141TIP3    H236839   4.583   5.164  12.901 -0.6641  1.6393  0.5244
 5142TIP3   OH236840   1.612   4.251   4.819 -0.3094  0.0926 -0.7161
 5142TIP3    H136841   1.606   4.289   4.906 -1.6012  1.4866 -1.3681
 5142TIP3    H236842   1.687   4.191   4.824  0.5849  1.2622  0.9203
 5143TIP3   OH236843   1.684   2.708  13.086  0.3906 -0.0817  0.9406
 5143TIP3    H136844   1.693   2.798  13.055  0.3148  0.2568  1.8643
 5143TIP3    H236845   1.771   2.685  13.118  1.0560 -1.2021 -1.4337
 5144TIP3   OH236846   4.394   3.829   4.739 -0.0050  0.0478  0.3909
 5144TIP3    H136847   4.449   3.762   4.699 -1.0269 -0.4260 -0.2572
 5144TIP3    H236848   4.452   3.904   4.751  1.0240 -0.7889  0.6663
 5145TIP3   OH236849   3.154   5.429   4.165  0.4924 -0.9585  0.2225
 5145TIP3    H136850   3.117   5.352   4.122  2.5166 -1.2566 -1.1255
 5145TIP3    H236851   3.201   5.393   4.240  0.1378 -0.8491  0.4998
 5146TIP3   OH236852   0.274   0.132   6.000  0.4762 -0.0994 -0.0366
 5146TIP3    H136853   0.228   0.062   5.954 -0.7320 -0.8660  2.1987
 5146TIP3    H236854   0.205   0.189   6.033  1.3768  1.2922 -0.4498
 5147TIP3   OH236855   6.530   0.023  14.734 -0.2458 -0.1251 -0.2504
 5147TIP3    H136856   6.464   0.006  14.802 -1.0562  2.8906 -0.1277
 5147TIP3    H236857   6.563   0.110  14.755  0.2972  0.4347 -3.0747
 5148TIP3   OH236858   4.560   3.032   0.990  0.3545 -0.1468 -0.0063
 5148TIP3    H136859   4.539   3.125   0.999  2.6838  0.4430  0.0701
 5148TIP3    H236860   4.588   3.022   0.899  0.1294 -0.7889 -0.0159
 5149TIP3   OH236861   4.226   1.842   6.041  0.4050  0.2482  0.0424
 5149TIP3    H136862   4.291   1.858   6.109  0.1379 -0.3672  0.4544
 5149TIP3    H236863   4.162   1.913   6.051 -0.1553 -0.3848  1.0887
 5150TIP3   OH236864   5.974   3.382   4.933 -0.0210 -0.0378  0.0325
 5150TIP3    H136865   6.062   3.390   4.971 -0.2326 -0.6477  0.6776
 5150TIP3    H236866   5.915   3.395   5.007 -0.4305 -2.5236  0.2146
 5151TIP3   OH236867   5.880   0.716   4.458  0.1075  0.5111 -0.0700
 5151TIP3    H136868   5.820   0.790   4.458 -0.4884  0.1075 -2.2900
 5151TIP3    H236869   5.842   0.654   4.521 -0.9379  0.9452 -0.2534
 5152TIP3   OH236870   0.859   0.750   5.273 -0.5769 -0.5698 -0.1595
 5152TIP3    H136871   0.877   0.799   5.193 -2.1973 -0.4518 -0.4900
 5152TIP3    H236872   0.764   0.737   5.273 -0.4441 -1.8615  1.0027
 5153TIP3   OH236873   5.691   3.117   5.571  0.1927 -0.4506  0.5001
 5153TIP3    H136874   5.665   3.034   5.530  0.9744  0.5625 -2.3212
 5153TIP3    H236875   5.777   3.099   5.609  1.2125 -0.5637 -1.6944
 5154TIP3   OH236876   1.888   1.409  14.385  0.2015 -0.8020 -0.0262
 5154TIP3    H136877   1.862   1.327  14.427 -1.2133 -0.4140 -0.0802
 5154TIP3    H236878   1.891   1.388  14.291 -1.2159 -0.5666 -0.1496
 5155TIP3   OH236879   2.524   5.122  15.671  0.2812 -0.2281  0.0428
 5155TIP3    H136880   2.587   5.055  15.648  0.8823  0.4429 -0.3272
 5155TIP3    H236881   2.543   5.144  15.762  1.6366  1.0422 -0.4927
 5156TIP3   OH236882   3.092   0.573   1.583 -0.3567 -0.3866 -0.6041
 5156TIP3    H136883   3.124   0.483   1.582 -2.6984 -1.3042 -0.3466
 5156TIP3    H236884   2.997   0.564   1.578 -0.5955  2.1509 -2.4287
 5157TIP3   OH236885   1.184   3.044   4.674 -0.0202  0.1571  0.1213
 5157TIP3    H136886   1.193   2.988   4.751  0.4106 -0.8358 -0.6332
 5157TIP3    H236887   1.127   3.115   4.703  0.9084  0.3149  1.6277
 5158TIP3   OH236888   5.734   2.989  15.782  0.0863  0.3873 -0.6488
 5158TIP3    H136889   5.804   2.995  15.717  0.9928 -2.8454 -0.1207
 5158TIP3    H236890   5.655   2.970  15.731  0.1623  0.9908 -1.0027
 5159TIP3   OH236891   3.563   0.718  17.262  0.6177 -0.3324 -0.1116
 5159TIP3    H136892   3.529   0.653  17.324 -0.0788 -0.1692 -0.3131
 5159TIP3    H236893   3.577   0.796  17.316  0.2528 -0.2676 -0.1085
 5160TIP3   OH236894   5.128   1.836  15.318 -0.3553  0.7584 -0.2044
 5160TIP3    H136895   5.206   1.890  15.330 -0.6704  1.0948  0.4125
 5160TIP3    H236896   5.061   1.880  15.370 -0.9283  0.4134 -0.6417
 5161TIP3   OH236897   1.558   5.798  13.965  0.2758  0.1975 -0.8975
 5161TIP3    H136898   1.571   5.704  13.977  0.4625 -0.2972 -4.1189
 5161TIP3    H236899   1.635   5.827  13.915 -0.5206  1.7553 -1.2896
 5162TIP3   OH236900   4.981   2.660  16.834  0.3028  0.1479  0.7019
 5162TIP3    H136901   5.054   2.720  16.824  0.9825 -0.4673  1.7618
 5162TIP3    H236902   4.994   2.593  16.766  0.8418 -0.0657  1.0121
 5163TIP3   OH236903   0.499   1.117   2.249 -0.6556 -0.3974 -0.1578
 5163TIP3    H136904   0.528   1.031   2.279  1.0768  1.0678  2.8683
 5163TIP3    H236905   0.574   1.154   2.204 -0.8656  0.0534 -0.1523
 5164TIP3   OH236906   0.091   1.192  14.158  0.3217  0.2688 -0.2036
 5164TIP3    H136907   0.077   1.284  14.176 -1.2279  0.4069 -1.8216
 5164TIP3    H236908   0.051   1.146  14.232  1.0464  0.8590  0.5726
 5165TIP3   OH236909   2.273   4.432   4.902 -0.0865  0.0812 -0.6695
 5165TIP3    H136910   2.260   4.446   4.809  2.1535  0.9524 -0.9228
 5165TIP3    H236911   2.228   4.505   4.945 -3.3283 -1.6650 -0.7929
 5166TIP3   OH236912   3.944   0.738  12.430  0.1876  0.4399  0.5860
 5166TIP3    H136913   3.976   0.794  12.500  1.4776 -0.1918  0.5176
 5166TIP3    H236914   3.860   0.777  12.404  0.2091  1.2821  1.7476
 5167TIP3   OH236915   2.731   3.845   6.094  0.3846 -0.1371  0.0376
 5167TIP3    H136916   2.665   3.913   6.078  0.6492  0.4917  1.4984
 5167TIP3    H236917   2.814   3.892   6.089  0.7450 -0.8513 -1.4101
 5168TIP3   OH236918   4.843   5.996  14.407 -0.3974 -0.2561 -0.2701
 5168TIP3    H136919   4.913   5.986  14.471  0.0559  0.2151 -0.6910
 5168TIP3    H236920   4.768   5.951  14.447 -0.4719  1.0411  1.1383
 5169TIP3   OH236921   0.443   4.727   2.959  0.2123 -0.2831 -0.1553
 5169TIP3    H136922   0.484   4.675   2.890  2.7113 -1.2116  1.8801
 5169TIP3    H236923   0.420   4.664   3.027 -1.3951  0.7205  0.3001
 5170TIP3   OH236924   6.644   4.194  13.666 -0.0018  0.2399  0.0231
 5170TIP3    H136925   6.726   4.147  13.682 -1.2945 -1.6458  1.4773
 5170TIP3    H236926   6.671   4.286  13.660  2.4322 -0.4776 -1.4759
 5171TIP3   OH236927   1.264   2.807   2.886 -0.2074  0.3505 -0.1093
 5171TIP3    H136928   1.207   2.881   2.909  0.8285  1.0419  0.2951
 5171TIP3    H236929   1.295   2.827   2.798 -1.7200 -0.7652 -0.9493
 5172TIP3   OH236930   0.953   5.549  13.104  0.5283  0.7500  0.4046
 5172TIP3    H136931   0.900   5.623  13.076 -0.6955 -0.0486  0.5637
 5172TIP3    H236932   1.022   5.542  13.038  0.6218  1.9653  0.3518
 5173TIP3   OH236933   5.387   1.188   3.545 -0.4545 -0.6201 -0.3023
 5173TIP3    H136934   5.464   1.167   3.597  0.0072 -2.3142 -1.5616
 5173TIP3    H236935   5.314   1.177   3.605  0.2169  0.2081  0.7033
 5174TIP3   OH236936   5.234   5.846  13.726  0.3187 -0.0077  0.5580
 5174TIP3    H136937   5.227   5.763  13.680 -0.0632  0.3225  0.0176
 5174TIP3    H236938   5.180   5.834  13.805 -1.9200  0.5965 -0.7932
 5175TIP3   OH236939   0.216   4.829   0.593 -0.1810 -0.4934 -0.2193
 5175TIP3    H136940   0.207   4.735   0.606  0.5548 -0.5021  0.2309
 5175TIP3    H236941   0.216   4.866   0.681  0.6878 -0.1784 -0.3465
 5176TIP3   OH236942   5.158   1.065   4.255  0.4493 -0.0699  0.1077
 5176TIP3    H136943   5.128   1.046   4.344 -0.4028 -1.8420 -0.5124
 5176TIP3    H236944   5.236   1.118   4.267 -1.1925  2.1726  1.8683
 5177TIP3   OH236945   0.914   0.135  11.986  0.0144 -0.5876 -0.2220
 5177TIP3    H136946   0.942   0.226  11.974 -0.4833 -0.5835 -1.5274
 5177TIP3    H236947   0.937   0.114  12.076 -0.0752  0.9171  0.1716
 5178TIP3   OH236948   0.817   0.446  13.692 -0.6458  0.0283 -0.4564
 5178TIP3    H136949   0.742   0.475  13.640 -2.4676 -2.0848  0.7711
 5178TIP3    H236950   0.864   0.386  13.634 -0.6950  0.3090 -0.7886
 5179TIP3   OH236951   1.567   4.712  14.062  0.6973  0.5748  0.1826
 5179TIP3    H136952   1.523   4.638  14.021  1.1182 -0.9332  2.2944
 5179TIP3    H236953   1.599   4.765  13.989  1.2627 -1.8397 -1.4402
 5180TIP3   OH236954   0.815   1.382  14.481  0.1367 -0.7157  0.4725
 5180TIP3    H136955   0.820   1.300  14.432  0.3304 -0.4153 -0.0235
 5180TIP3    H236956   0.905   1.400  14.508  0.0500 -0.8128  0.8349
 5181TIP3   OH236957   4.197   0.449  13.820  0.4244 -0.0109 -0.2168
 5181TIP3    H136958   4.131   0.438  13.751 -0.3585  1.1544  0.3203
 5181TIP3    H236959   4.226   0.539  13.811  0.0340  0.2760  1.2087
 5182TIP3   OH236960   0.487   4.366  17.077  0.1404 -0.2266  0.2307
 5182TIP3    H136961   0.562   4.306  17.085  0.3571  0.1271  0.9185
 5182TIP3    H236962   0.521   4.438  17.024  0.5661  0.3579  1.2779
 5183TIP3   OH236963   4.297   2.950  15.783  0.5361 -0.2914  0.0663
 5183TIP3    H136964   4.299   2.876  15.842  0.6290 -0.7992 -0.5646
 5183TIP3    H236965   4.374   2.939  15.727 -0.2564 -0.5462 -1.0071
 5184TIP3   OH236966   1.919   1.591   1.469 -0.2744  0.1821  0.3009
 5184TIP3    H136967   1.958   1.644   1.539 -0.7749  0.5626  0.3027
 5184TIP3    H236968   1.941   1.501   1.491 -1.4741  0.1740  1.6486
 5185TIP3   OH236969   4.176   2.091   0.455  0.0847 -0.2992 -0.4961
 5185TIP3    H136970   4.137   2.092   0.368  0.5215  1.1657 -0.7038
 5185TIP3    H236971   4.235   2.015   0.454 -1.1438 -1.2829 -0.8859
 5186TIP3   OH236972   0.489   0.219   6.330 -0.5807 -0.3732 -0.1836
 5186TIP3    H136973   0.436   0.201   6.408  0.8572  0.7749  1.0976
 5186TIP3    H236974   0.534   0.136   6.313 -1.2496 -0.7678 -0.0956
 5187TIP3   OH236975   4.812   4.377  17.183 -0.3994 -0.0323  0.1246
 5187TIP3    H136976   4.860   4.295  17.187 -0.4522 -0.0696  0.0127
 5187TIP3    H236977   4.808   4.408  17.273  0.1813  0.1720  0.0828
 5188TIP3   OH236978   1.572   4.118  12.714 -0.9344  0.3983 -0.4070
 5188TIP3    H136979   1.530   4.198  12.684  0.4803  1.2386 -0.2102
 5188TIP3    H236980   1.666   4.138  12.715 -0.5661 -1.1887 -0.1578
 5189TIP3   OH236981   0.227   5.940  16.408 -0.3355  0.0648  0.1017
 5189TIP3    H136982   0.318   5.941  16.376  0.2153  0.0252  1.5805
 5189TIP3    H236983   0.194   5.854  16.384  0.3530 -0.2866  0.3859
 5190TIP3   OH236984   4.863   2.759  15.470 -0.6767  0.1547  0.3245
 5190TIP3    H136985   4.817   2.820  15.527  0.7563  1.2049  0.3997
 5190TIP3    H236986   4.907   2.814  15.405  0.0392 -0.8425 -0.0673
 5191TIP3   OH236987   5.069   3.564   4.866 -0.0314  0.7549 -1.1324
 5191TIP3    H136988   5.142   3.541   4.924 -0.5836  3.5292  0.9224
 5191TIP3    H236989   5.109   3.580   4.781  1.8018  1.9900 -0.1142
 5192TIP3   OH236990   1.177   2.364  16.351  0.4477 -0.3134 -0.1639
 5192TIP3    H136991   1.192   2.349  16.258  1.0873 -0.8189  0.0133
 5192TIP3    H236992   1.265   2.372  16.389  0.1930  0.4419  0.3139
 5193TIP3   OH236993   6.753   3.044   1.000  0.3840 -0.2451  0.3243
 5193TIP3    H136994   6.814   2.971   0.993  0.7673  0.1119 -0.0786
 5193TIP3    H236995   6.726   3.062   0.910  0.8206  0.5568  0.3477
 5194TIP3   OH236996   0.773   4.584  16.880 -0.3043  0.3375 -0.4422
 5194TIP3    H136997   0.731   4.528  16.815 -0.1252 -0.6297  0.2705
 5194TIP3    H236998   0.866   4.561  16.875 -0.6247 -2.1913  2.4069
 5195TIP3   OH236999   3.030   6.101  10.773 -0.2811 -0.8142  0.4395
 5195TIP3    H137000   3.006   6.188  10.740 -1.9421 -1.5121 -0.2435
 5195TIP3    H237001   3.123   6.092  10.750 -0.4709  0.1780 -0.8401
 5196TIP3   OH237002   6.536   0.462   3.139  0.0861  0.2714 -0.6564
 5196TIP3    H137003   6.454   0.419   3.114 -0.1005 -0.7717  1.5449
 5196TIP3    H237004   6.603   0.397   3.119 -0.0023 -0.3086  0.8614
 5197TIP3   OH237005   5.918   1.318   3.856 -0.0565  0.0661 -0.6197
 5197TIP3    H137006   5.849   1.264   3.818  0.3946 -0.8830 -0.1343
 5197TIP3    H237007   5.937   1.384   3.789 -2.0581  0.9406 -0.4098
 5198TIP3   OH237008   1.730   3.594   3.144  0.3716  0.1614 -0.7953
 5198TIP3    H137009   1.751   3.501   3.138  0.8375  0.2055  0.0437
 5198TIP3    H237010   1.641   3.597   3.178  1.0098  0.0250  0.9804
 5199TIP3   OH237011   3.332   5.059   0.315  0.1098  0.1897  0.4548
 5199TIP3    H137012   3.408   5.030   0.365  0.1734  1.2132  0.9977
 5199TIP3    H237013   3.283   4.979   0.297  1.8558 -0.6427 -0.8762
 5200TIP3   OH237014   4.313   2.859  11.824  0.4255 -0.0744 -0.3628
 5200TIP3    H137015   4.297   2.948  11.855 -1.5494 -0.4586 -0.1634
 5200TIP3    H237016   4.269   2.803  11.888 -0.6369 -1.0616 -1.8871
 5201TIP3   OH237017   0.398   3.806  14.472 -0.4772 -0.6830 -0.4092
 5201TIP3    H137018   0.366   3.715  14.470 -0.4941 -0.6846 -0.0021
 5201TIP3    H237019   0.318   3.859  14.468 -0.4224 -0.6598 -2.3696
 5202TIP3   OH237020   0.425   0.828   4.278  0.0452 -0.8738  0.3379
 5202TIP3    H137021   0.510   0.807   4.239  0.5070 -0.3372  1.0601
 5202TIP3    H237022   0.363   0.814   4.206  0.8046 -0.6413 -0.3852
 5203TIP3   OH237023   4.289   2.202   5.570 -0.2214 -0.4296  0.1430
 5203TIP3    H137024   4.194   2.199   5.558 -0.1554 -0.1461 -0.4413
 5203TIP3    H237025   4.312   2.293   5.557 -0.2604  0.1708  3.3824
 5204TIP3   OH237026   5.782   1.846   3.162  0.3227  0.5827 -0.2491
 5204TIP3    H137027   5.755   1.925   3.209  1.1621  1.2801 -0.8893
 5204TIP3    H237028   5.877   1.844   3.172  0.1764 -1.5138  1.5232
 5205TIP3   OH237029   1.416   4.177   2.125 -0.0642 -0.3939 -0.0322
 5205TIP3    H137030   1.508   4.198   2.137 -0.1080 -0.5828  0.7204
 5205TIP3    H237031   1.415   4.102   2.066  0.1014  1.6157 -2.8207
 5206TIP3   OH237032   0.442   4.321  15.741  0.2525  0.2281  0.1437
 5206TIP3    H137033   0.365   4.373  15.762 -1.1086 -1.7549  0.3659
 5206TIP3    H237034   0.421   4.281  15.657  0.8466 -0.6578  0.4059
 5207TIP3   OH237035   4.215   0.563  16.346 -0.0114 -0.0542 -0.7694
 5207TIP3    H137036   4.132   0.565  16.298 -0.3385  1.9458 -0.2556
 5207TIP3    H237037   4.203   0.494  16.411 -0.5948 -0.9741 -1.8342
 5208TIP3   OH237038   1.183   1.071   1.326  0.3834  0.2245  0.1666
 5208TIP3    H137039   1.099   1.097   1.290  0.9452  0.0816 -1.3122
 5208TIP3    H237040   1.245   1.133   1.289  0.8886  0.6249  1.6124
 5209TIP3   OH237041   2.589   5.807  16.542 -0.5058 -0.2278  0.4174
 5209TIP3    H137042   2.646   5.848  16.607  0.9579  0.5712 -1.2596
 5209TIP3    H237043   2.554   5.881  16.492 -0.8078 -0.8661 -0.3239
 5210TIP3   OH237044   3.214   2.184  13.636  0.3379 -0.1380 -0.2949
 5210TIP3    H137045   3.123   2.164  13.615  0.1589  0.7464 -0.4130
 5210TIP3    H237046   3.213   2.277  13.659  1.2837  0.0073 -0.7860
 5211TIP3   OH237047   6.069   5.903   1.684 -0.0051  0.0603 -0.2302
 5211TIP3    H137048   6.013   5.826   1.691  0.2121 -0.0505  0.3881
 5211TIP3    H237049   6.157   5.867   1.668  0.4585  0.0470  2.0047
 5212TIP3   OH237050   2.879   0.546  16.475 -0.5160  0.4129  0.0766
 5212TIP3    H137051   2.853   0.638  16.475 -0.0849  0.5378 -0.6696
 5212TIP3    H237052   2.813   0.503  16.420 -0.5665  0.3150  0.2116
 5213TIP3   OH237053   6.016   5.406  15.344  0.4485 -0.4796  0.0169
 5213TIP3    H137054   6.011   5.348  15.419 -0.4344 -2.2289 -1.3078
 5213TIP3    H237055   5.925   5.418  15.317  0.7584 -0.0381 -0.8872
 5214TIP3   OH237056   1.680   5.232  13.899  0.2349  0.2161  0.3032
 5214TIP3    H137057   1.602   5.199  13.945  0.7394  1.1790  1.9016
 5214TIP3    H237058   1.645   5.292  13.833 -0.4392 -0.4160  0.0645
 5215TIP3   OH237059   3.133   2.912  14.015 -0.2998  0.2333  0.0591
 5215TIP3    H137060   3.111   2.968  13.940 -1.8430  1.4049  1.3048
 5215TIP3    H237061   3.091   2.828  13.996 -0.5922  0.4887 -0.4309
 5216TIP3   OH237062   5.419   1.822  12.034 -0.1782 -0.1745 -0.0608
 5216TIP3    H137063   5.405   1.916  12.043 -0.5799 -0.2636  0.2949
 5216TIP3    H237064   5.419   1.790  12.124 -2.3847 -0.8434 -0.2344
 5217TIP3   OH237065   2.653   2.694  16.402 -0.3585 -0.4334  0.3792
 5217TIP3    H137066   2.746   2.691  16.427  0.0050 -2.8817 -0.8955
 5217TIP3    H237067   2.610   2.633  16.463 -1.3949  1.5144  1.6850
 5218TIP3   OH237068   3.848   3.787   1.036 -0.0226  0.2259 -0.3323
 5218TIP3    H137069   3.866   3.694   1.023 -1.1938 -0.0099 -0.3728
 5218TIP3    H237070   3.859   3.826   0.949  0.7624  0.1888 -0.2574
 5219TIP3   OH237071   2.180   6.769  11.378 -0.2436 -0.2487  0.1791
 5219TIP3    H137072   2.195   6.786  11.285 -0.3736 -0.8377  0.0456
 5219TIP3    H237073   2.184   6.855  11.419  1.6987 -0.1684 -0.0880
 5220TIP3   OH237074   3.410   0.723   1.107  0.0299 -0.2500  0.0666
 5220TIP3    H137075   3.481   0.660   1.097  1.8317  1.9104 -2.1027
 5220TIP3    H237076   3.419   0.756   1.197  2.0856  0.2429 -0.2797
 5221TIP3   OH237077   0.005   0.510   0.344 -0.6571  0.0520  0.1814
 5221TIP3    H137078   0.020   0.599   0.311 -1.0637 -0.2930 -0.9728
 5221TIP3    H237079  -0.077   0.483   0.303 -0.6804 -0.7534  0.7469
 5222TIP3   OH237080   3.213   5.643   3.445 -0.4052  0.2955 -0.3125
 5222TIP3    H137081   3.138   5.662   3.388 -0.2370  1.4140 -0.1942
 5222TIP3    H237082   3.287   5.685   3.402  0.0804 -0.4833 -0.2355
 5223TIP3   OH237083   5.746   3.602   0.092  0.7762  0.3945 -0.1032
 5223TIP3    H137084   5.732   3.647   0.175 -0.2726 -0.3906  0.1779
 5223TIP3    H237085   5.743   3.509   0.115 -0.6611  0.1498 -1.1603
 5224TIP3   OH237086   3.893   0.148  10.725  0.6090 -0.2579 -0.4390
 5224TIP3    H137087   3.844   0.088  10.781  0.2830 -0.1162 -0.5712
 5224TIP3    H237088   3.908   0.225  10.781  0.2236 -0.0881 -0.5635
 5225TIP3   OH237089   3.724   4.501  14.050  0.2250 -0.1144 -0.3220
 5225TIP3    H137090   3.806   4.465  14.084  1.1402 -0.1320 -2.4013
 5225TIP3    H237091   3.696   4.439  13.982 -1.2273  0.1780 -0.0392
 5226TIP3   OH237092   1.675   1.439  11.336  0.2890 -0.2986 -0.7545
 5226TIP3    H137093   1.733   1.499  11.288  0.3154  0.3233  0.0307
 5226TIP3    H237094   1.732   1.368  11.364  0.6362  0.1964 -0.1813
 5227TIP3   OH237095   0.004   6.421  12.906  0.1884  0.0701  0.1344
 5227TIP3    H137096  -0.045   6.443  12.827  0.0674  0.7364  0.3891
 5227TIP3    H237097  -0.054   6.361  12.954 -0.4561  0.9683  0.5060
 5228TIP3   OH237098   0.589   5.329   5.454  0.3297  0.0138  0.1196
 5228TIP3    H137099   0.631   5.280   5.525 -0.4505 -0.9509 -0.0763
 5228TIP3    H237100   0.579   5.266   5.383 -0.6509  0.4490 -0.1492
 5229TIP3   OH237101   6.766   6.118  16.477  0.3407  0.9123  0.3031
 5229TIP3    H137102   6.718   6.036  16.469  2.3565 -0.3167  0.0457
 5229TIP3    H237103   6.800   6.134  16.389  1.1644  1.2213  0.6670
 5230TIP3   OH237104   4.620   6.756   6.004  0.4611 -0.0193  0.1117
 5230TIP3    H137105   4.650   6.703   6.078  0.1706  0.9201  0.9146
 5230TIP3    H237106   4.673   6.836   6.009 -0.4197  0.5758  0.0496
 5231TIP3   OH237107   2.482   2.179  16.477  0.9210  0.2387  0.2008
 5231TIP3    H137108   2.506   2.122  16.404  1.7316  1.2127 -0.3063
 5231TIP3    H237109   2.387   2.171  16.483  0.6364  1.3948 -2.0347
 5232TIP3   OH237110   3.458   0.272  13.221 -0.0892 -0.6979 -0.1709
 5232TIP3    H137111   3.383   0.311  13.176 -0.7375 -0.3081  1.1649
 5232TIP3    H237112   3.421   0.195  13.265  0.3555 -0.6685  0.2610
 5233TIP3   OH237113   2.234   6.157  16.211  0.2248  0.5171 -0.4955
 5233TIP3    H137114   2.295   6.229  16.194 -0.5966  0.9842 -1.5649
 5233TIP3    H237115   2.224   6.157  16.306  1.8327  0.4667 -0.3029
 5234TIP3   OH237116   4.079   1.206   1.524  0.0783 -0.2991  0.3317
 5234TIP3    H137117   4.057   1.283   1.472  0.3616 -0.5389 -0.1538
 5234TIP3    H237118   4.174   1.199   1.518  0.4210  1.0439  2.8562
 5235TIP3   OH237119   2.759   6.198  11.323 -0.5184 -0.1171  0.1445
 5235TIP3    H137120   2.745   6.287  11.290  1.0555  0.4891  1.0085
 5235TIP3    H237121   2.749   6.205  11.418 -0.4799 -0.8792  0.2122
 5236TIP3   OH237122   3.191   6.657   6.000 -0.2674  0.1708  0.0487
 5236TIP3    H137123   3.239   6.679   6.080  0.0879 -0.0539 -0.0984
 5236TIP3    H237124   3.140   6.579   6.023 -1.4753  1.0809  0.5500
 5237TIP3   OH237125   0.157   0.469   3.796  0.4307  0.8507 -0.0593
 5237TIP3    H137126   0.246   0.447   3.823  0.1774  0.8034  0.7690
 5237TIP3    H237127   0.129   0.395   3.742  1.0174  1.0404 -0.6448
 5238TIP3   OH237128   5.044   5.812  11.731  0.0969  0.0325  0.1401
 5238TIP3    H137129   5.025   5.886  11.789 -0.7860  0.2620 -0.4167
 5238TIP3    H237130   5.101   5.755  11.782  0.6001  0.9806  0.6692
 5239TIP3   OH237131   5.834   4.374  11.779  0.3748 -0.2773 -0.2253
 5239TIP3    H137132   5.850   4.289  11.820  1.0623 -1.0886 -2.0666
 5239TIP3    H237133   5.741   4.372  11.756  0.0119  0.1385  1.1227
 5240TIP3   OH237134   5.613   1.252   0.779  0.0419 -0.1548 -0.5695
 5240TIP3    H137135   5.629   1.167   0.737 -0.3661 -1.7783  2.3285
 5240TIP3    H237136   5.537   1.237   0.835  2.0811  1.0090  2.7820
 5241TIP3   OH237137   1.409   2.826  15.275  0.4295  0.0063  0.5061
 5241TIP3    H137138   1.465   2.874  15.335  1.7582 -0.4621 -0.3009
 5241TIP3    H237139   1.343   2.889  15.247  1.1376  0.8695  0.7397
 5242TIP3   OH237140   1.839   1.849  11.762 -0.0834  0.0493  0.2597
 5242TIP3    H137141   1.892   1.929  11.763  1.0823 -0.7023  0.2899
 5242TIP3    H237142   1.855   1.811  11.676 -1.8303  0.5917 -0.3549
 5243TIP3   OH237143   4.862   2.854   5.770 -0.0917  0.2668  0.0340
 5243TIP3    H137144   4.854   2.899   5.686  0.5664 -0.7277 -0.5867
 5243TIP3    H237145   4.884   2.923   5.833 -0.1812  0.9586 -0.6808
 5244TIP3   OH237146   4.651   1.149  10.684 -0.1561 -0.3526 -0.3908
 5244TIP3    H137147   4.659   1.119  10.774  1.0459  0.5954 -0.1559
 5244TIP3    H237148   4.643   1.245  10.692  0.4629 -0.2168 -1.2986
 5245TIP3   OH237149   3.714   0.270   5.294 -0.2390 -0.6662  0.5837
 5245TIP3    H137150   3.704   0.358   5.330 -0.0324 -0.1010 -0.6806
 5245TIP3    H237151   3.809   0.256   5.293 -0.2968 -1.1779  1.3794
 5246TIP3   OH237152   5.591   4.249  12.962 -0.1339  0.2170  0.4375
 5246TIP3    H137153   5.608   4.311  12.891  0.4912 -0.8545 -0.3852
 5246TIP3    H237154   5.519   4.195  12.929 -0.1322 -0.0082  0.8025
 5247TIP3   OH237155   6.245   0.448  16.510 -0.1493  0.2522  0.4555
 5247TIP3    H137156   6.248   0.543  16.514  1.6718  0.2337  0.1469
 5247TIP3    H237157   6.253   0.427  16.417  2.2227 -0.2319  0.7240
 5248TIP3   OH237158   3.607   4.184  16.157  0.1509  0.2752 -0.1362
 5248TIP3    H137159   3.522   4.216  16.186  0.5214  0.6790  0.5446
 5248TIP3    H237160   3.667   4.210  16.227  0.8105 -0.1132 -0.5473
 5249TIP3   OH237161   0.464   1.542   4.952 -0.3930  0.4960 -0.1708
 5249TIP3    H137162   0.519   1.575   5.024  0.4068 -0.4714 -0.3115
 5249TIP3    H237163   0.403   1.614   4.933 -0.6271  0.7624  1.4708
 5250TIP3   OH237164   3.922   2.529   4.306  0.3341 -0.1883 -0.1612
 5250TIP3    H137165   3.916   2.456   4.369 -0.0496  0.1810  0.2410
 5250TIP3    H237166   4.004   2.513   4.259  0.0936 -1.0613 -0.3091
 5251TIP3   OH237167   6.229   1.124  12.718 -0.0516 -0.1412  0.1856
 5251TIP3    H137168   6.177   1.204  12.718 -0.2716 -0.2837  0.7060
 5251TIP3    H237169   6.317   1.152  12.692 -0.3226  0.1357 -0.4680
 5252TIP3   OH237170   5.507   3.317  17.030 -0.1385 -0.8403 -0.5230
 5252TIP3    H137171   5.430   3.282  17.076 -0.5096 -0.3477 -0.7536
 5252TIP3    H237172   5.472   3.350  16.947  0.2886 -0.4361 -0.5496
 5253TIP3   OH237173   3.741   5.970   1.246  0.5290 -0.4326  0.4903
 5253TIP3    H137174   3.753   5.958   1.152  1.2383 -1.6931  0.7257
 5253TIP3    H237175   3.812   5.920   1.286  0.2509  0.1095  1.7049
 5254TIP3   OH237176   6.209   0.106  14.306  0.5154  0.0605 -0.3502
 5254TIP3    H137177   6.289   0.103  14.254  1.0946 -1.1411  0.5450
 5254TIP3    H237178   6.239   0.124  14.395 -0.3306  0.8037 -0.2060
 5255TIP3   OH237179   2.322   6.217   0.678  0.1063 -0.0655 -0.3456
 5255TIP3    H137180   2.341   6.309   0.693 -1.3808 -0.0007  1.6237
 5255TIP3    H237181   2.236   6.217   0.634 -1.0158 -0.4670  1.7025
 5256TIP3   OH237182   2.284   2.421  15.804 -0.5256  0.3960  0.0815
 5256TIP3    H137183   2.223   2.393  15.873  0.4722 -0.5658  0.6212
 5256TIP3    H237184   2.357   2.460  15.852  0.2706 -0.4574 -0.4095
 5257TIP3   OH237185   6.353   3.365  15.479  0.3936 -0.4176  0.1078
 5257TIP3    H137186   6.412   3.303  15.437  2.0286  2.4324 -2.1846
 5257TIP3    H237187   6.408   3.412  15.542 -0.1855  0.2800  0.1076
 5258TIP3   OH237188   5.864   5.261   2.365 -0.2921 -0.0346  0.0492
 5258TIP3    H137189   5.776   5.298   2.353 -0.5800 -0.6685  0.1253
 5258TIP3    H237190   5.881   5.212   2.285  0.4623  0.9818 -0.4328
 5259TIP3   OH237191   4.158   4.453   2.448  0.3358  0.1096  0.1329
 5259TIP3    H137192   4.240   4.404   2.440 -0.8252 -1.8611 -0.3740
 5259TIP3    H237193   4.161   4.516   2.376  0.7083 -1.0650 -0.9205
 5260TIP3   OH237194   0.197   0.189   0.882 -0.2864 -0.0566 -0.0674
 5260TIP3    H137195   0.288   0.204   0.858 -0.1472 -0.6433  0.0655
 5260TIP3    H237196   0.189   0.224   0.971 -0.0553 -0.4630  0.1148
 5261TIP3   OH237197   3.063   3.529  16.906  0.3926 -0.2984 -0.5781
 5261TIP3    H137198   2.972   3.542  16.929  0.4871  1.6242 -1.1608
 5261TIP3    H237199   3.064   3.527  16.810  0.7861 -1.9669 -0.5814
 5262TIP3   OH237200   5.789   2.221   2.296  0.1640 -0.2989  0.6811
 5262TIP3    H137201   5.818   2.312   2.299 -3.2235  0.9411 -0.3426
 5262TIP3    H237202   5.784   2.195   2.388 -0.1172  1.0264  1.0651
 5263TIP3   OH237203   0.516   5.642   3.364 -0.3047 -0.4828 -0.1442
 5263TIP3    H137204   0.525   5.549   3.343  0.8676  0.1414 -2.6981
 5263TIP3    H237205   0.586   5.685   3.316 -0.7422  1.7549  1.0674
 5264TIP3   OH237206   2.831   6.467  16.898 -0.0432  0.2641 -0.0445
 5264TIP3    H137207   2.874   6.470  16.984  2.0759  0.1631 -1.0374
 5264TIP3    H237208   2.797   6.378  16.891  2.1940 -0.6386 -0.3560
 5265TIP3   OH237209   0.469   5.900  16.041 -0.6389  0.2203 -0.5247
 5265TIP3    H137210   0.387   5.859  16.012 -0.9427 -0.6866  1.4464
 5265TIP3    H237211   0.442   5.959  16.111  0.3511  0.2154 -0.1330
 5266TIP3   OH237212   5.755   6.425   6.064  0.1440 -0.3371 -0.4662
 5266TIP3    H137213   5.735   6.513   6.033 -1.9961 -0.6520 -0.1567
 5266TIP3    H237214   5.810   6.387   5.996  2.2661  1.6290  0.0147
 5267TIP3   OH237215   6.642   4.919   4.575  0.1262 -0.4211  0.2408
 5267TIP3    H137216   6.720   4.974   4.572 -0.3839  0.2564 -0.8426
 5267TIP3    H237217   6.596   4.947   4.654  0.8462 -0.6682  0.7621
 5268TIP3   OH237218   3.519   2.127  14.859 -0.0988  0.1581  0.5351
 5268TIP3    H137219   3.514   2.128  14.763 -1.1032  2.4354  0.5607
 5268TIP3    H237220   3.499   2.217  14.885  0.2897 -0.3887  2.8913
 5269TIP3   OH237221   2.918   2.235  15.526  0.0674 -0.1837 -0.0990
 5269TIP3    H137222   2.977   2.159  15.529  0.1209 -0.1973 -1.3019
 5269TIP3    H237223   2.833   2.200  15.553  0.3574 -0.3937  0.5797
 5270TIP3   OH237224   4.126   5.235  15.250 -0.1069  0.5125  0.8915
 5270TIP3    H137225   4.051   5.265  15.300  0.3813  0.1685  1.8625
 5270TIP3    H237226   4.109   5.264  15.160 -2.0169 -0.6826  0.8107
 5271TIP3   OH237227   1.083   4.319  15.889  0.7392 -0.5548 -0.8829
 5271TIP3    H137228   1.115   4.318  15.979  1.1512 -1.6026 -1.0249
 5271TIP3    H237229   1.077   4.412  15.867  1.2640 -0.2964 -0.0041
 5272TIP3   OH237230   1.263   1.481   4.682  0.0401 -0.4952  0.4725
 5272TIP3    H137231   1.266   1.442   4.769 -1.0260  0.5944  1.0296
 5272TIP3    H237232   1.224   1.567   4.696 -2.1520 -1.1037 -1.3440
 5273TIP3   OH237233   6.224   0.814   6.036  0.3225  0.3681  0.2389
 5273TIP3    H137234   6.225   0.861   5.953  1.8520  0.8090  0.4806
 5273TIP3    H237235   6.200   0.724   6.013  2.7295 -0.0355 -1.0073
 5274TIP3   OH237236   3.311   1.920   4.711  0.4119 -0.0974  0.4691
 5274TIP3    H137237   3.332   1.840   4.662  0.4575  0.2877 -0.1458
 5274TIP3    H237238   3.216   1.923   4.712  0.4099  0.3160 -0.3031
 5275TIP3   OH237239   4.563   4.266   5.654 -0.5742 -0.4013 -0.0978
 5275TIP3    H137240   4.482   4.306   5.685 -1.6358 -1.0236 -1.9762
 5275TIP3    H237241   4.611   4.244   5.735 -0.2832  3.7754  1.0846
 5276TIP3   OH237242   6.499   6.231   3.153  0.2152 -0.5685 -0.4067
 5276TIP3    H137243   6.460   6.316   3.173  0.0837 -0.5231 -0.8433
 5276TIP3    H237244   6.549   6.209   3.231  0.7118  0.1760 -0.5002
 5277TIP3   OH237245   1.905   4.247   0.922  0.1606 -0.3731  0.5307
 5277TIP3    H137246   1.857   4.257   1.005 -1.1535 -0.2544 -0.2129
 5277TIP3    H237247   1.988   4.292   0.938 -0.8524  1.4170  1.1681
 5278TIP3   OH237248   5.844   0.108   3.590  0.2741  0.4963  0.2350
 5278TIP3    H137249   5.874   0.060   3.667  0.4255  0.7720  0.3450
 5278TIP3    H237250   5.753   0.130   3.610  0.4849  1.0639  0.5731
 5279TIP3   OH237251   1.331   0.057   4.058  0.0981  0.0988 -0.0837
 5279TIP3    H137252   1.414   0.029   4.096  0.6068  0.2886 -1.0240
 5279TIP3    H237253   1.266   0.000   4.099  0.9588 -1.6280 -0.9797
 5280TIP3   OH237254   0.088   0.222  14.672 -0.1496  0.2609 -0.0633
 5280TIP3    H137255   0.127   0.180  14.748 -0.5203 -0.0482 -0.0394
 5280TIP3    H237256   0.121   0.172  14.597  1.3994  1.4757 -0.2359
 5281TIP3   OH237257   2.771   1.902   5.645 -0.0818 -0.2675 -0.3336
 5281TIP3    H137258   2.772   1.996   5.625 -0.7245 -0.3696 -0.9031
 5281TIP3    H237259   2.679   1.883   5.665 -0.0127 -0.8250 -0.5152
 5282TIP3   OH237260   1.329   0.792   0.601  0.1237 -0.2864 -0.2046
 5282TIP3    H137261   1.256   0.767   0.545 -0.8535 -0.7672  1.2051
 5282TIP3    H237262   1.318   0.887   0.614  0.2670 -0.2020 -0.7025
 5283TIP3   OH237263   0.536   0.424   1.608 -0.0146 -0.1269 -0.1454
 5283TIP3    H137264   0.604   0.389   1.552 -1.4429  0.3810 -2.3095
 5283TIP3    H237265   0.546   0.519   1.601 -1.3059 -0.0254 -1.0443
 5284TIP3   OH237266   2.999   1.536  13.874  0.8135  0.4259 -0.2554
 5284TIP3    H137267   3.048   1.582  13.942  0.0547 -0.0107  0.6154
 5284TIP3    H237268   2.913   1.578  13.875 -0.0302 -1.1981  0.8379
 5285TIP3   OH237269   1.162   5.989   3.172 -0.1321 -0.1221 -0.2470
 5285TIP3    H137270   1.095   6.058   3.173  1.9899  2.0759  0.5741
 5285TIP3    H237271   1.224   6.017   3.104  1.1856 -0.8035  0.6340
 5286TIP3   OH237272   3.725   5.895  14.215  0.1949 -0.2408  0.1223
 5286TIP3    H137273   3.780   5.821  14.243  0.8449  0.1133 -0.2228
 5286TIP3    H237274   3.785   5.955  14.172 -0.3553  0.4475  0.3060
 5287TIP3   OH237275   4.827   5.242  12.930  0.0781 -0.5799 -0.7624
 5287TIP3    H137276   4.807   5.185  13.004  0.2854 -0.2843 -0.4771
 5287TIP3    H237277   4.745   5.286  12.910 -0.1854 -1.2642 -1.2363
 5288TIP3   OH237278   4.305   3.471   2.890 -0.3345 -0.0035 -0.3109
 5288TIP3    H137279   4.326   3.479   2.983 -2.1407  0.0349  0.1289
 5288TIP3    H237280   4.245   3.396   2.885 -1.3162  0.8159 -1.2390
 5289TIP3   OH237281   0.591   5.089  16.318  0.1472 -0.7371 -0.6763
 5289TIP3    H137282   0.499   5.110  16.302  0.1398 -0.0334  0.1872
 5289TIP3    H237283   0.588   5.007  16.367 -0.2046  0.5530  1.6188
 5290TIP3   OH237284   0.587   4.082   6.037 -0.2840 -0.4118 -0.7139
 5290TIP3    H137285   0.547   4.070   6.123 -0.2115 -0.5884 -0.7048
 5290TIP3    H237286   0.606   4.176   6.032  0.1049 -0.4723 -0.3641
 5291TIP3   OH237287   6.270   2.017   4.830  0.2432  0.3585 -0.8376
 5291TIP3    H137288   6.256   1.923   4.812 -0.2504  0.0362  1.0772
 5291TIP3    H237289   6.182   2.055   4.826  0.3584  0.6148 -0.9028
 5292TIP3   OH237290   3.450   4.107   1.304 -0.3581 -0.5500  0.0678
 5292TIP3    H137291   3.507   4.032   1.322 -1.5013 -1.4898 -0.0868
 5292TIP3    H237292   3.362   4.075   1.324 -1.0322  0.2743 -1.4271
 5293TIP3   OH237293   2.745   1.511  10.640  0.4277 -0.5735 -0.1250
 5293TIP3    H137294   2.783   1.428  10.669  1.1983  0.1031  0.9143
 5293TIP3    H237295   2.821   1.564  10.615  0.1401  0.4831  1.1096
 5294TIP3   OH237296   3.404   5.216  13.246  0.5454 -0.2371 -0.3745
 5294TIP3    H137297   3.318   5.222  13.286 -0.8356 -0.7826 -3.0487
 5294TIP3    H237298   3.464   5.253  13.311 -1.7149  0.4307  1.4313
 5295TIP3   OH237299   5.843   2.804  11.581 -0.3335 -0.4106 -0.4463
 5295TIP3    H137300   5.867   2.876  11.522  0.6524 -0.1564  0.2339
 5295TIP3    H237301   5.913   2.740  11.572 -0.8177 -0.9459 -0.4781
 5296TIP3   OH237302   4.080   2.095   2.667 -0.1018 -0.0202  0.0512
 5296TIP3    H137303   4.029   2.116   2.744  1.0865  0.4121  0.7476
 5296TIP3    H237304   4.105   2.180   2.630  1.4478 -0.1685  0.6610
 5297TIP3   OH237305   5.418   6.037   2.786 -0.4404 -0.6398 -0.8728
 5297TIP3    H137306   5.402   5.986   2.866 -0.1953  1.6183  0.7256
 5297TIP3    H237307   5.345   6.098   2.782  1.4443  1.8170 -0.1612
 5298TIP3   OH237308   0.541   2.262  16.034 -0.3850 -0.4723 -0.0016
 5298TIP3    H137309   0.612   2.200  16.022 -0.4736 -0.6167  0.2116
 5298TIP3    H237310   0.473   2.233  15.973 -1.7711 -2.6006  2.3531
 5299TIP3   OH237311   4.048   2.143   0.172 -0.3688  0.5727  0.2796
 5299TIP3    H137312   3.984   2.072   0.179  0.8670 -0.5894  0.3415
 5299TIP3    H237313   4.119   2.105   0.120  0.1889  1.8853  0.0540
 5300TIP3   OH237314   2.253   0.424   2.058  0.0583  0.2463  0.2794
 5300TIP3    H137315   2.308   0.428   1.980 -2.0704  0.7906 -1.2829
 5300TIP3    H237316   2.293   0.485   2.119  0.8493  1.0805 -1.0298
 5301TIP3   OH237317   1.714   4.386  16.143 -0.1141 -1.1108  0.0378
 5301TIP3    H137318   1.675   4.447  16.080  0.4283  0.9456  1.5597
 5301TIP3    H237319   1.647   4.320  16.157 -2.9104  1.8083  1.9187
 5302TIP3   OH237320   2.804   2.158   2.242  0.0123  0.1404  0.2331
 5302TIP3    H137321   2.814   2.161   2.147  0.0691  1.1287  0.2550
 5302TIP3    H237322   2.889   2.125   2.274 -0.4182 -1.3688 -0.1001
 5303TIP3   OH237323   1.419   5.295  16.384  0.2987 -0.4685 -0.1119
 5303TIP3    H137324   1.465   5.244  16.318  1.5384  1.4347 -0.8204
 5303TIP3    H237325   1.487   5.322  16.446 -0.9014 -2.5800  2.2942
 5304TIP3   OH237326   5.195   4.113  11.741  0.4233  0.1026 -0.0058
 5304TIP3    H137327   5.143   4.033  11.747  1.0137 -0.1998  1.5516
 5304TIP3    H237328   5.148   4.168  11.679  0.1654 -1.5577 -1.3499
 5305TIP3   OH237329   0.687   3.307  14.350 -0.0703 -0.4042  0.1574
 5305TIP3    H137330   0.756   3.372  14.366 -0.5421  0.1394  0.0370
 5305TIP3    H237331   0.668   3.270  14.436 -0.2632  0.1021  0.3342
 5306TIP3   OH237332   3.353   6.324  12.896 -0.2063 -0.1126 -0.8309
 5306TIP3    H137333   3.280   6.328  12.957 -0.6164 -0.5203 -1.2888
 5306TIP3    H237334   3.431   6.329  12.951 -0.5704 -0.5992 -0.2633
 5307TIP3   OH237335   4.142   2.591   6.412  0.1613  0.3668  0.1636
 5307TIP3    H137336   4.215   2.535   6.438 -0.5838  0.2313  2.1891
 5307TIP3    H237337   4.095   2.540   6.346  0.1216 -0.9607  1.1637
 5308TIP3   OH237338   5.892   3.919  10.431  0.0830 -0.0652 -0.7095
 5308TIP3    H137339   5.953   3.846  10.434  1.6032  1.1813  0.7344
 5308TIP3    H237340   5.947   3.997  10.422 -1.3631  1.0106 -0.6526
 5309TIP3   OH237341   6.655   5.516   0.268 -0.1828  0.0113 -0.2687
 5309TIP3    H137342   6.654   5.420   0.262  1.0962 -0.0124 -0.6308
 5309TIP3    H237343   6.732   5.541   0.216 -1.2442  1.3189 -1.2647
 5310TIP3   OH237344   1.879   5.757  14.885  0.5837  0.1039  0.0448
 5310TIP3    H137345   1.847   5.814  14.955 -2.4156  0.5768 -1.5788
 5310TIP3    H237346   1.838   5.672  14.901  0.6515 -0.0616 -0.6068
 5311TIP3   OH237347   1.188   3.320   2.637  0.0424  0.3879  0.2098
 5311TIP3    H137348   1.164   3.282   2.552  2.8113 -0.3809 -0.3413
 5311TIP3    H237349   1.136   3.270   2.701 -0.4922 -0.5225 -0.8970
 5312TIP3   OH237350   3.648   5.820   6.739 -0.1745 -0.2492  0.1979
 5312TIP3    H137351   3.617   5.820   6.648  2.8939 -1.2956 -1.0184
 5312TIP3    H237352   3.730   5.869   6.736  0.4089 -0.9965  2.2224
 5313TIP3   OH237353   3.714   0.977  16.891 -0.7022 -0.1009  0.0093
 5313TIP3    H137354   3.634   1.016  16.858 -1.3488 -2.1508 -1.0211
 5313TIP3    H237355   3.685   0.907  16.950  0.3724  0.3017  1.0642
 5314TIP3   OH237356   0.779   0.071   3.861  0.4792 -0.5686 -0.0448
 5314TIP3    H137357   0.868   0.106   3.874 -0.4692  1.3055  2.1428
 5314TIP3    H237358   0.771   0.003   3.928 -0.2922  0.5502  1.0534
 5315TIP3   OH237359   2.029   6.568   1.826 -0.5240  0.3844 -0.4182
 5315TIP3    H137360   2.036   6.504   1.897  0.6496  0.2034 -0.6678
 5315TIP3    H237361   1.978   6.640   1.862 -0.9116 -0.2097  0.2318
 5316TIP3   OH237362   5.037   0.792  16.293 -0.2619 -0.4091 -0.9127
 5316TIP3    H137363   5.099   0.847  16.245 -1.6525  1.1158 -1.0348
 5316TIP3    H237364   5.019   0.719  16.233 -1.1878  0.9343 -2.3795
 5317TIP3   OH237365   6.348   1.867  11.465 -0.1753  0.0552 -0.4276
 5317TIP3    H137366   6.418   1.927  11.440 -0.9606  1.4105  0.5408
 5317TIP3    H237367   6.376   1.830  11.549  0.1578 -0.7289 -0.8679
 5318TIP3   OH237368   0.891   3.005   2.611 -0.2079  1.3605 -0.2123
 5318TIP3    H137369   0.886   3.099   2.627 -0.5850  1.6340 -1.7704
 5318TIP3    H237370   0.810   2.985   2.564  0.1490  0.3662 -0.4293
 5319TIP3   OH237371   4.666   0.683  11.832  0.4114 -0.0862 -0.0156
 5319TIP3    H137372   4.699   0.618  11.893  1.0946  0.6297  0.4054
 5319TIP3    H237373   4.724   0.677  11.756 -0.2972 -0.8180 -0.5189
 5320TIP3   OH237374   4.071   1.916  12.392 -0.0101  0.1785 -0.3539
 5320TIP3    H137375   4.078   1.856  12.318  0.5634 -0.8511  0.4940
 5320TIP3    H237376   4.124   1.875  12.461 -0.4806  1.1222  0.6053
 5321TIP3   OH237377   0.485   3.178  15.114 -0.2254 -0.5316 -0.1102
 5321TIP3    H137378   0.478   3.194  15.020  0.5508 -0.1260 -0.1163
 5321TIP3    H237379   0.409   3.222  15.152 -0.2053 -0.1512 -0.4988
 5322TIP3   OH237380   0.144   0.365   2.051 -0.1674  0.5998  0.1545
 5322TIP3    H137381   0.141   0.276   2.016  0.4112  0.5377  0.2553
 5322TIP3    H237382   0.232   0.397   2.029 -0.3919  1.1629  0.0708
 5323TIP3   OH237383   0.297   2.441   4.348  0.6032  0.2747  0.6736
 5323TIP3    H137384   0.297   2.387   4.269  1.3373 -0.2878  1.0461
 5323TIP3    H237385   0.388   2.442   4.376  0.3777  0.6300  1.4119
 5324TIP3   OH237386   5.582   1.272   0.367 -0.8726 -0.4527  0.3198
 5324TIP3    H137387   5.519   1.242   0.432  0.2835 -1.5546  0.9872
 5324TIP3    H237388   5.553   1.361   0.345 -1.5048 -0.1683  2.0824
 5325TIP3   OH237389   0.874   4.338   6.047 -0.0348 -0.0619 -0.0454
 5325TIP3    H137390   0.969   4.338   6.057 -0.0413 -0.7174  0.0966
 5325TIP3    H237391   0.840   4.317   6.134 -0.4112  2.3768  0.4647
 5326TIP3   OH237392   6.331   3.631   2.458 -0.9308 -0.1332  0.2513
 5326TIP3    H137393   6.306   3.724   2.463  0.1391  0.1460  0.7469
 5326TIP3    H237394   6.403   3.629   2.395 -0.6141 -0.5505  0.6187
 5327TIP3   OH237395   6.101   1.699   2.222 -0.1490  0.5454 -0.1931
 5327TIP3    H137396   6.089   1.791   2.248 -2.1425  0.7434 -1.5039
 5327TIP3    H237397   6.017   1.658   2.242  1.8658 -2.1750  4.2237
 5328TIP3   OH237398   6.351   0.523  14.266 -0.1461  0.1280  0.3024
 5328TIP3    H137399   6.328   0.504  14.175  0.1089 -0.1314  0.2924
 5328TIP3    H237400   6.267   0.529  14.312 -0.2384 -1.7615  0.4651
 5329TIP3   OH237401   6.747   5.255   4.918 -0.4584 -0.4338 -0.0809
 5329TIP3    H137402   6.698   5.180   4.952  0.4861 -1.3246 -0.6316
 5329TIP3    H237403   6.809   5.276   4.988 -0.6338 -0.2401  0.0187
 5330TIP3   OH237404   0.506   3.828   0.659 -0.4762  0.2437 -0.1292
 5330TIP3    H137405   0.539   3.803   0.746 -3.1776  0.1072  0.9404
 5330TIP3    H237406   0.428   3.774   0.647 -0.8063  1.0975 -2.1813
 5331TIP3   OH237407   2.631   1.509  12.527  0.5999  0.6077 -0.0007
 5331TIP3    H137408   2.566   1.552  12.471  2.3317  4.0014  0.3060
 5331TIP3    H237409   2.681   1.454  12.467 -1.4467 -0.7673 -0.5257
 5332TIP3   OH237410   1.459   2.772   0.822  0.3784 -0.0292 -0.8747
 5332TIP3    H137411   1.459   2.687   0.779  2.3047  0.6141 -2.2681
 5332TIP3    H237412   1.543   2.776   0.868  0.6281  1.3893 -1.4034
 5333TIP3   OH237413   4.183   3.222  11.236 -0.9135 -0.3331 -0.3838
 5333TIP3    H137414   4.102   3.251  11.194  0.2080  0.0087 -2.4426
 5333TIP3    H237415   4.176   3.127  11.239 -2.2589 -0.2316  1.4106
 5334TIP3   OH237416   1.439   0.727  12.248  0.0707  0.3240 -0.2063
 5334TIP3    H137417   1.365   0.781  12.220 -0.5565  0.2284  1.2000
 5334TIP3    H237418   1.516   0.775  12.216 -0.5055  1.6336  0.2825
 5335TIP3   OH237419   5.982   2.614  15.653  0.7299 -0.6322  0.1038
 5335TIP3    H137420   6.048   2.618  15.583  0.8265 -0.6884  0.1904
 5335TIP3    H237421   5.912   2.561  15.616 -0.7858  2.0904 -1.2505
 5336TIP3   OH237422   1.116   1.939   5.514 -0.3242  0.1434 -0.1339
 5336TIP3    H137423   1.170   1.866   5.544 -0.4340  0.2385  0.3033
 5336TIP3    H237424   1.072   1.971   5.593  1.1141  1.8569  0.0351
 5337TIP3   OH237425   3.504   1.084   3.624 -0.6545 -0.5538 -0.0155
 5337TIP3    H137426   3.506   1.097   3.719 -0.1985  0.2960 -0.1346
 5337TIP3    H237427   3.549   1.001   3.610  1.7932  0.6302  0.3141
 5338TIP3   OH237428   5.937   2.172   2.974 -0.0293  0.9676  0.0821
 5338TIP3    H137429   5.969   2.261   2.988  2.6284  0.0462  0.4685
 5338TIP3    H237430   5.960   2.125   3.053  2.4960 -0.9922 -1.6445
 5339TIP3   OH237431   1.293   1.338  12.498  0.3018  0.0274 -0.0987
 5339TIP3    H137432   1.239   1.417  12.500 -0.0298 -0.2095  0.7951
 5339TIP3    H237433   1.295   1.308  12.589  0.3502 -1.0367 -0.4365
 5340TIP3   OH237434   6.630   5.683   4.167 -0.3415 -0.0779  0.2057
 5340TIP3    H137435   6.546   5.656   4.203 -0.3079 -0.4021  0.0436
 5340TIP3    H237436   6.675   5.601   4.145 -0.2286  0.1056 -0.2678
 5341TIP3   OH237437   2.418   3.294   5.210  0.0717 -0.1719 -0.2175
 5341TIP3    H137438   2.413   3.378   5.255 -1.1602  0.0881 -0.7965
 5341TIP3    H237439   2.431   3.318   5.118  2.1998 -0.6827 -0.1021
 5342TIP3   OH237440   0.390   3.671   5.792 -0.0151  0.1449  0.3496
 5342TIP3    H137441   0.372   3.743   5.852 -1.7025 -1.0976  1.4265
 5342TIP3    H237442   0.379   3.592   5.845  2.2358 -0.9642 -0.6662
 5343TIP3   OH237443   6.711   2.531  12.700 -0.0466 -0.3189  0.6618
 5343TIP3    H137444   6.701   2.446  12.657  2.2139  0.6531 -2.0848
 5343TIP3    H237445   6.796   2.526  12.745 -0.7088 -0.0505  2.0173
 5344TIP3   OH237446   0.717   3.017   3.952 -0.8135  0.5043  0.0536
 5344TIP3    H137447   0.752   3.105   3.968  0.2293 -0.2908  2.8902
 5344TIP3    H237448   0.794   2.966   3.926 -1.3244  0.3129 -1.1105
 5345TIP3   OH237449   6.543   5.390   0.677 -0.3537 -0.2788 -0.0752
 5345TIP3    H137450   6.528   5.336   0.600 -1.2805 -0.9480  0.5610
 5345TIP3    H237451   6.484   5.355   0.743  1.9253 -1.1107  1.6423
 5346TIP3   OH237452   2.001   5.330  15.855 -0.2886  0.4303 -0.3686
 5346TIP3    H137453   2.046   5.282  15.924  0.3928  0.5456 -0.7213
 5346TIP3    H237454   2.030   5.288  15.774  0.1499  1.2791 -0.6657
 5347TIP3   OH237455   1.445   2.197  15.535 -0.3377 -0.1844 -0.1479
 5347TIP3    H137456   1.526   2.203  15.484 -0.9419 -0.4399 -1.1765
 5347TIP3    H237457   1.466   2.138  15.607  0.4208 -0.1780 -0.3513
 5348TIP3   OH237458   4.320   0.011  14.732  0.0146  0.2739 -0.7874
 5348TIP3    H137459   4.335   0.101  14.759 -0.2822 -0.4271  2.0383
 5348TIP3    H237460   4.230   0.009  14.700  0.0525  0.9705 -0.9446
 5349TIP3   OH237461   2.893   0.816   5.242 -0.5752  0.0411 -0.1867
 5349TIP3    H137462   2.872   0.757   5.169 -0.8458  0.4106 -0.4072
 5349TIP3    H237463   2.810   0.826   5.290 -0.2895 -0.5982  0.4697
 5350TIP3   OH237464   0.175   2.402  11.665 -0.3613 -0.0926 -0.0921
 5350TIP3    H137465   0.095   2.379  11.712  0.4511 -1.6952  0.5680
 5350TIP3    H237466   0.218   2.466  11.722 -1.9176  2.1326 -1.2451
 5351TIP3   OH237467   3.478   2.253   0.864  0.2348  0.5647 -0.2650
 5351TIP3    H137468   3.401   2.238   0.920 -0.1366 -2.2411 -1.3480
 5351TIP3    H237469   3.487   2.172   0.814  2.3331  1.8364 -2.1307
 5352TIP3   OH237470   0.245   4.023  12.200  0.0422 -0.0500  0.2016
 5352TIP3    H137471   0.305   3.953  12.174  2.0892  2.1356 -1.3849
 5352TIP3    H237472   0.299   4.084  12.251 -1.0026  1.5509 -0.5011
 5353TIP3   OH237473   4.751   2.448  14.430  0.9296 -0.5066 -0.2199
 5353TIP3    H137474   4.678   2.498  14.467  0.5371 -0.8409 -0.5410
 5353TIP3    H237475   4.818   2.514  14.412  0.0842  0.0462 -1.4523
 5354TIP3   OH237476   1.893   2.302  14.596  0.0121 -0.5370  0.1090
 5354TIP3    H137477   1.887   2.210  14.574 -1.4499 -0.4030 -0.1913
 5354TIP3    H237478   1.802   2.328  14.615  0.3708  0.8650  0.0350
 5355TIP3   OH237479   4.609   0.000   5.356  0.2040  0.0846  0.1007
 5355TIP3    H137480   4.529   0.033   5.398  0.1187 -0.3625  0.2982
 5355TIP3    H237481   4.680   0.048   5.400 -0.0183  1.5856 -1.1094
 5356TIP3   OH237482   3.337   4.197   5.851  0.4485  0.3719 -0.0954
 5356TIP3    H137483   3.364   4.262   5.915 -0.7393  1.3034 -0.4983
 5356TIP3    H237484   3.256   4.160   5.886  0.6355 -0.2478 -0.2996
 5357TIP3   OH237485   2.284   3.066  11.711  0.8676 -0.1307  0.3788
 5357TIP3    H137486   2.265   3.151  11.671 -0.4631 -0.2820  0.6468
 5357TIP3    H237487   2.211   3.051  11.771  1.5889 -1.0204  1.0608
 5358TIP3   OH237488   4.783   2.982  15.621 -0.2231 -0.1827 -0.2046
 5358TIP3    H137489   4.791   2.963  15.715  1.1018  0.0177 -0.2550
 5358TIP3    H237490   4.734   3.064  15.617 -0.9290 -0.5690  0.2682
 5359TIP3   OH237491   1.100   4.342  15.066 -0.2429  0.4073  0.2880
 5359TIP3    H137492   1.036   4.282  15.029 -0.6902 -0.2739  2.0737
 5359TIP3    H237493   1.114   4.407  14.997 -0.1391 -1.4111 -1.5146
 5360TIP3   OH237494   1.442   1.490   1.079  0.5196 -0.0913  0.1958
 5360TIP3    H137495   1.529   1.467   1.112  0.8407  2.0340  1.0152
 5360TIP3    H237496   1.458   1.550   1.007 -0.2655 -0.6066 -0.4267
 5361TIP3   OH237497   1.086   4.213  12.812 -0.2047 -0.0444 -0.5708
 5361TIP3    H137498   1.023   4.205  12.740  0.9497 -1.3629 -1.4840
 5361TIP3    H237499   1.139   4.290  12.790  0.1731 -0.4674 -1.1736
 5362TIP3   OH237500   0.200   2.402   2.347  0.4064 -0.1548 -0.4274
 5362TIP3    H137501   0.260   2.477   2.343  0.4871 -0.2631 -1.5527
 5362TIP3    H237502   0.221   2.350   2.270 -2.5821  0.9340 -2.1502
 5363TIP3   OH237503   0.710   0.156  12.537 -0.8650 -0.1470  0.0911
 5363TIP3    H137504   0.676   0.219  12.474 -0.5597 -0.1445 -0.0697
 5363TIP3    H237505   0.645   0.155  12.607 -0.3360  1.1725  0.6288
 5364TIP3   OH237506   5.652   5.430  15.732 -0.5446  0.2449  0.2036
 5364TIP3    H137507   5.724   5.462  15.786 -2.0194 -0.1692  2.5392
 5364TIP3    H237508   5.591   5.504  15.726 -0.5214  0.2092 -0.7480
 5365TIP3   OH237509   1.125   2.119  13.182  0.1577  0.4434  0.3911
 5365TIP3    H137510   1.209   2.164  13.193  0.4217  0.3757 -1.1836
 5365TIP3    H237511   1.080   2.167  13.113 -0.3485 -0.5984 -0.0294
 5366TIP3   OH237512   6.250   6.673  13.162 -0.1192  0.1852  0.1210
 5366TIP3    H137513   6.294   6.633  13.086 -1.5458  2.0052 -1.7930
 5366TIP3    H237514   6.290   6.760  13.169 -0.3629  0.2214  1.1382
 5367TIP3   OH237515   5.321   0.454  12.079 -0.3050  0.2917  0.1191
 5367TIP3    H137516   5.248   0.467  12.019 -0.8411 -2.5410  0.0253
 5367TIP3    H237517   5.283   0.465  12.166 -1.2838 -2.4587  0.1338
 5368TIP3   OH237518   1.778   1.117   4.349  0.2441  0.2049  0.3332
 5368TIP3    H137519   1.700   1.065   4.368 -0.5727  1.0638 -0.5817
 5368TIP3    H237520   1.819   1.130   4.435  0.3914 -1.7574  0.6168
 5369TIP3   OH237521   4.249   6.423   0.117  0.4492  0.0357  0.1753
 5369TIP3    H137522   4.309   6.387   0.053  1.4061  0.0135  1.0662
 5369TIP3    H237523   4.256   6.518   0.107  1.0619  0.0450  0.6572
 5370TIP3   OH237524   0.016   0.243  15.186 -0.2100  0.5292 -0.5879
 5370TIP3    H137525   0.098   0.290  15.200  0.5201 -0.8406 -0.0579
 5370TIP3    H237526   0.039   0.168  15.132 -1.2475  0.4788 -0.9956
 5371TIP3   OH237527   6.225   3.885  12.096  0.2522  0.2738  0.0740
 5371TIP3    H137528   6.267   3.799  12.092  0.5030  0.3763  0.4228
 5371TIP3    H237529   6.193   3.901  12.007  1.0150  0.2259 -0.2097
 5372TIP3   OH237530   4.484   1.191  15.214 -0.5286  0.2988 -1.0926
 5372TIP3    H137531   4.449   1.195  15.125 -0.1105 -2.5321 -1.4563
 5372TIP3    H237532   4.407   1.205  15.270 -2.4062 -4.7773 -1.8742
 5373TIP3   OH237533   1.240   3.971   4.261 -0.1573  0.3316  0.2995
 5373TIP3    H137534   1.174   3.909   4.231  1.3215 -1.3778  0.4273
 5373TIP3    H237535   1.289   3.995   4.182 -1.1623  1.9481  0.1270
 5374TIP3   OH237536   3.376   0.125  17.119  0.0596 -0.8859  0.0646
 5374TIP3    H137537   3.447   0.136  17.182 -0.4931 -1.0755  0.7218
 5374TIP3    H237538   3.303   0.090  17.169 -1.2187  1.2900 -0.1339
 5375TIP3   OH237539   3.274   0.497  12.197 -0.4660 -0.0392  0.3735
 5375TIP3    H137540   3.293   0.575  12.145  1.1657  0.2524  1.3171
 5375TIP3    H237541   3.188   0.467  12.167  0.2292  0.3230 -2.1726
 5376TIP3   OH237542   4.996   2.234  15.542 -0.7110  0.3928  0.5560
 5376TIP3    H137543   4.944   2.196  15.612 -0.8349  0.6190  0.5865
 5376TIP3    H237544   4.956   2.320  15.526 -0.1452  0.7096  0.8076
 5377TIP3   OH237545   1.162   1.134   3.243 -0.0026  0.2588  0.2293
 5377TIP3    H137546   1.129   1.044   3.233  0.6927  0.0356 -0.1598
 5377TIP3    H237547   1.193   1.157   3.155 -1.2712  1.3364  0.0407
 5378TIP3   OH237548   4.606   1.326  11.468 -0.4096  0.2174  0.0754
 5378TIP3    H137549   4.573   1.271  11.396 -0.7194  0.0447  0.3494
 5378TIP3    H237550   4.527   1.356  11.513 -0.1992 -0.7702  1.1614
 5379TIP3   OH237551   5.440   2.696  14.060  0.1103 -0.2032  0.5843
 5379TIP3    H137552   5.473   2.772  14.012 -0.5885  0.5006  1.1949
 5379TIP3    H237553   5.511   2.674  14.120 -0.1288  0.6934  1.2114
 5380TIP3   OH237554   6.415   2.807   3.958 -0.3527 -0.2898  0.4658
 5380TIP3    H137555   6.481   2.795   3.890 -0.8403 -1.0851  0.1246
 5380TIP3    H237556   6.464   2.799   4.040  0.1954  0.4400  0.2231
 5381TIP3   OH237557   2.972   5.752  12.860  0.5033 -0.1645 -0.2509
 5381TIP3    H137558   2.928   5.835  12.844 -0.4922 -0.5707  0.2705
 5381TIP3    H237559   2.935   5.693  12.794  0.2362 -0.5182  0.2125
 5382TIP3   OH237560   1.693   0.683   0.727  0.5078  0.2613 -0.7218
 5382TIP3    H137561   1.689   0.668   0.822 -1.1275 -0.7183 -0.9129
 5382TIP3    H237562   1.706   0.777   0.719  0.4374  0.3991  0.4866
 5383TIP3   OH237563   0.819   0.252  15.319 -0.1760  0.1910 -0.3889
 5383TIP3    H137564   0.878   0.311  15.272 -0.5680 -1.3285 -2.9909
 5383TIP3    H237565   0.872   0.174  15.336 -0.5696  0.0295  0.1208
 5384TIP3   OH237566   2.184   0.133   2.731 -0.3201  0.4460 -0.6848
 5384TIP3    H137567   2.173   0.126   2.826 -0.4933 -0.0311 -0.7382
 5384TIP3    H237568   2.166   0.045   2.698  0.8550  0.3204 -1.0470
 5385TIP3   OH237569   0.526   6.640  10.703  0.6560 -0.1459  0.2236
 5385TIP3    H137570   0.562   6.661  10.617  2.0484  1.7499  1.1920
 5385TIP3    H237571   0.444   6.690  10.708  1.1857  0.7262  0.4238
 5386TIP3   OH237572   4.036   2.199   0.933  0.1022  0.3811  0.4220
 5386TIP3    H137573   3.971   2.173   0.868  0.9416 -0.7717 -0.0080
 5386TIP3    H237574   4.097   2.125   0.936  1.2624  1.3192  0.9671
 5387TIP3   OH237575   3.361   5.379  16.683 -0.1944  0.5892 -0.3790
 5387TIP3    H137576   3.281   5.382  16.630  0.0268  1.0136 -0.6923
 5387TIP3    H237577   3.335   5.419  16.766 -0.6372 -0.3949 -0.0222
 5388TIP3   OH237578   0.854   4.583   0.992  0.2711  0.0429  0.5984
 5388TIP3    H137579   0.903   4.664   1.003  0.7492 -0.2889  0.9163
 5388TIP3    H237580   0.768   4.611   0.960  0.5615  0.6436  0.3467
 5389TIP3   OH237581   5.252   3.752   4.415  0.5663 -0.0091 -0.3197
 5389TIP3    H137582   5.227   3.818   4.351 -1.1511 -1.1477 -0.9048
 5389TIP3    H237583   5.187   3.760   4.485  0.1125 -1.2323 -0.5566
 5390TIP3   OH237584   3.470   3.769   5.774  0.3988  0.0004 -0.4403
 5390TIP3    H137585   3.460   3.753   5.680  1.2592 -2.2229 -0.2000
 5390TIP3    H237586   3.542   3.712   5.801 -0.7833 -0.5178  1.8518
 5391TIP3   OH237587   4.849   3.614   3.550 -0.4787 -0.0098 -0.4165
 5391TIP3    H137588   4.905   3.564   3.610  1.4736  1.4397 -0.9377
 5391TIP3    H237589   4.870   3.580   3.463 -0.2091  0.7342 -0.6442
 5392TIP3   OH237590   1.633   4.815   5.509 -0.1926  0.2638  0.0746
 5392TIP3    H137591   1.571   4.888   5.509 -0.8457 -0.2621 -0.6423
 5392TIP3    H237592   1.719   4.856   5.503 -0.5125  0.9877  0.2917
 5393TIP3   OH237593   6.429   6.478  14.590  0.2443 -0.7199 -0.6567
 5393TIP3    H137594   6.479   6.542  14.540 -0.3834 -0.3480 -0.8217
 5393TIP3    H237595   6.351   6.526  14.618 -0.0224 -1.2930 -0.4144
 5394TIP3   OH237596   1.296   1.706  11.459  0.0677  0.3222 -0.0604
 5394TIP3    H137597   1.361   1.776  11.455  0.8268 -0.3678 -0.0733
 5394TIP3    H237598   1.326   1.649  11.531 -1.3877  0.8345  1.0048
 5395TIP3   OH237599   2.637   6.134  14.150 -0.2552  0.2469  0.7765
 5395TIP3    H137600   2.622   6.201  14.083 -0.2202 -1.4607 -1.0332
 5395TIP3    H237601   2.609   6.175  14.232 -3.1608  1.4347 -0.6704
 5396TIP3   OH237602   1.635   0.467  15.895  0.0305 -0.1290  0.3815
 5396TIP3    H137603   1.540   0.481  15.896  0.2593  1.6787  0.6732
 5396TIP3    H237604   1.662   0.481  15.986  0.5988 -0.5854  0.2897
 5397TIP3   OH237605   1.968   3.498  10.579  0.1542  0.0638  0.0882
 5397TIP3    H137606   1.873   3.492  10.572  0.0167  1.0375  0.7486
 5397TIP3    H237607   1.998   3.408  10.583 -0.7767 -0.2533  0.1703
 5398TIP3   OH237608   3.663   1.458   5.566  0.0067 -0.3104  0.9265
 5398TIP3    H137609   3.570   1.443   5.579 -0.4393  0.3571 -1.1486
 5398TIP3    H237610   3.685   1.529   5.628 -0.1604 -2.2628  3.3869
 5399TIP3   OH237611   3.555   1.630  12.633  0.2294 -0.6118 -0.1365
 5399TIP3    H137612   3.473   1.651  12.677 -0.2755 -0.4759 -1.1285
 5399TIP3    H237613   3.622   1.638  12.702 -0.6070 -0.9801  0.7404
 5400TIP3   OH237614   4.835   6.434  16.887 -0.0834  0.4719  0.7328
 5400TIP3    H137615   4.865   6.493  16.819 -0.6019  2.1507  1.8928
 5400TIP3    H237616   4.898   6.362  16.887  0.6527  1.0923 -0.6276
 5401TIP3   OH237617   0.391   3.556   1.173  0.4612 -0.4156  0.1483
 5401TIP3    H137618   0.401   3.564   1.078  0.9826 -0.6196  0.1816
 5401TIP3    H237619   0.478   3.577   1.208 -0.0369  0.9120  0.6626
 5402TIP3   OH237620   0.113   4.377   4.341 -0.8313  0.2399 -0.7831
 5402TIP3    H137621   0.147   4.379   4.430  1.0071  0.3112 -1.4380
 5402TIP3    H237622   0.018   4.388   4.351 -0.6800  0.1413  1.1476
 5403TIP3   OH237623   3.743   6.688  12.404 -0.4180  0.2465  0.5207
 5403TIP3    H137624   3.781   6.773  12.379  0.6077  0.8618  3.7951
 5403TIP3    H237625   3.668   6.711  12.458  0.0567 -0.9196  1.7084
 5404TIP3   OH237626   4.495   0.570  16.425  0.0867  0.6328 -0.3229
 5404TIP3    H137627   4.414   0.548  16.380  0.1259 -0.5523  0.1566
 5404TIP3    H237628   4.502   0.505  16.496 -0.4477  2.9818  2.0310
 5405TIP3   OH237629   3.855   5.241   2.905 -0.0506 -0.3380 -0.4326
 5405TIP3    H137630   3.831   5.303   2.835 -0.3066  0.2553  0.1687
 5405TIP3    H237631   3.813   5.276   2.983  0.2743 -0.9728  0.0334
 5406TIP3   OH237632   2.327   4.874   0.619 -0.0754  0.1581 -0.0073
 5406TIP3    H137633   2.332   4.872   0.524  0.6302  0.2300  0.0215
 5406TIP3    H237634   2.412   4.909   0.647  0.1289 -0.8649  0.6913
 5407TIP3   OH237635   0.778   0.025   4.515  0.3497 -0.3573  0.4932
 5407TIP3    H137636   0.857  -0.021   4.543  0.4103 -0.3915  0.2691
 5407TIP3    H237637   0.810   0.097   4.461  0.2056 -0.6398  0.0254
 5408TIP3   OH237638   1.634   1.262  17.155 -0.1410 -0.1708 -0.2034
 5408TIP3    H137639   1.544   1.266  17.187 -0.9432 -1.3007 -2.1369
 5408TIP3    H237640   1.688   1.286  17.231 -2.0229  0.0627  1.1287
 5409TIP3   OH237641   6.393   6.170   5.326  0.1214 -0.1038  0.5139
 5409TIP3    H137642   6.326   6.161   5.259 -0.3512  0.3291  0.9177
 5409TIP3    H237643   6.476   6.169   5.278 -0.1860 -0.3405 -0.0150
 5410TIP3   OH237644   3.322   2.538  11.917 -0.1204 -0.0096  0.6326
 5410TIP3    H137645   3.307   2.455  11.871 -1.7162  0.1047  0.8799
 5410TIP3    H237646   3.237   2.582  11.915  0.7938  1.8430  0.1041
 5411TIP3   OH237647   0.056   2.042  12.298 -0.3817  0.1016 -0.2123
 5411TIP3    H137648   0.023   2.124  12.335  2.3749  1.8733 -1.3566
 5411TIP3    H237649   0.096   1.997  12.372 -1.8395 -0.2421  0.4081
 5412TIP3   OH237650   1.524   1.819   0.106  0.3809  0.3533  0.2002
 5412TIP3    H137651   1.476   1.737   0.115 -0.0564  0.5539 -0.2580
 5412TIP3    H237652   1.550   1.822   0.014  2.8308 -0.6011  0.7916
 5413TIP3   OH237653   0.276   1.121  17.277 -0.7394  0.0519 -0.4631
 5413TIP3    H137654   0.216   1.051  17.304 -0.5606  0.5955  1.4738
 5413TIP3    H237655   0.341   1.077  17.222 -1.6207 -0.9671 -0.7169
 5414TIP3   OH237656   2.433   2.382   4.089 -0.2973  0.7102  0.1516
 5414TIP3    H137657   2.525   2.400   4.074 -0.1915  1.6032  1.6314
 5414TIP3    H237658   2.404   2.335   4.011  1.3556  0.5692 -0.4091
 5415TIP3   OH237659   4.632   0.268  11.838  0.6850 -0.5819 -0.1383
 5415TIP3    H137660   4.695   0.195  11.845  0.1247 -1.0448  0.1406
 5415TIP3    H237661   4.561   0.233  11.784 -0.1751 -0.6601  1.0174
 5416TIP3   OH237662   0.150   6.361   7.039 -0.2604  0.4262 -0.0378
 5416TIP3    H137663   0.178   6.393   7.125 -1.4598  0.7840  0.2296
 5416TIP3    H237664   0.057   6.384   7.033 -0.5425 -0.8206 -0.8616
 5417TIP3   OH237665   2.259   5.288   1.556 -0.3941  0.1047 -0.0081
 5417TIP3    H137666   2.290   5.198   1.565 -3.5189 -1.1080 -0.1322
 5417TIP3    H237667   2.228   5.311   1.644 -1.4775  0.2841 -0.4327
 5418TIP3   OH237668   4.758   6.194  12.201  0.7881  0.3022  0.0305
 5418TIP3    H137669   4.849   6.194  12.228  0.3328 -1.7270  1.8979
 5418TIP3    H237670   4.750   6.118  12.144  0.0719 -0.2322  0.8103
 5419TIP3   OH237671   0.396   6.120   3.566 -0.9092 -0.2235 -0.2646
 5419TIP3    H137672   0.479   6.142   3.608 -1.0809  0.7769 -0.4360
 5419TIP3    H237673   0.405   6.027   3.544 -0.8035 -0.7930  1.9429
 5420TIP3   OH237674   1.137   6.198   6.218 -0.4160 -0.0539 -0.3293
 5420TIP3    H137675   1.084   6.201   6.297  1.2005  0.6247  0.7896
 5420TIP3    H237676   1.158   6.105   6.207  0.1875 -0.0487  0.6523
 5421TIP3   OH237677   1.731   5.214   4.295  0.4475 -0.1939 -0.0367
 5421TIP3    H137678   1.681   5.148   4.247 -2.4258  0.3781  1.9695
 5421TIP3    H237679   1.754   5.279   4.228  1.1541 -1.8972 -1.5598
 5422TIP3   OH237680   1.751   6.443  11.367  0.2494 -0.4695  0.4709
 5422TIP3    H137681   1.797   6.512  11.415 -0.4384  0.3717 -0.0439
 5422TIP3    H237682   1.664   6.440  11.406 -0.6093  0.7933 -1.1658
 5423TIP3   OH237683   5.160   2.414   2.548  0.1808  0.5493 -0.3629
 5423TIP3    H137684   5.210   2.338   2.518  1.5965 -0.0213  3.0696
 5423TIP3    H237685   5.226   2.479   2.572 -0.7713  0.8897  1.5493
 5424TIP3   OH237686   3.556   4.430   4.248  0.2303 -0.4468 -0.4376
 5424TIP3    H137687   3.538   4.503   4.190  2.0867  1.2775  0.9987
 5424TIP3    H237688   3.616   4.374   4.198  0.0759 -0.1316 -0.9802
 5425TIP3   OH237689   2.123   5.405  13.263  0.5779 -0.0372 -0.2858
 5425TIP3    H137690   2.182   5.358  13.322  0.9269 -0.4327 -0.9299
 5425TIP3    H237691   2.063   5.452  13.321 -0.2577 -1.8478  0.3897
 5426TIP3   OH237692   1.367   0.760   4.254  0.3187 -0.0644 -0.6089
 5426TIP3    H137693   1.376   0.759   4.350 -0.0079  2.6184 -0.4741
 5426TIP3    H237694   1.272   0.758   4.239  0.2849  1.5636 -0.7532
 5427TIP3   OH237695   6.632   6.291   3.788 -0.8150  0.0071  0.3594
 5427TIP3    H137696   6.603   6.208   3.753 -0.0565 -0.3984  0.6631
 5427TIP3    H237697   6.697   6.268   3.855 -0.8021  0.8267  0.6497
 5428TIP3   OH237698   4.744   2.606   5.429  0.4245 -0.2773 -0.3514
 5428TIP3    H137699   4.662   2.621   5.476  0.0933 -2.2080 -0.2523
 5428TIP3    H237700   4.812   2.633   5.490 -0.0061 -2.4678  1.2242
 5429TIP3   OH237701   3.728   6.646   6.509 -0.4120 -0.2935  0.0822
 5429TIP3    H137702   3.787   6.588   6.461 -0.3764 -0.7168  0.6370
 5429TIP3    H237703   3.665   6.587   6.551  0.1389 -0.0023  1.3609
 5430TIP3   OH237704   2.643   0.472  16.912 -0.2045 -0.0924 -0.2393
 5430TIP3    H137705   2.697   0.393  16.918  1.4874  1.0740  0.6963
 5430TIP3    H237706   2.562   0.450  16.958 -0.6917 -1.9630 -1.8625
 5431TIP3   OH237707   6.467   6.306  16.912  0.3998 -0.7139 -0.1312
 5431TIP3    H137708   6.502   6.302  16.823 -0.9382  1.7285 -0.8355
 5431TIP3    H237709   6.544   6.297  16.968  1.3836 -1.3102 -1.5185
 5432TIP3   OH237710   1.056   0.655  14.555 -0.4042 -0.0080 -0.2262
 5432TIP3    H137711   0.967   0.655  14.592 -0.3865  2.9261  0.0215
 5432TIP3    H237712   1.101   0.725  14.602  1.5678 -0.3438 -1.5220
 5433TIP3   OH237713   5.227   4.247   0.844  0.1022 -0.0105  0.2541
 5433TIP3    H137714   5.237   4.306   0.918  1.0537 -1.1648  1.0794
 5433TIP3    H237715   5.142   4.269   0.807  0.5918  2.1463  0.2604
 5434TIP3   OH237716   4.514   5.470  14.737  0.2598 -0.3709  0.2316
 5434TIP3    H137717   4.517   5.384  14.695  0.5415 -0.9540  1.4076
 5434TIP3    H237718   4.422   5.482  14.759 -0.2322  0.7516 -2.1074
 5435TIP3   OH237719   1.633   5.769   2.281  0.3984  0.5042 -0.3168
 5435TIP3    H137720   1.687   5.848   2.281 -0.7431  1.3592  1.7268
 5435TIP3    H237721   1.546   5.799   2.310 -0.1375 -1.4504  0.2559
 5436TIP3   OH237722   4.546   5.304   3.004  0.0805  0.2709  0.0704
 5436TIP3    H137723   4.544   5.222   3.053  1.1367 -0.0704 -0.4356
 5436TIP3    H237724   4.632   5.306   2.963 -0.7630  0.5428 -1.7881
 5437TIP3   OH237725   6.340   5.084  12.402 -0.2556 -0.1552  0.4653
 5437TIP3    H137726   6.291   5.158  12.437 -0.3411 -0.9306  2.0722
 5437TIP3    H237727   6.274   5.031  12.357 -0.6951 -0.5428  1.5310
 5438TIP3   OH237728   2.858   0.881   4.754 -0.2121  0.7456 -0.3743
 5438TIP3    H137729   2.889   0.820   4.687 -1.4437  0.5771 -0.8059
 5438TIP3    H237730   2.921   0.954   4.751  1.5055 -0.6479  0.4214
 5439TIP3   OH237731   4.798   3.390   1.838  0.5360 -0.2208  0.6240
 5439TIP3    H137732   4.791   3.477   1.797 -0.0707 -0.7191 -0.3582
 5439TIP3    H237733   4.884   3.358   1.813  0.0778 -0.6227 -0.5027
 5440TIP3   OH237734   5.100   6.532   5.249  0.4196  0.0546  0.1885
 5440TIP3    H137735   5.140   6.601   5.196  0.1834 -0.4775 -0.7077
 5440TIP3    H237736   5.053   6.578   5.318 -0.5660  0.8587 -0.9784
 5441TIP3   OH237737   6.205   3.696  16.585 -0.0415  0.3824  0.1056
 5441TIP3    H137738   6.206   3.621  16.526  2.6043  0.0573  0.4407
 5441TIP3    H237739   6.239   3.663  16.668 -2.1852  1.1975  1.3928
 5442TIP3   OH237740   6.435   5.825  15.273  0.1641 -0.5064  0.4169
 5442TIP3    H137741   6.389   5.754  15.229 -0.3969  0.1994 -0.1592
 5442TIP3    H237742   6.469   5.785  15.353  1.1439 -1.8067 -0.5952
 5443TIP3   OH237743   3.287   2.841  14.926  0.0376 -0.2751  0.2344
 5443TIP3    H137744   3.243   2.865  14.844 -1.5359  2.6377  1.7943
 5443TIP3    H237745   3.365   2.897  14.928  0.7776 -1.2696  0.1922
 5444TIP3   OH237746   4.786   2.795  14.212 -0.3833 -0.1018 -0.0431
 5444TIP3    H137747   4.799   2.884  14.246 -0.8806 -0.4970  1.2742
 5444TIP3    H237748   4.853   2.743  14.256  0.1962 -0.3039 -1.1567
 5445TIP3   OH237749   5.662   1.356  13.840  0.1258  0.1450 -0.4787
 5445TIP3    H137750   5.588   1.388  13.788 -0.0707 -0.1752 -0.4005
 5445TIP3    H237751   5.629   1.355  13.930  1.0331  2.4531 -0.0413
 5446TIP3   OH237752   6.099   5.923   2.530  0.5013  0.7062 -0.0452
 5446TIP3    H137753   6.043   5.990   2.570  0.9174  1.8115 -1.2567
 5446TIP3    H237754   6.180   5.925   2.582 -0.5223 -0.9461  1.7583
 5447TIP3   OH237755   2.574   5.399   4.080  0.0027 -0.3157 -0.0304
 5447TIP3    H137756   2.542   5.309   4.073  2.4249 -1.2020 -0.8381
 5447TIP3    H237757   2.626   5.399   4.160  0.0380  0.3634 -0.0526
 5448TIP3   OH237758   3.531   4.466   3.624 -0.1142  0.5145 -0.2626
 5448TIP3    H137759   3.454   4.452   3.679  0.0716 -2.1476 -0.5579
 5448TIP3    H237760   3.510   4.544   3.572 -0.8249  2.3661  2.5586
 5449TIP3   OH237761   4.142   6.120   1.203 -0.5762 -0.1108 -0.3436
 5449TIP3    H137762   4.105   6.119   1.292 -1.3593 -0.5311 -0.6692
 5449TIP3    H237763   4.094   6.052   1.156 -1.1351  1.0145 -1.4783
 5450TIP3   OH237764   6.033   0.236   3.911 -0.0502  1.1682  0.0114
 5450TIP3    H137765   5.965   0.168   3.914 -0.8999  1.9300 -0.9298
 5450TIP3    H237766   6.116   0.187   3.909 -0.6732 -0.0139 -3.0015
 5451TIP3   OH237767   1.960   5.131  15.561 -0.4690  0.4350 -0.5797
 5451TIP3    H137768   1.939   5.208  15.509 -0.8346  1.1101  0.5385
 5451TIP3    H237769   2.056   5.126  15.559 -0.3027  2.1098  0.9747
 5452TIP3   OH237770   5.601   1.584   1.327 -0.6191  0.4989  0.3295
 5452TIP3    H137771   5.522   1.630   1.298 -0.9746  0.3744  1.0612
 5452TIP3    H237772   5.607   1.508   1.270 -0.0603  1.3988 -0.8554
 5453TIP3   OH237773   1.239   0.969  12.521  0.7077 -0.2250 -0.7010
 5453TIP3    H137774   1.302   1.018  12.573  1.6494 -1.0505 -1.0457
 5453TIP3    H237775   1.239   0.881  12.560 -1.1325  0.0667  0.0635
 5454TIP3   OH237776   2.904   2.328  12.097  0.0529 -0.1398  0.1415
 5454TIP3    H137777   2.996   2.341  12.122 -0.2462  1.8685  0.3017
 5454TIP3    H237778   2.896   2.371  12.012 -0.4866 -1.3469 -0.4409
 5455TIP3   OH237779   3.448   2.640   3.670 -0.1501  0.2143  0.0232
 5455TIP3    H137780   3.499   2.602   3.599  0.9408  1.3758  0.1336
 5455TIP3    H237781   3.376   2.580   3.684  0.9838 -1.3045 -0.4178
 5456TIP3   OH237782   5.891   2.790  12.099  0.2368 -0.0585 -0.0992
 5456TIP3    H137783   5.851   2.859  12.045  3.5185  1.3359 -0.9801
 5456TIP3    H237784   5.919   2.724  12.037 -3.0579 -2.4945  0.7597
 5457TIP3   OH237785   0.625   2.651  15.368  0.3106 -0.4050 -0.7343
 5457TIP3    H137786   0.664   2.566  15.387  0.0343 -0.4390 -0.3262
 5457TIP3    H237787   0.688   2.693  15.309  0.2206 -1.0748 -1.3141
 5458TIP3   OH237788   2.369   1.466   2.503  0.6387 -0.7777 -0.4121
 5458TIP3    H137789   2.348   1.556   2.480  0.9327 -0.3837  0.7900
 5458TIP3    H237790   2.296   1.415   2.469  0.8133 -0.1811 -1.7247
 5459TIP3   OH237791   2.278   5.021  11.815  0.2481 -0.0817 -0.0838
 5459TIP3    H137792   2.360   4.982  11.784  0.9612 -0.1608  1.7781
 5459TIP3    H237793   2.290   5.029  11.909 -1.6278  0.5801  0.1297
 5460TIP3   OH237794   0.690   6.245  15.913  0.4419  0.2728 -0.7876
 5460TIP3    H137795   0.624   6.297  15.958  0.6204  0.6698 -0.9872
 5460TIP3    H237796   0.682   6.158  15.953  1.1344  0.8140  0.5752
 5461TIP3   OH237797   5.845   5.062  12.562 -0.2992 -0.2127  0.1236
 5461TIP3    H137798   5.845   4.986  12.619 -0.9477 -0.2145  0.1247
 5461TIP3    H237799   5.772   5.115  12.592 -0.8318 -0.3471 -0.8724
 5462TIP3   OH237800   2.825   1.259  10.810  0.2949 -0.4501 -0.1546
 5462TIP3    H137801   2.748   1.206  10.792 -0.2961  1.1145 -2.5886
 5462TIP3    H237802   2.898   1.206  10.780 -0.1814 -0.4608 -1.3450
 5463TIP3   OH237803   5.516   5.843  13.600  0.3767 -0.5867  0.2780
 5463TIP3    H137804   5.426   5.873  13.612 -0.2058 -1.1629 -2.0666
 5463TIP3    H237805   5.570   5.911  13.640 -1.0156  1.5942 -1.3639
 5464TIP3   OH237806   0.486   5.071  12.429 -0.6434 -0.2193 -0.0104
 5464TIP3    H137807   0.442   5.101  12.349  0.9918  4.5686  0.5233
 5464TIP3    H237808   0.568   5.033  12.398 -1.0459 -0.5719 -0.6701
 5465TIP3   OH237809   2.096   2.450  11.008  0.2690  0.3533 -0.2463
 5465TIP3    H137810   2.183   2.476  11.036  0.4467 -0.3243 -0.1617
 5465TIP3    H237811   2.044   2.531  11.012  0.4270  0.4028  1.4974
 5466TIP3   OH237812   0.148   4.883  16.836 -0.5614  0.5752 -0.7199
 5466TIP3    H137813   0.203   4.863  16.761  1.5649  1.2250  0.5820
 5466TIP3    H237814   0.059   4.865  16.806  0.4189 -1.7986 -2.5252
 5467TIP3   OH237815   6.086   4.218   6.220  0.1722  1.3419 -0.5229
 5467TIP3    H137816   6.020   4.195   6.286 -0.5941  0.0608 -1.6669
 5467TIP3    H237817   6.169   4.195   6.260 -0.3728 -0.9036 -0.4924
 5468TIP3   OH237818   1.199   4.840   4.742 -0.4569  0.5551 -0.1404
 5468TIP3    H137819   1.194   4.795   4.657 -1.5032  0.4884 -0.0467
 5468TIP3    H237820   1.242   4.777   4.800 -0.7314  0.1802 -0.3426
 5469TIP3   OH237821   3.298   0.402  14.421  0.5531  0.2023  0.3433
 5469TIP3    H137822   3.305   0.312  14.390  0.5760  0.7321 -1.2845
 5469TIP3    H237823   3.242   0.396  14.498  0.3262 -1.1647  0.1056
 5470TIP3   OH237824   1.593   1.040  15.988 -0.2416 -0.2075 -0.1067
 5470TIP3    H137825   1.585   0.957  16.035 -0.1952 -0.4251 -0.4767
 5470TIP3    H237826   1.609   1.014  15.897 -0.4712  0.2062 -0.2662
 5471TIP3   OH237827   5.562   1.690   5.446  0.1428 -0.6029 -0.1143
 5471TIP3    H137828   5.519   1.772   5.424  1.1400  0.0739  0.3637
 5471TIP3    H237829   5.497   1.641   5.496 -0.1971  0.2368  0.2737
 5472TIP3   OH237830   1.334   4.302  16.611 -0.4119 -0.0493 -0.0454
 5472TIP3    H137831   1.378   4.250  16.678 -1.7141 -0.0043  0.8911
 5472TIP3    H237832   1.248   4.261  16.602 -0.9012  1.0219 -0.4033
 5473TIP3   OH237833   1.346   6.402   6.267  0.5039 -0.6104  0.2140
 5473TIP3    H137834   1.265   6.355   6.246  0.2186 -0.4145  0.8561
 5473TIP3    H237835   1.381   6.428   6.181 -0.6203  0.1488 -0.0490
 5474TIP3   OH237836   5.406   1.027   2.654  0.4363 -1.0051 -0.6004
 5474TIP3    H137837   5.369   1.099   2.603  0.2678 -0.6978 -0.0550
 5474TIP3    H237838   5.478   1.067   2.703  0.1990 -1.1585 -0.1234
 5475TIP3   OH237839   5.264   1.024   5.620  0.4248 -0.1011  0.1129
 5475TIP3    H137840   5.335   0.963   5.636 -0.1457 -0.7761  0.1248
 5475TIP3    H237841   5.185   0.969   5.616 -0.1167  0.6452  0.2671
 5476TIP3   OH237842   4.290   4.448  16.528  0.2174 -0.3958  0.2878
 5476TIP3    H137843   4.263   4.376  16.472  2.7681  0.3095 -2.0957
 5476TIP3    H237844   4.301   4.409  16.615 -2.7409 -1.7992  0.1456
 5477TIP3   OH237845   0.955   2.308  15.729 -0.3311  0.0578 -0.1283
 5477TIP3    H137846   0.915   2.246  15.668  0.4791 -0.5267 -0.0949
 5477TIP3    H237847   0.953   2.262  15.813 -1.9996  1.0992  0.4493
 5478TIP3   OH237848   4.630   5.144   5.008  0.9199 -0.5440  0.2576
 5478TIP3    H137849   4.582   5.165   4.928  1.2571 -2.8819 -0.6387
 5478TIP3    H237850   4.704   5.205   5.008 -0.3311  1.0646  0.0717
 5479TIP3   OH237851   0.376   5.429  16.044  0.5028 -0.3336  0.3933
 5479TIP3    H137852   0.472   5.423  16.050  0.5335 -0.2042  0.0600
 5479TIP3    H237853   0.356   5.403  15.954  0.3003  0.5008  0.1950
 5480TIP3   OH237854   3.613   1.282   4.245  0.1698  0.2628 -0.3918
 5480TIP3    H137855   3.674   1.285   4.318 -0.4371 -1.5598  0.2529
 5480TIP3    H237856   3.636   1.357   4.190  1.8220  0.6073  0.7224
 5481TIP3   OH237857   5.179   5.004   3.496  0.4172  0.2388 -0.0557
 5481TIP3    H137858   5.214   4.946   3.428  0.3900  0.1195  0.0324
 5481TIP3    H237859   5.130   5.071   3.448  0.2347  0.0420 -0.1414
 5482TIP3   OH237860   0.488   0.966  11.363 -0.2586 -0.0039  0.5400
 5482TIP3    H137861   0.508   0.944  11.272  2.1505  0.8262  0.8050
 5482TIP3    H237862   0.396   0.993  11.362 -1.0170 -2.2860 -1.1751
 5483TIP3   OH237863   5.080   1.918   2.920  0.0024  0.0297  0.0517
 5483TIP3    H137864   5.155   1.974   2.903  1.6282 -2.3679 -1.1503
 5483TIP3    H237865   5.015   1.946   2.856 -0.0835  1.8601  0.8461
 5484TIP3   OH237866   4.923   4.669   0.445 -0.1664 -0.6027  0.2213
 5484TIP3    H137867   4.862   4.601   0.417 -1.3578 -0.6580  2.6550
 5484TIP3    H237868   4.909   4.741   0.384 -0.9936 -1.4604 -0.6349
 5485TIP3   OH237869   3.299   2.760  11.255  0.4235 -0.2405  0.1221
 5485TIP3    H137870   3.342   2.835  11.296 -0.6889 -0.0123  0.9355
 5485TIP3    H237871   3.218   2.796  11.219  1.2243 -0.4902 -2.0858
 5486TIP3   OH237872   2.492   2.548   3.405 -1.1452 -0.0156 -0.2384
 5486TIP3    H137873   2.533   2.610   3.346 -0.3347  0.1746  0.5053
 5486TIP3    H237874   2.406   2.584   3.423 -1.7305 -0.4888 -1.9285
 5487TIP3   OH237875   2.615   5.358  16.240 -0.0562  0.1876  0.2048
 5487TIP3    H137876   2.622   5.396  16.327  0.4389  1.2820 -0.3023
 5487TIP3    H237877   2.541   5.298  16.246  1.7864 -2.1018  2.2138
 5488TIP3   OH237878   0.699   2.904  10.383 -0.0859 -0.6972 -0.1356
 5488TIP3    H137879   0.777   2.904  10.327 -1.5442 -0.7608 -2.2381
 5488TIP3    H237880   0.673   2.996  10.388  1.7804 -0.1894  3.1327
 5489TIP3   OH237881   3.745   0.523  13.862  0.2956  0.1396 -0.0290
 5489TIP3    H137882   3.720   0.536  13.954  2.6548  4.4246  0.2535
 5489TIP3    H237883   3.816   0.459  13.865 -1.0827 -1.4181  0.7898
 5490TIP3   OH237884   4.145   3.982   0.729  0.1845  0.3405  0.2889
 5490TIP3    H137885   4.224   3.947   0.771  0.0717  0.7696  0.8604
 5490TIP3    H237886   4.173   4.003   0.640  0.6761  0.3576  0.4461
 5491TIP3   OH237887   6.648   2.930   3.509  0.4728  0.0711 -0.2458
 5491TIP3    H137888   6.698   2.879   3.446  0.1448 -0.4039 -0.1322
 5491TIP3    H237889   6.558   2.926   3.477  0.6862  2.0887 -1.2158
 5492TIP3   OH237890   2.226   4.801   5.244 -0.7912  0.4530  0.1213
 5492TIP3    H137891   2.278   4.792   5.324  0.7184  1.8562 -0.6388
 5492TIP3    H237892   2.278   4.757   5.177 -1.0119  1.1310 -0.5010
 5493TIP3   OH237893   0.195   1.516  16.148  0.2825  0.2223  0.3917
 5493TIP3    H137894   0.278   1.561  16.166  0.1992 -0.2892  2.1805
 5493TIP3    H237895   0.202   1.433  16.194 -0.4807 -0.6627 -1.0325
 5494TIP3   OH237896   5.201   2.191   0.121  0.0962 -0.0009 -1.3245
 5494TIP3    H137897   5.288   2.178   0.085  0.3814  0.0642 -0.6800
 5494TIP3    H237898   5.205   2.276   0.166 -0.0774 -0.3148 -0.6914
 5495TIP3   OH237899   0.501   3.883  15.561 -0.0042 -0.2213  0.6847
 5495TIP3    H137900   0.482   3.834  15.481 -1.4563 -0.4083  1.1109
 5495TIP3    H237901   0.591   3.861  15.581  0.2568 -0.4985 -0.6687
 5496TIP3   OH237902   3.424   2.539   0.755  0.2811 -0.5673  0.9043
 5496TIP3    H137903   3.463   2.452   0.764 -1.7350 -1.6860 -0.5423
 5496TIP3    H237904   3.470   2.579   0.682  0.9379 -0.5547  1.3163
 5497TIP3   OH237905   3.287   1.036   5.774 -0.0352  0.9405 -0.2988
 5497TIP3    H137906   3.276   0.974   5.847  0.7617  2.2721  1.0286
 5497TIP3    H237907   3.369   1.082   5.795  0.0594  1.5630 -1.9089
 5498TIP3   OH237908   1.601   2.633  15.161  0.3584 -0.6448  0.1419
 5498TIP3    H137909   1.560   2.709  15.204  0.1536 -1.6815  1.8951
 5498TIP3    H237910   1.537   2.605  15.097  0.4853  0.7088 -0.6273
 5499TIP3   OH237911   1.729   3.462   1.920 -0.0312 -0.0176  0.2779
 5499TIP3    H137912   1.655   3.449   1.861 -0.0310 -1.5701  0.5846
 5499TIP3    H237913   1.719   3.393   1.986  1.1686  0.3462  0.8582
 5500TIP3   OH237914   1.269   6.091  14.844  0.4608 -0.7098 -0.1676
 5500TIP3    H137915   1.301   6.087  14.754  0.8274 -0.7145 -0.0412
 5500TIP3    H237916   1.205   6.162  14.844  2.3489  1.1054  0.1311
 5501TIP3   OH237917   3.881   6.033  16.936  0.7085  0.0418  0.0464
 5501TIP3    H137918   3.818   6.004  17.001 -0.1037 -0.0707 -0.7640
 5501TIP3    H237919   3.966   6.024  16.979  0.1787  0.2208  1.1665
 5502TIP3   OH237920   4.120   0.313  12.376  0.1558  0.3248 -0.3378
 5502TIP3    H137921   4.150   0.404  12.379  1.2855 -0.0471  1.3053
 5502TIP3    H237922   4.157   0.279  12.294 -0.8690  1.4910 -1.3310
 5503TIP3   OH237923   3.632   6.316  16.731 -0.3064 -0.4219 -0.3734
 5503TIP3    H137924   3.549   6.295  16.774 -0.7611  1.0544 -0.5019
 5503TIP3    H237925   3.669   6.230  16.709 -1.9901 -1.1002 -0.7216
 5504TIP3   OH237926   4.533   4.917  16.982 -0.7296 -0.2430  0.0195
 5504TIP3    H137927   4.602   4.860  16.949 -2.9891 -3.2769  0.0753
 5504TIP3    H237928   4.454   4.864  16.978 -2.8891  2.5880  1.1548
 5505TIP3   OH237929   2.928   4.035  14.656  0.3616 -0.1583  0.0191
 5505TIP3    H137930   2.839   4.070  14.664  1.2346  1.7069  2.5650
 5505TIP3    H237931   2.927   3.955  14.709  0.5239  0.6196  1.2292
 5506TIP3   OH237932   2.421   6.318  12.809 -0.3627 -0.3307 -0.2676
 5506TIP3    H137933   2.462   6.402  12.829 -2.8582  0.5632  1.7240
 5506TIP3    H237934   2.402   6.322  12.716  0.9258  0.6729 -0.5106
 5507TIP3   OH237935   1.337   5.242  11.982  0.0061  0.1822  0.7456
 5507TIP3    H137936   1.330   5.167  11.923  0.8798 -0.3438  1.2895
 5507TIP3    H237937   1.326   5.318  11.925 -2.5409 -0.3345  0.4207
 5508TIP3   OH237938   3.847   5.734  15.386 -0.5065 -0.3508  0.2863
 5508TIP3    H137939   3.833   5.687  15.304  1.3440 -1.2368  0.4235
 5508TIP3    H237940   3.767   5.785  15.399 -1.6092 -1.6432 -1.0862
 5509TIP3   OH237941   1.938   2.791   4.206 -0.1928 -0.1731  0.0077
 5509TIP3    H137942   1.992   2.869   4.217 -1.3198  1.0448 -2.3348
 5509TIP3    H237943   1.987   2.736   4.146  0.2348 -0.9339  1.0322
 5510TIP3   OH237944   6.012   4.514  16.830 -0.0844 -0.1802  0.4065
 5510TIP3    H137945   5.963   4.442  16.870 -0.9617  0.0263 -0.2733
 5510TIP3    H237946   6.022   4.578  16.900  0.2649 -0.7408  0.8752
 5511TIP3   OH237947   5.525   6.223   1.101 -0.4011  0.3198  0.7754
 5511TIP3    H137948   5.583   6.299   1.101  1.2786 -0.8960  0.4516
 5511TIP3    H237949   5.577   6.153   1.141 -1.6609 -0.8213  0.5058
 5512TIP3   OH237950   1.252   3.568  13.019 -0.8287 -0.3194 -0.3830
 5512TIP3    H137951   1.321   3.504  13.001 -1.2288 -0.6310 -0.8508
 5512TIP3    H237952   1.298   3.645  13.052 -0.3918 -1.0575  0.7639
 5513TIP3   OH237953   5.356   5.000   2.187 -0.1552 -0.0711 -0.2848
 5513TIP3    H137954   5.381   4.908   2.191 -1.0365 -0.3151 -0.1570
 5513TIP3    H237955   5.297   5.005   2.111  0.2137  0.4747 -0.5443
 5514TIP3   OH237956   4.866   1.470  16.555 -0.1514 -0.1996  0.2050
 5514TIP3    H137957   4.792   1.409  16.558 -0.6534  0.4157  2.2560
 5514TIP3    H237958   4.942   1.417  16.578 -0.5710 -0.1562  1.8812
 5515TIP3   OH237959   2.048   3.390   1.085  0.3233 -0.0515  0.1144
 5515TIP3    H137960   2.050   3.306   1.132  0.4433  0.9064  1.8785
 5515TIP3    H237961   1.954   3.411   1.079  0.3372  0.1188  0.4758
 5516TIP3   OH237962   3.669   4.540  14.572  0.8201  0.2235  0.0220
 5516TIP3    H137963   3.679   4.552  14.667 -0.8547  1.1635  0.1148
 5516TIP3    H237964   3.596   4.597  14.548  0.4521 -0.8800 -1.6490
 5517TIP3   OH237965   0.295   0.864   2.558  0.1442  0.7779 -0.1761
 5517TIP3    H137966   0.236   0.832   2.490 -1.5938 -0.8649  1.9456
 5517TIP3    H237967   0.253   0.944   2.591 -0.7151 -0.1461  1.0330
 5518TIP3   OH237968   0.400   0.490   1.983  0.7696  0.4554  0.2564
 5518TIP3    H137969   0.464   0.543   1.937  0.8325 -0.1548 -0.3808
 5518TIP3    H237970   0.423   0.500   2.075  1.9386  0.0564  0.0297
 5519TIP3   OH237971   1.083   4.711  12.059 -0.2768  0.5526  0.0956
 5519TIP3    H137972   1.113   4.631  12.102 -0.7472 -0.2187 -0.9510
 5519TIP3    H237973   1.158   4.741  12.008 -0.2127  0.5809  0.2061
 5520TIP3   OH237974   5.203   0.522  14.697  0.0457  0.5537  0.3515
 5520TIP3    H137975   5.157   0.539  14.780  0.0481 -3.2137  1.2758
 5520TIP3    H237976   5.294   0.546  14.716  0.1555 -0.7757  1.6917
 5521TIP3   OH237977   4.157   1.007  10.554 -0.1152 -0.0219  0.3543
 5521TIP3    H137978   4.252   1.010  10.551 -0.0618 -1.2399  0.3468
 5521TIP3    H237979   4.130   1.098  10.565  0.9647  0.5859 -1.6351
 5522TIP3   OH237980   1.144   4.246   2.034  0.3547  0.1144  0.2985
 5522TIP3    H137981   1.214   4.192   2.070 -0.3187 -2.1797 -1.5517
 5522TIP3    H237982   1.083   4.258   2.106 -0.3472 -3.2505  0.4208
 5523TIP3   OH237983   6.479   1.235  11.425 -0.4789  0.1240 -0.5346
 5523TIP3    H137984   6.523   1.271  11.349  1.1330  1.5238  0.9616
 5523TIP3    H237985   6.508   1.144  11.429 -0.0958  0.2085 -1.2332
 5524TIP3   OH237986   5.734   3.600   2.303  0.0672  0.3247 -0.0506
 5524TIP3    H137987   5.660   3.648   2.339 -0.4449 -0.0888 -0.5412
 5524TIP3    H237988   5.697   3.548   2.231  1.0558  1.1757 -1.2228
 5525TIP3   OH237989   1.744   2.936   4.056  0.0286  0.4218  0.0274
 5525TIP3    H137990   1.711   3.011   4.105  0.9129  0.7827  0.0780
 5525TIP3    H237991   1.802   2.891   4.117  0.0120  0.0612 -0.2190
 5526TIP3   OH237992   1.397   0.207   2.872  0.2034 -0.1302 -0.9113
 5526TIP3    H137993   1.372   0.275   2.810  1.7045  2.4059  1.0408
 5526TIP3    H237994   1.442   0.254   2.942 -1.4710 -2.7609  2.2097
 5527TIP3   OH237995   5.049   2.205   2.816 -0.2072  0.1471 -0.2729
 5527TIP3    H137996   5.134   2.231   2.781 -1.0031  3.9494  0.1657
 5527TIP3    H237997   4.993   2.196   2.739 -0.9058  4.3796 -0.5378
 5528TIP3   OH237998   3.612   0.821   2.614 -0.4229 -0.1572 -0.2039
 5528TIP3    H137999   3.608   0.726   2.626 -0.1498  0.0561  1.9383
 5528TIP3    H238000   3.596   0.857   2.701 -0.4358  1.7772 -0.9541
 5529TIP3   OH238001   6.420   4.872  11.370  0.6288 -0.3248  0.6208
 5529TIP3    H138002   6.472   4.913  11.301  1.7305 -1.5046  0.6960
 5529TIP3    H238003   6.465   4.897  11.451  2.4435 -2.9900  0.5875
 5530TIP3   OH238004   5.193   2.458   0.468  0.0350  0.2107 -0.0317
 5530TIP3    H138005   5.189   2.546   0.506 -2.0537  1.0402 -1.9714
 5530TIP3    H238006   5.205   2.473   0.375 -1.3960 -1.5214 -0.5430
 5531TIP3   OH238007   1.621   5.303   0.933  0.4105  0.1196  0.6288
 5531TIP3    H138008   1.569   5.283   0.855  2.1605  0.5913 -0.7292
 5531TIP3    H238009   1.557   5.336   0.996 -0.9838  0.4618 -0.8770
 5532TIP3   OH238010   5.914   1.934   3.719  0.0875 -0.0017 -0.1011
 5532TIP3    H138011   5.933   1.849   3.759 -1.3399  0.4373  1.6564
 5532TIP3    H238012   5.853   1.976   3.780 -1.3484  1.2065 -2.2406
 5533TIP3   OH238013   3.836   1.616   4.965  0.1924  0.2892 -0.1582
 5533TIP3    H138014   3.825   1.594   4.873  1.4998  1.2714 -0.5911
 5533TIP3    H238015   3.747   1.619   5.000 -0.3880  0.6714 -1.5765
 5534TIP3   OH238016   6.282   0.340  12.224 -0.6429  0.3079 -0.4161
 5534TIP3    H138017   6.343   0.362  12.154 -1.3764  0.1871 -1.1087
 5534TIP3    H238018   6.296   0.247  12.241  1.4625  0.8903  1.5326
 5535TIP3   OH238019   3.944   3.633  15.941  0.3957  0.0533 -0.3808
 5535TIP3    H138020   3.922   3.561  15.882  2.1046 -0.7014 -0.1465
 5535TIP3    H238021   3.982   3.590  16.018 -1.1759  1.0562  1.0398
 5536TIP3   OH238022   5.071   3.347   2.604 -0.2913 -0.5032  0.9777
 5536TIP3    H138023   5.016   3.286   2.653 -0.2583 -2.0137 -0.7559
 5536TIP3    H238024   5.017   3.375   2.530 -0.0897  1.1241  1.4230
 5537TIP3   OH238025   6.615   6.008   0.197  0.2993  0.1119 -0.1045
 5537TIP3    H138026   6.688   5.949   0.214 -1.5722 -1.9378  1.2973
 5537TIP3    H238027   6.571   5.971   0.121 -1.3386 -0.8761  1.2488
 5538TIP3   OH238028   1.797   6.249  17.201 -0.2560 -0.2116 -0.2378
 5538TIP3    H138029   1.751   6.168  17.223 -0.1743 -0.0419  0.5947
 5538TIP3    H238030   1.732   6.301  17.153 -0.3733 -0.6776 -0.5952
 5539TIP3   OH238031   4.748   6.415   2.963 -0.0696  0.3665 -0.5465
 5539TIP3    H138032   4.794   6.348   2.913  1.4182  2.1170 -1.6614
 5539TIP3    H238033   4.706   6.470   2.897 -2.7348 -0.3901  0.4090
 5540TIP3   OH238034   3.109   2.314  16.994 -0.1673 -0.4732 -0.3216
 5540TIP3    H138035   3.082   2.265  16.917 -1.9300  1.2124 -0.8562
 5540TIP3    H238036   3.027   2.334  17.040  0.6048  0.8372  0.5461
 5541TIP3   OH238037   2.550   5.594  10.903  0.0363 -0.0340 -0.3957
 5541TIP3    H138038   2.524   5.682  10.929  0.9252  0.1470 -0.1061
 5541TIP3    H238039   2.495   5.536  10.956 -0.7780  0.3282 -0.8116
 5542TIP3   OH238040   1.679   1.130  12.179 -0.5485 -0.6161  0.7008
 5542TIP3    H138041   1.615   1.178  12.231 -2.6076 -0.1912 -1.9645
 5542TIP3    H238042   1.706   1.192  12.111  0.0490 -1.8738 -0.2559
 5543TIP3   OH238043   3.025   1.052  14.165 -0.3026 -0.4325  0.3177
 5543TIP3    H138044   2.953   1.021  14.110 -1.0585  0.0648  0.9950
 5543TIP3    H238045   3.000   1.027  14.254  0.3677 -0.2632  0.5627
 5544TIP3   OH238046   0.844   4.999  10.867 -0.3042 -0.1392 -0.4628
 5544TIP3    H138047   0.769   5.057  10.884  0.0435  0.5735 -1.2908
 5544TIP3    H238048   0.879   5.028  10.783 -0.9859 -2.5245 -1.6270
 5545TIP3   OH238049   3.856   6.297  13.530 -0.1067 -0.1115  0.1856
 5545TIP3    H138050   3.872   6.354  13.605  0.5593 -0.1554  0.0876
 5545TIP3    H238051   3.887   6.348  13.455  0.0623 -0.4198  0.0452
 5546TIP3   OH238052   4.802   6.259  11.663  0.4014 -0.0234  0.1012
 5546TIP3    H138053   4.802   6.168  11.635 -0.3451 -0.1633  0.5334
 5546TIP3    H238054   4.731   6.265  11.726 -0.9529  1.2867 -1.4308
 5547TIP3   OH238055   4.535   0.893  13.597 -0.7435  0.3725 -0.0740
 5547TIP3    H138056   4.544   0.980  13.559 -2.7704  0.2715 -0.8807
 5547TIP3    H238057   4.473   0.848  13.540  0.7329 -1.8494 -0.0442
 5548TIP3   OH238058   1.422   2.011   4.948  0.6696 -0.3489 -0.3496
 5548TIP3    H138059   1.515   2.032   4.958  0.5342  0.6078 -0.9987
 5548TIP3    H238060   1.421   1.921   4.915  1.3777 -0.2425 -0.6837
 5549TIP3   OH238061   3.816   0.528  13.256 -0.3146 -0.4258 -0.0529
 5549TIP3    H138062   3.819   0.624  13.254 -0.9808 -0.4016  0.0074
 5549TIP3    H238063   3.897   0.503  13.301 -0.8417  0.1537  1.2589
 5550TIP3   OH238064   5.713   5.749   0.755 -0.7095 -0.0150  0.3343
 5550TIP3    H138065   5.691   5.753   0.662  0.2829 -1.2932 -0.0002
 5550TIP3    H238066   5.719   5.655   0.774  1.2168  0.2150  1.1323
 5551TIP3   OH238067   6.427   2.548   5.371 -0.3721 -0.7672 -1.0598
 5551TIP3    H138068   6.339   2.553   5.408  0.8557 -0.7302  2.2162
 5551TIP3    H238069   6.462   2.637   5.380  0.7697 -1.2801  0.0596
 5552TIP3   OH238070   0.481   5.771   3.049 -0.0687 -0.0846  0.5092
 5552TIP3    H138071   0.479   5.726   2.965  0.6833 -0.8777  0.8933
 5552TIP3    H238072   0.547   5.724   3.100 -1.6643 -0.6892  2.1425
 5553TIP3   OH238073   4.925   4.872  15.035  0.9573  0.0808 -0.2729
 5553TIP3    H138074   4.912   4.959  14.998 -1.1178 -0.0155  0.0508
 5553TIP3    H238075   4.907   4.812  14.963  1.3526 -0.0855 -0.2346
 5554TIP3   OH238076   1.105   3.854  10.788  0.4633  1.3242 -0.7829
 5554TIP3    H138077   1.069   3.934  10.826 -0.7445  1.0153 -1.2441
 5554TIP3    H238078   1.122   3.876  10.697 -0.0982  0.9949 -0.9721
 5555TIP3   OH238079   3.747   3.709  11.734 -0.3787  0.3456  0.3277
 5555TIP3    H138080   3.835   3.688  11.703 -0.4980  0.3030  0.0227
 5555TIP3    H238081   3.695   3.724  11.655 -0.4304  1.2565  0.5147
 5556TIP3   OH238082   1.452   5.600   0.145  0.0591  0.2758  0.0835
 5556TIP3    H138083   1.378   5.655   0.119  0.8798  1.8674  0.9444
 5556TIP3    H238084   1.506   5.592   0.066 -2.6208 -3.9267 -1.7041
 5557TIP3   OH238085   0.514   1.916   2.217  0.2232 -0.5186 -0.4493
 5557TIP3    H138086   0.496   1.927   2.124  0.0828 -0.3074 -0.3988
 5557TIP3    H238087   0.521   1.821   2.230 -0.5920 -0.5934 -0.5237
 5558TIP3   OH238088   2.291   3.127  12.783  0.1320  0.9843 -0.1264
 5558TIP3    H138089   2.346   3.185  12.836  0.7757 -1.7760  2.5078
 5558TIP3    H238090   2.206   3.128  12.827  0.2640 -0.3050  0.1867
 5559TIP3   OH238091   4.217   0.542  11.640  0.5448  0.4324  0.1212
 5559TIP3    H138092   4.285   0.542  11.573  0.6082 -0.9517  0.1527
 5559TIP3    H238093   4.155   0.609  11.611  0.5298 -0.1850 -1.3881
 5560TIP3   OH238094   4.526   5.444  14.169  0.0851  0.0385 -0.1360
 5560TIP3    H138095   4.516   5.360  14.214 -1.1125  0.9159  1.3485
 5560TIP3    H238096   4.575   5.499  14.231  0.6236  0.5182 -0.9741
 5561TIP3   OH238097   0.796   0.552  11.550  0.4731 -0.4222  0.3414
 5561TIP3    H138098   0.702   0.566  11.541  0.9396  2.7904 -0.4645
 5561TIP3    H238099   0.811   0.553  11.645  0.0104  2.3144  0.4675
 5562TIP3   OH238100   4.991   2.115  12.447  0.3153 -0.0045  0.1842
 5562TIP3    H138101   4.933   2.183  12.413  1.3060  0.9000  0.2536
 5562TIP3    H238102   4.940   2.034  12.439 -0.9722  0.7654  0.3107
 5563TIP3   OH238103   5.170   4.256   3.821  0.3532 -0.5196  0.6452
 5563TIP3    H138104   5.124   4.269   3.904 -1.9074  0.5878 -0.6711
 5563TIP3    H238105   5.238   4.323   3.820  0.1137 -0.2522  1.4241
 5564TIP3   OH238106   0.507   2.325   6.453 -0.1613  0.0299  0.4555
 5564TIP3    H138107   0.590   2.313   6.499  0.9319  2.4046 -0.7334
 5564TIP3    H238108   0.473   2.409   6.485 -2.0783 -0.8101  0.7998
 5565TIP3   OH238109   6.061   6.534  14.332  0.1457 -0.5842  0.5153
 5565TIP3    H138110   6.038   6.463  14.272 -0.2816 -0.1393  0.1459
 5565TIP3    H238111   6.100   6.601  14.276 -0.1107 -0.2311  0.7531
 5566TIP3   OH238112   6.222   4.714   2.485 -0.3316  0.0700  0.0900
 5566TIP3    H138113   6.238   4.781   2.552 -1.1216  1.5843 -1.1614
 5566TIP3    H238114   6.134   4.734   2.452  0.2273 -0.2977 -1.7396
 5567TIP3   OH238115   0.978   0.695   2.204 -0.7325  0.5115 -0.4909
 5567TIP3    H138116   1.023   0.779   2.216  0.5038  0.2981 -2.8522
 5567TIP3    H238117   1.017   0.659   2.124  0.3136 -3.3295  1.4940
 5568TIP3   OH238118   3.354   2.305  12.864  0.2576 -0.0132 -0.2471
 5568TIP3    H138119   3.278   2.269  12.910  1.3406 -1.4669  0.4941
 5568TIP3    H238120   3.366   2.246  12.790 -0.0254  0.9120 -1.0489
 5569TIP3   OH238121   5.294   4.348   4.886  0.3029 -0.7404 -0.3488
 5569TIP3    H138122   5.313   4.356   4.979 -0.8244 -1.1546 -0.0632
 5569TIP3    H238123   5.202   4.322   4.883 -0.4497  1.8045 -1.6362
 5570TIP3   OH238124   1.827   2.475   0.953 -0.0475 -0.0204 -0.0472
 5570TIP3    H138125   1.874   2.545   0.909  1.7636 -0.5798  0.8968
 5570TIP3    H238126   1.808   2.509   1.040  0.8835 -0.6784  0.4331
 5571TIP3   OH238127   4.280   0.803   5.323  0.1001 -0.0329 -0.3934
 5571TIP3    H138128   4.243   0.865   5.386  0.0779 -1.1906  0.7557
 5571TIP3    H238129   4.228   0.817   5.244  0.6459  2.0025 -0.4633
 5572TIP3   OH238130   6.189   3.162  13.888 -0.4002  0.3375  0.1774
 5572TIP3    H138131   6.276   3.125  13.907 -0.4951  0.6578  1.3362
 5572TIP3    H238132   6.128   3.096  13.920 -0.5995 -0.1801 -1.2394
 5573TIP3   OH238133   6.744   0.853   0.018 -0.0431  0.0954 -0.1978
 5573TIP3    H138134   6.677   0.791  -0.011  0.0569 -0.4575  0.7204
 5573TIP3    H238135   6.822   0.827  -0.030 -0.0554 -0.3664  0.0220
 5574TIP3   OH238136   6.668   0.958   2.075 -0.2650  0.1974  0.6056
 5574TIP3    H138137   6.733   0.937   2.142 -0.3602 -0.6911  0.4393
 5574TIP3    H238138   6.584   0.946   2.120 -0.4206 -2.9596 -0.2884
 5575TIP3   OH238139   6.339   4.019   6.155 -0.1490 -0.1060  0.3818
 5575TIP3    H138140   6.311   4.053   6.240  1.7650  1.0537  0.5921
 5575TIP3    H238141   6.399   3.948   6.177  1.3790  1.0446  0.0603
 5576TIP3   OH238142   4.972   6.644  12.514  0.6663  0.2537  0.6359
 5576TIP3    H138143   5.014   6.597  12.442  0.0307 -1.2670  1.2186
 5576TIP3    H238144   5.042   6.659  12.577  0.8975  0.1691  0.3985
 5577TIP3   OH238145   1.824   3.696   1.444  0.3811  0.6247  0.2039
 5577TIP3    H138146   1.866   3.780   1.432 -0.9863  1.4357  0.8275
 5577TIP3    H238147   1.892   3.631   1.425  1.3263  1.8545 -0.6942
 5578TIP3   OH238148   4.888   6.530   1.069 -0.3580  0.0100  0.3806
 5578TIP3    H138149   4.912   6.446   1.031 -1.3610  0.3064 -0.9794
 5578TIP3    H238150   4.807   6.555   1.024 -1.0187  0.9017  1.9664
 5579TIP3   OH238151   2.046   2.878  15.062  0.2234  0.2115  0.2133
 5579TIP3    H138152   2.139   2.880  15.085  0.6603 -0.8595 -1.2725
 5579TIP3    H238153   2.027   2.968  15.032  0.8444  0.3818  0.3173
 5580TIP3   OH238154   6.234   6.565   3.835  0.0749 -0.2899 -0.0415
 5580TIP3    H138155   6.200   6.627   3.770 -0.2111 -1.0090 -0.5955
 5580TIP3    H238156   6.215   6.606   3.919 -1.1879 -0.1554 -0.3636
 5581TIP3   OH238157   1.952   1.591  15.243  0.4465 -0.5556 -0.9071
 5581TIP3    H138158   1.876   1.543  15.276  1.4024 -2.6316 -1.5885
 5581TIP3    H238159   1.930   1.611  15.152 -0.4447  1.4588 -0.3060
 5582TIP3   OH238160   3.140   3.690  11.994  0.2506  0.3209 -0.2397
 5582TIP3    H138161   3.099   3.684  12.080 -0.0136  0.6307 -0.3459
 5582TIP3    H238162   3.199   3.765  12.000 -2.2944  2.5835 -1.3709
 5583TIP3   OH238163   4.371   6.624  15.725 -0.5201 -0.4511 -0.0348
 5583TIP3    H138164   4.275   6.631  15.723 -0.3749  3.2751 -1.7272
 5583TIP3    H238165   4.393   6.640  15.817 -1.5096  2.1769 -0.1547
 5584TIP3   OH238166   4.464   5.915   3.106  0.2599 -0.6352  0.8984
 5584TIP3    H138167   4.456   5.836   3.052  1.1322 -0.0009 -0.2068
 5584TIP3    H238168   4.378   5.957   3.099  0.7368  0.0883 -1.0844
 5585TIP3   OH238169   4.803   0.842  13.655 -0.0083 -0.6019  0.1933
 5585TIP3    H138170   4.716   0.880  13.651  0.0331 -0.4299  0.8494
 5585TIP3    H238171   4.855   0.896  13.594  0.3949  1.3658  2.1388
 5586TIP3   OH238172   1.271   4.840  11.221 -0.1200 -0.5224 -0.2507
 5586TIP3    H138173   1.321   4.881  11.151  1.7289 -0.8537  0.8193
 5586TIP3    H238174   1.332   4.778  11.261 -1.0252 -0.1729  1.7885
 5587TIP3   OH238175   3.728   1.330   1.624  0.2969  0.7507 -0.3392
 5587TIP3    H138176   3.730   1.390   1.550 -1.4332  0.1031 -0.9656
 5587TIP3    H238177   3.712   1.385   1.701  1.2815  1.3344 -0.5373
 5588TIP3   OH238178   5.697   5.001  15.204 -0.4784  0.1974 -0.1571
 5588TIP3    H138179   5.663   4.920  15.245  1.9861 -0.1675  1.3499
 5588TIP3    H238180   5.673   5.070  15.265 -0.4022  0.2516 -0.1889
 5589TIP3   OH238181   3.981   0.277  16.336  0.5214 -0.3240  1.0176
 5589TIP3    H138182   3.929   0.333  16.394 -0.6723 -1.3629  0.9782
 5589TIP3    H238183   3.934   0.278  16.253  0.2737 -1.6628  1.1215
 5590TIP3   OH238184   5.435   1.699   4.410 -0.0505 -0.1563 -0.3016
 5590TIP3    H138185   5.463   1.778   4.457 -0.3501  0.6536 -1.4682
 5590TIP3    H238186   5.517   1.662   4.375 -0.2364  1.8264 -3.1061
 5591TIP3   OH238187   2.721   4.329  12.546  0.1727  0.5182  0.6529
 5591TIP3    H138188   2.756   4.368  12.465  1.3009 -0.0892  0.8385
 5591TIP3    H238189   2.729   4.399  12.611  0.7551  0.4769  0.6243
 5592TIP3   OH238190   6.145   3.337   1.094  0.4019 -0.0618 -0.2817
 5592TIP3    H138191   6.195   3.404   1.141 -0.5818 -1.1808  2.6202
 5592TIP3    H238192   6.206   3.264   1.084  1.0505  0.7007 -2.1589
 5593TIP3   OH238193   6.621   3.653   4.606 -0.0522 -0.2758 -0.4591
 5593TIP3    H138194   6.558   3.673   4.675  0.9349 -0.8052  0.6417
 5593TIP3    H238195   6.576   3.675   4.525 -0.7450  1.7575  0.4001
 5594TIP3   OH238196   0.261   2.466  16.448  0.3566  0.1723 -0.1583
 5594TIP3    H138197   0.257   2.372  16.463 -0.0789  0.2392  0.1815
 5594TIP3    H238198   0.290   2.502  16.532 -1.0352  0.4641  0.2290
 5595TIP3   OH238199   3.288   1.937   2.410 -0.2920 -0.4646  0.5779
 5595TIP3    H138200   3.340   2.013   2.434  0.7200 -0.6603 -0.8723
 5595TIP3    H238201   3.200   1.958   2.441 -0.0089  1.2251  0.3418
 5596TIP3   OH238202   6.515   4.839  14.736 -0.1353 -0.3056  0.1341
 5596TIP3    H138203   6.486   4.812  14.649 -0.5660  0.6583 -0.0360
 5596TIP3    H238204   6.435   4.867  14.780  0.0623 -0.8845  0.8840
 5597TIP3   OH238205   1.859   4.727   1.598  0.0188 -0.2400  0.5869
 5597TIP3    H138206   1.880   4.800   1.540  1.3468  1.0316  2.5274
 5597TIP3    H238207   1.768   4.705   1.577  0.2588  0.5411 -1.5070
 5598TIP3   OH238208   3.053   6.317  14.240 -0.4639  0.2634 -0.9512
 5598TIP3    H138209   2.986   6.250  14.225 -0.2039 -0.3455  0.4288
 5598TIP3    H238210   3.136   6.269  14.233 -0.2658  0.4946 -0.2095
 5599TIP3   OH238211   3.312   4.473   3.759 -0.3356 -0.3486  0.2745
 5599TIP3    H138212   3.218   4.468   3.741 -0.2328 -2.8495  0.1611
 5599TIP3    H238213   3.325   4.417   3.836  1.0641  0.0418  0.3606
 5600TIP3   OH238214   1.612   4.950  16.527  0.2385 -0.4161  0.0117
 5600TIP3    H138215   1.622   4.996  16.611  0.2802  1.7692 -1.1233
 5600TIP3    H238216   1.650   4.864  16.543 -1.4741 -0.7758  2.7852
 5601TIP3   OH238217   5.678   4.694  15.256  0.3181  0.3099  0.5734
 5601TIP3    H138218   5.621   4.638  15.309  0.1485 -0.0902 -0.0213
 5601TIP3    H238219   5.765   4.655  15.265  0.6384  1.2615  1.9594
 5602TIP3   OH238220   2.124   0.108  10.768 -0.7366  0.0905 -0.0946
 5602TIP3    H138221   2.069   0.042  10.725 -0.9907  0.2511 -0.0167
 5602TIP3    H238222   2.179   0.142  10.697 -1.7455  0.9637 -0.4976
 5603TIP3   OH238223   6.541   0.209  12.865  0.0560  0.1905  0.3205
 5603TIP3    H138224   6.610   0.262  12.824 -1.3771 -0.1250 -2.7897
 5603TIP3    H238225   6.459   0.252  12.838 -1.0928  0.7484  4.1539
 5604TIP3   OH238226   5.520   2.082   0.276  0.2303  0.1293 -0.2530
 5604TIP3    H138227   5.460   2.075   0.350  0.3869  2.5987  0.1993
 5604TIP3    H238228   5.602   2.043   0.308 -0.2286 -0.5077  0.1860
 5605TIP3   OH238229   4.338   4.166  15.875 -0.1121  0.1073  0.1186
 5605TIP3    H138230   4.267   4.190  15.815  0.4975 -0.2431 -0.7726
 5605TIP3    H238231   4.417   4.201  15.833  0.0296  2.6868  2.3200
 5606TIP3   OH238232   1.347   5.327   0.130 -1.0076  0.0729  0.2182
 5606TIP3    H138233   1.381   5.416   0.139 -0.8292  0.3020 -2.1143
 5606TIP3    H238234   1.287   5.332   0.055 -0.0348 -1.9957 -0.7819
 5607TIP3   OH238235   6.586   2.962  17.123 -0.5404 -0.4062  0.1612
 5607TIP3    H138236   6.606   3.051  17.095 -0.8697 -0.0264  1.0960
 5607TIP3    H238237   6.508   2.937  17.073 -1.2523  0.3428  0.8785
 5608TIP3   OH238238   0.183   1.983   2.641  0.0490 -0.0862 -0.2330
 5608TIP3    H138239   0.126   1.988   2.564 -0.0086  0.2538 -0.1664
 5608TIP3    H238240   0.232   1.901   2.628  0.6376  0.3814 -1.0546
 5609TIP3   OH238241   5.659   5.185  12.743 -0.0437 -0.1842 -0.1795
 5609TIP3    H138242   5.586   5.243  12.721  0.3644  0.1457 -0.6918
 5609TIP3    H238243   5.628   5.135  12.818 -0.3534  0.8028  0.3701
 5610TIP3   OH238244   5.073   1.039   5.225  0.0506 -0.1737  0.4048
 5610TIP3    H138245   5.161   1.075   5.216 -0.2883  0.3255 -1.2679
 5610TIP3    H238246   5.085   0.945   5.214  0.3582 -0.0989  0.0894
 5611TIP3   OH238247   6.724   3.151   3.236  0.3589  0.1977  0.4423
 5611TIP3    H138248   6.816   3.145   3.262  0.2533 -0.5110  0.6723
 5611TIP3    H238249   6.725   3.141   3.141  0.8679  3.9988 -0.1293
 5612TIP3   OH238250   5.096   1.974  13.443  0.2503 -0.6835  0.2719
 5612TIP3    H138251   5.125   1.933  13.361  0.3290 -0.7330  0.3244
 5612TIP3    H238252   5.111   1.907  13.510 -1.3192 -1.2524  0.1041
 5613TIP3   OH238253   0.260   5.069   1.752  0.5154 -0.1438 -0.2935
 5613TIP3    H138254   0.248   5.068   1.847 -0.8504  0.8397 -0.4291
 5613TIP3    H238255   0.295   5.156   1.733 -1.0821  0.3885 -0.8745
 5614TIP3   OH238256   4.491   5.806   5.947 -0.0511  0.0342 -0.4425
 5614TIP3    H138257   4.555   5.868   5.913  2.4858 -2.3341 -0.2730
 5614TIP3    H238258   4.458   5.760   5.870  1.0140 -1.0253 -0.2980
 5615TIP3   OH238259   5.546   2.597   1.039  0.1300 -0.0054 -0.2417
 5615TIP3    H138260   5.495   2.603   0.957  0.1323 -0.4035 -0.2765
 5615TIP3    H238261   5.625   2.549   1.014  0.2481  0.0948 -0.0584
 5616TIP3   OH238262   3.964   6.677  11.829 -0.3181  0.5764  0.0315
 5616TIP3    H138263   3.997   6.710  11.746 -2.1563  0.9402 -0.6180
 5616TIP3    H238264   4.031   6.616  11.860  0.2101  0.0919 -1.9311
 5617TIP3   OH238265   1.116   5.271   5.212  1.0097 -0.6628  0.2325
 5617TIP3    H138266   1.065   5.301   5.137  2.2981 -1.8007 -1.1630
 5617TIP3    H238267   1.057   5.211   5.258  0.0451  0.4049  0.4279
 5618TIP3   OH238268   4.297   4.928   2.002  0.2329 -0.1125 -0.2658
 5618TIP3    H138269   4.289   4.835   1.982  1.5351 -0.2298 -0.2828
 5618TIP3    H238270   4.219   4.948   2.055 -2.0559 -0.3249 -3.3164
 5619TIP3   OH238271   1.086   2.142  14.571  0.5580  0.4126  0.2918
 5619TIP3    H138272   1.065   2.161  14.480  0.1430  0.2149  0.3461
 5619TIP3    H238273   1.045   2.057  14.588  0.6862  0.4192  0.6458
 5620TIP3   OH238274   4.101   1.696  16.234 -0.2495  0.5724  0.0427
 5620TIP3    H138275   4.042   1.756  16.281 -0.6474  0.5866 -0.4725
 5620TIP3    H238276   4.045   1.622  16.209 -0.0451  0.5750 -0.4327
 5621TIP3   OH238277   0.410   4.478  16.190 -0.1733 -0.0892  0.2323
 5621TIP3    H138278   0.468   4.512  16.123 -0.1776  2.3573  1.3526
 5621TIP3    H238279   0.365   4.405  16.148  1.5929 -0.2255 -1.5794
 5622TIP3   OH238280   0.061   0.355   4.990  0.1118 -0.6688 -0.0621
 5622TIP3    H138281  -0.022   0.393   5.018  0.1173 -0.9394  0.3403
 5622TIP3    H238282   0.103   0.423   4.937 -1.1665 -1.1789 -1.8187
 5623TIP3   OH238283   1.240   3.334   1.127  0.2284  0.0286 -0.3164
 5623TIP3    H138284   1.200   3.248   1.120  2.4945 -1.0803 -0.7125
 5623TIP3    H238285   1.279   3.351   1.041 -0.4411  1.6081 -0.3457
 5624TIP3   OH238286   5.910   4.559  14.304 -0.3799 -1.1704  0.0281
 5624TIP3    H138287   5.875   4.620  14.240 -0.6703  0.2097  1.4288
 5624TIP3    H238288   5.988   4.521  14.262 -0.1203  0.2517 -0.8418
 5625TIP3   OH238289   6.672   5.817  14.986  0.7141 -0.2091  0.4917
 5625TIP3    H138290   6.754   5.788  14.945 -0.1394 -0.3172 -1.2438
 5625TIP3    H238291   6.605   5.799  14.920 -0.5106  1.2185  1.2961
 5626TIP3   OH238292   1.989   2.226  11.517  0.3308  0.1504 -0.2883
 5626TIP3    H138293   1.906   2.255  11.479 -0.1883 -0.4499  0.3661
 5626TIP3    H238294   1.967   2.203  11.607  0.7550 -2.0130 -0.6805
 5627TIP3   OH238295   0.382   0.034   4.210 -0.4266  0.2908  0.1374
 5627TIP3    H138296   0.398   0.107   4.269 -0.7691 -1.3604  2.3711
 5627TIP3    H238297   0.463   0.025   4.161  0.6191  0.4425  1.7924
 5628TIP3   OH238298   5.878   1.087   4.109 -0.5046  0.4454 -0.1030
 5628TIP3    H138299   5.821   1.031   4.057 -3.2163  2.4133  0.5128
 5628TIP3    H238300   5.894   1.039   4.190 -1.5177 -0.0652 -0.1997
 5629TIP3   OH238301   2.728   2.241  16.271 -0.6687  0.8243 -0.5279
 5629TIP3    H138302   2.665   2.201  16.331  0.4685  2.9436  2.3200
 5629TIP3    H238303   2.675   2.282  16.203 -2.1796  0.2382  0.2627
 5630TIP3   OH238304   1.347   5.999   0.071  0.2027 -0.0716 -0.3932
 5630TIP3    H138305   1.357   5.904   0.074 -0.8525 -0.2194 -1.1823
 5630TIP3    H238306   1.308   6.022   0.156  0.2432 -0.3674 -0.2945
 5631TIP3   OH238307   1.435   5.229   0.717 -0.3738 -0.8644 -0.3676
 5631TIP3    H138308   1.457   5.259   0.629  3.3201 -0.9771  0.3667
 5631TIP3    H238309   1.413   5.137   0.707 -2.8100 -0.2611 -1.4273
 5632TIP3   OH238310   5.844   6.472  12.067  0.3243  0.0704  0.0499
 5632TIP3    H138311   5.770   6.470  12.006  0.2273 -2.0410  0.1519
 5632TIP3    H238312   5.916   6.432  12.018  0.3641 -1.2455  1.1214
 5633TIP3   OH238313   0.794   3.099  16.579 -0.3827  0.1158  0.0896
 5633TIP3    H138314   0.819   3.007  16.578  0.3986  0.2930 -1.8283
 5633TIP3    H238315   0.699   3.098  16.586 -0.7391 -1.0356 -3.1763
 5634TIP3   OH238316   5.549   5.557   3.846  0.1227  0.0859 -0.3479
 5634TIP3    H138317   5.574   5.568   3.754 -0.6994  0.5594 -0.5172
 5634TIP3    H238318   5.461   5.592   3.852 -0.7878 -2.0835  0.1251
 5635TIP3   OH238319   3.003   6.252  11.215  0.0166 -0.1791  0.3198
 5635TIP3    H138320   2.953   6.331  11.196  1.0999  0.6034  0.6415
 5635TIP3    H238321   2.937   6.190  11.247 -0.5696  1.3630  2.3745
 5636TIP3   OH238322   6.717   3.614   4.257  0.1033  0.1934 -0.0998
 5636TIP3    H138323   6.739   3.565   4.178 -1.5001  0.9093 -1.0479
 5636TIP3    H238324   6.645   3.564   4.297  0.1936  0.4022  0.3304
 5637TIP3   OH238325   1.667   3.126   5.166  0.5348  0.9004  0.0548
 5637TIP3    H138326   1.583   3.123   5.211  0.8112  2.0966  0.6745
 5637TIP3    H238327   1.712   3.202   5.202  1.8307  0.3768 -0.3741
 5638TIP3   OH238328   2.457   6.587   1.731  0.4555 -0.0087 -0.2637
 5638TIP3    H138329   2.452   6.517   1.666 -0.3590 -0.7936  0.6291
 5638TIP3    H238330   2.379   6.640   1.715 -0.0503 -0.5375  0.4538
 5639TIP3   OH238331   5.370   3.563   1.208 -0.2467 -0.3484  0.3254
 5639TIP3    H138332   5.392   3.472   1.187  2.6940  0.6006 -1.3566
 5639TIP3    H238333   5.287   3.558   1.256  0.0053 -3.9068  0.6360
 5640TIP3   OH238334   1.067   0.777   3.649 -0.2291 -0.3339  0.3505
 5640TIP3    H138335   1.037   0.865   3.627  1.9946 -0.0744 -2.1154
 5640TIP3    H238336   1.127   0.791   3.723 -1.7263 -0.1705  1.5945
 5641TIP3   OH238337   1.843   6.265   4.779 -0.0928  0.6220 -0.7920
 5641TIP3    H138338   1.872   6.209   4.852 -0.3811  1.5155  0.0299
 5641TIP3    H238339   1.748   6.274   4.793 -0.5402 -0.8790 -2.4717
 5642TIP3   OH238340   0.468   3.045  15.948 -0.1922  0.6312  0.2098
 5642TIP3    H138341   0.528   3.091  15.890 -0.8476  0.8891 -0.2693
 5642TIP3    H238342   0.382   3.082  15.929 -0.4160  0.7380  1.3624
 5643TIP3   OH238343   3.490   2.292   3.761  0.4138 -0.0779 -0.4419
 5643TIP3    H138344   3.492   2.268   3.669  2.2913  1.5604 -0.9213
 5643TIP3    H238345   3.580   2.319   3.781 -0.1178  0.4010  1.6444
 5644TIP3   OH238346   5.184   6.389  11.416  0.2073 -0.4311  1.0755
 5644TIP3    H138347   5.114   6.425  11.361 -0.0703 -0.1885  1.5793
 5644TIP3    H238348   5.257   6.376  11.356  0.0296  0.1695  0.7169
 5645TIP3   OH238349   2.961   5.485   5.142 -0.5100 -0.6601 -0.9789
 5645TIP3    H138350   2.968   5.574   5.107 -1.0500 -0.7301 -1.2864
 5645TIP3    H238351   3.005   5.489   5.227 -1.9673  0.3399 -0.2164
 5646TIP3   OH238352   1.600   0.370   2.977 -0.5043  0.3838 -0.6113
 5646TIP3    H138353   1.621   0.350   3.068  0.8741  0.9178 -0.7901
 5646TIP3    H238354   1.641   0.454   2.961 -2.6047  1.3775 -1.1082
 5647TIP3   OH238355   2.277   1.152   5.510  0.0234 -0.1045 -0.0667
 5647TIP3    H138356   2.247   1.222   5.568 -1.1919 -2.0598  1.8492
 5647TIP3    H238357   2.316   1.088   5.569  0.9177 -1.1418 -1.7271
 5648TIP3   OH238358   1.946   6.058  16.111 -0.0249  1.1604  0.4582
 5648TIP3    H138359   2.020   6.089  16.164  0.8542 -1.2006  0.7178
 5648TIP3    H238360   1.984   6.040  16.026 -0.3159  0.0213  0.5622
 5649TIP3   OH238361   3.187   0.582   2.377  0.1046 -0.0708 -0.3527
 5649TIP3    H138362   3.093   0.577   2.391  0.3703  0.8801  2.6075
 5649TIP3    H238363   3.199   0.646   2.308 -1.4013  0.1628 -0.4156
 5650TIP3   OH238364   3.213   3.426  12.796 -0.3242  0.2660 -0.1904
 5650TIP3    H138365   3.257   3.359  12.743 -0.5761  0.0213 -0.0884
 5650TIP3    H238366   3.209   3.389  12.884 -1.5227 -0.0872 -0.3840
 5651TIP3   OH238367   1.431   1.640   0.469 -0.3704  0.7069  0.2790
 5651TIP3    H138368   1.447   1.734   0.457  1.9209  0.5268  1.2399
 5651TIP3    H238369   1.469   1.620   0.555 -0.4414 -1.1767 -0.0776
 5652TIP3   OH238370   5.213   3.280  14.830  0.7936 -0.4611 -0.1645
 5652TIP3    H138371   5.139   3.333  14.862  1.0354  0.8165 -1.5948
 5652TIP3    H238372   5.194   3.192  14.861 -1.6942 -0.3180 -1.0219
 5653TIP3   OH238373   0.496   5.123  15.878  0.2112  0.1077  0.6580
 5653TIP3    H138374   0.465   5.136  15.788  1.1449 -2.9508 -0.2323
 5653TIP3    H238375   0.583   5.164  15.879  0.7695 -0.9640 -0.3198
 5654TIP3   OH238376   5.753   4.404   3.064  0.3049 -0.0108  0.1467
 5654TIP3    H138377   5.805   4.463   3.010 -0.5587 -0.5206 -1.3148
 5654TIP3    H238378   5.763   4.319   3.022 -1.2799 -0.2071  0.1094
 5655TIP3   OH238379   1.130   2.547   4.119 -0.1416 -0.0310  0.2243
 5655TIP3    H138380   1.039   2.572   4.132 -0.3205 -0.6481  0.1904
 5655TIP3    H238381   1.174   2.628   4.092 -0.6559  0.2882  0.3386
 5656TIP3   OH238382   3.530   2.342  14.502  0.5977  0.0859  0.6512
 5656TIP3    H138383   3.451   2.389  14.474  0.8867  0.7665  0.9493
 5656TIP3    H238384   3.539   2.364  14.594  1.2328  0.1540  0.5747
 5657TIP3   OH238385   5.134   0.232  12.402 -0.4378  0.7635  0.1582
 5657TIP3    H138386   5.172   0.187  12.327  0.3035 -1.0288  1.5528
 5657TIP3    H238387   5.193   0.306  12.418  0.8309 -0.2816  0.4644
 5658TIP3   OH238388   3.397   3.212  11.736  0.1031 -0.3472 -0.2124
 5658TIP3    H138389   3.481   3.167  11.742  1.1287  1.5397  0.7684
 5658TIP3    H238390   3.333   3.148  11.764  1.1118 -2.0147 -1.4917
 5659TIP3   OH238391   2.528   1.233  14.643 -0.0560  0.2395 -0.4211
 5659TIP3    H138392   2.567   1.188  14.718  0.2649 -3.0996 -2.3777
 5659TIP3    H238393   2.591   1.219  14.572 -0.9681  2.1189 -1.6669
 5660TIP3   OH238394   4.774   0.989   3.554  0.4102  0.0952 -0.1734
 5660TIP3    H138395   4.734   0.934   3.487  1.4252  1.1931 -1.7516
 5660TIP3    H238396   4.720   1.069   3.555  1.4571  0.8452 -1.0534
 5661TIP3   OH238397   3.804   4.627  17.004  0.2479  0.4578 -0.1919
 5661TIP3    H138398   3.726   4.597  16.959  0.4357 -0.2870 -0.0292
 5661TIP3    H238399   3.773   4.655  17.090  0.1772  0.0709 -0.0922
 5662TIP3   OH238400   5.487   4.056   0.139 -0.0104 -0.3412 -0.4370
 5662TIP3    H138401   5.512   4.125   0.201  0.8419  0.8068 -1.9788
 5662TIP3    H238402   5.451   3.987   0.194 -0.0123  0.9310  1.2678
 5663TIP3   OH238403   0.423   6.024   6.040 -0.1370 -0.0550 -0.6813
 5663TIP3    H138404   0.367   5.996   5.968  0.1303 -1.1456 -0.4892
 5663TIP3    H238405   0.494   5.960   6.040 -0.9951 -1.0861  1.5879
 5664TIP3   OH238406   2.727   3.950   2.020  0.5473 -0.0199 -0.0267
 5664TIP3    H138407   2.652   3.892   2.008  0.0018  0.6441  0.1250
 5664TIP3    H238408   2.719   4.015   1.951  2.4031 -1.3812 -1.6093
 5665TIP3   OH238409   3.658   3.756   2.312  0.6886  0.3601  0.3995
 5665TIP3    H138410   3.626   3.675   2.352 -0.2225 -0.1607 -1.2634
 5665TIP3    H238411   3.723   3.789   2.373  1.3399 -1.8161  0.9688
 5666TIP3   OH238412   1.471   0.283   1.928 -0.0937  0.1855  0.0543
 5666TIP3    H138413   1.459   0.378   1.935 -1.8479 -0.0520  0.8018
 5666TIP3    H238414   1.395   0.253   1.878 -0.1515 -0.9479  0.7864
 5667TIP3   OH238415   6.510   5.447   3.161 -0.0287 -0.1341 -0.5420
 5667TIP3    H138416   6.464   5.523   3.125 -0.6539 -0.3339 -0.1988
 5667TIP3    H238417   6.454   5.418   3.233  1.5537  0.7142  1.0987
 5668TIP3   OH238418   0.736   6.625  11.233  0.1166 -0.1793 -0.0752
 5668TIP3    H138419   0.802   6.693  11.229 -1.9094  1.8640 -0.7483
 5668TIP3    H238420   0.653   6.672  11.245 -1.8211 -2.1890 -3.7990
 5669TIP3   OH238421   3.262   5.322   1.878  0.2520 -0.6793 -0.1477
 5669TIP3    H138422   3.193   5.261   1.852  0.4741 -0.3551 -1.6034
 5669TIP3    H238423   3.215   5.400   1.910 -0.0343 -1.0990  0.4713
 5670TIP3   OH238424   0.726   6.219  14.004 -0.2595  0.1440  0.4003
 5670TIP3    H138425   0.753   6.172  13.925 -1.5257 -0.9585  0.5955
 5670TIP3    H238426   0.762   6.168  14.076 -0.3598  0.3105  0.5685
 5671TIP3   OH238427   6.290   5.108  11.193 -0.1746 -0.0768 -0.1703
 5671TIP3    H138428   6.285   5.024  11.148 -1.0088  0.4593 -1.1084
 5671TIP3    H238429   6.359   5.156  11.147 -0.2403  0.0440 -0.1437
 5672TIP3   OH238430   3.180   4.009   2.974  0.5097  0.7656  0.0574
 5672TIP3    H138431   3.223   4.093   2.956  2.5305 -0.1335  0.3293
 5672TIP3    H238432   3.139   4.020   3.059  1.0117  1.4012  0.2236
 5673TIP3   OH238433   3.612   6.256  12.013  0.0840 -0.3679  0.7025
 5673TIP3    H138434   3.558   6.334  11.998  0.5670  0.1344  1.4847
 5673TIP3    H238435   3.658   6.275  12.095  2.7594 -0.0384 -0.7547
 5674TIP3   OH238436   6.136   1.193  16.894  0.6532 -0.0698 -0.5532
 5674TIP3    H138437   6.154   1.132  16.823  1.2237 -0.0293 -0.4473
 5674TIP3    H238438   6.155   1.143  16.974 -1.2199 -0.5392 -0.3620
 5675TIP3   OH238439   5.233   3.037  14.578 -0.6207 -0.0464 -0.0890
 5675TIP3    H138440   5.256   2.944  14.579  1.4424  0.3802  2.1883
 5675TIP3    H238441   5.221   3.058  14.485  0.6103 -2.2110 -0.7997
 5676TIP3   OH238442   5.711   0.168   0.391  0.4679  0.0560  0.2893
 5676TIP3    H138443   5.710   0.248   0.337  2.0561  0.5709  0.9352
 5676TIP3    H238444   5.804   0.145   0.395  0.2079 -0.8119  1.5908
 5677TIP3   OH238445   6.250   6.084  11.087  0.1041  0.1171  0.2947
 5677TIP3    H138446   6.304   6.082  11.008 -1.3325  0.6361 -0.7342
 5677TIP3    H238447   6.209   5.997  11.090  0.7565 -0.1886  0.9432
 5678TIP3   OH238448   3.843   5.004   3.060 -0.1273  0.3583  0.5160
 5678TIP3    H138449   3.753   5.037   3.060  0.2986  1.5724 -0.0044
 5678TIP3    H238450   3.889   5.059   2.997  0.4977 -1.6252 -0.8748
 5679TIP3   OH238451   1.022   4.638   4.078  0.0659  0.0849  0.3550
 5679TIP3    H138452   1.085   4.618   4.009  0.9631 -1.6126  1.5888
 5679TIP3    H238453   0.977   4.556   4.094 -2.4312  1.2210 -0.3712
 5680TIP3   OH238454   6.290   5.294  12.173 -0.1279  0.1976  0.2731
 5680TIP3    H138455   6.247   5.379  12.162 -1.1622 -0.5379 -1.8809
 5680TIP3    H238456   6.315   5.292  12.265 -0.8572  2.4696  0.5840
 5681TIP3   OH238457   0.493   5.528   6.473 -0.0557  0.2051  0.4543
 5681TIP3    H138458   0.510   5.439   6.442  1.0412  0.6720 -0.3507
 5681TIP3    H238459   0.579   5.560   6.502  0.3850  2.2566 -2.6458
 5682TIP3   OH238460   6.728   0.875  16.594  1.0600  0.5072  0.4040
 5682TIP3    H138461   6.697   0.960  16.564  0.0735 -0.1170 -0.3878
 5682TIP3    H238462   6.791   0.848  16.527  1.0984  0.4388  0.4665
 5683TIP3   OH238463   1.269   2.308   4.154  0.1589 -0.0053  0.5415
 5683TIP3    H138464   1.232   2.393   4.129  0.3874 -0.7457 -2.8831
 5683TIP3    H238465   1.362   2.325   4.168  0.1580  0.3774  0.1109
 5684TIP3   OH238466   6.641   4.452  10.425  0.0330  0.3374 -0.0677
 5684TIP3    H138467   6.570   4.492  10.374  0.5138 -1.4244 -2.3108
 5684TIP3    H238468   6.596   4.401  10.492 -0.7511  0.7302 -0.2845
 5685TIP3   OH238469   6.707   6.280  13.858 -0.2258  0.9695  0.5487
 5685TIP3    H138470   6.748   6.334  13.791  0.3391 -1.3823 -1.1150
 5685TIP3    H238471   6.613   6.286  13.840 -0.1779  1.4910  0.4747
 5686TIP3   OH238472   5.772   1.959   5.180  0.3077  0.0415 -0.1817
 5686TIP3    H138473   5.812   2.014   5.247  0.4436 -1.8029  1.3654
 5686TIP3    H238474   5.821   1.978   5.100  2.1930  0.1391  0.9466
 5687TIP3   OH238475   3.710   1.661   0.583  0.0368 -0.2847  0.6731
 5687TIP3    H138476   3.787   1.612   0.554  0.7232  0.7217  0.7574
 5687TIP3    H238477   3.707   1.649   0.678  0.3827  0.0782  0.7320
 5688TIP3   OH238478   5.179   4.870  14.082 -0.1233  0.5466 -0.3090
 5688TIP3    H138479   5.089   4.839  14.095  0.0995  0.1364  0.3619
 5688TIP3    H238480   5.170   4.955  14.039 -0.7782 -0.1207 -1.5360
 5689TIP3   OH238481   6.240   1.978  13.586  0.1889  0.2330 -0.2244
 5689TIP3    H138482   6.235   1.887  13.557  0.7753  0.8985 -2.6257
 5689TIP3    H238483   6.324   1.984  13.631  0.3167 -0.3457 -0.3772
 5690TIP3   OH238484   6.243   1.718   1.183  0.0752 -0.0189 -0.0794
 5690TIP3    H138485   6.148   1.706   1.185  0.1831 -0.9056  1.8791
 5690TIP3    H238486   6.273   1.686   1.268  2.1614  0.0451 -0.7424
 5691TIP3   OH238487   1.395   2.561  10.939  0.5543  0.0229  0.2817
 5691TIP3    H138488   1.469   2.589  10.885 -1.5995  2.2711 -1.7228
 5691TIP3    H238489   1.347   2.500  10.883 -0.5209  0.6328  0.5359
 5692TIP3   OH238490   2.406   5.042  17.256  0.2018 -0.1165 -0.7124
 5692TIP3    H138491   2.418   5.066  17.347 -3.2924 -2.5705  0.5914
 5692TIP3    H238492   2.333   5.096  17.226 -1.4090 -2.1532 -0.6651
 5693TIP3   OH238493   0.428   6.445   6.973  0.0353  0.1035 -0.3864
 5693TIP3    H138494   0.394   6.521   7.020  3.1271  1.3358  0.1469
 5693TIP3    H238495   0.365   6.375   6.991 -0.8648  1.4994  2.5239
 5694TIP3   OH238496   5.279   4.597  15.240  0.4153  0.5956 -0.2638
 5694TIP3    H138497   5.292   4.680  15.285 -0.7861 -0.2840  1.8464
 5694TIP3    H238498   5.254   4.622  15.151 -0.1035  2.4840  0.3654
 5695TIP3   OH238499   4.627   3.021   4.524  0.0781  0.1241 -0.0265
 5695TIP3    H138500   4.667   2.957   4.465  0.0665 -0.2212  0.3404
 5695TIP3    H238501   4.533   3.010   4.510  0.0608 -0.2591  0.3683
 5696TIP3   OH238502   0.286   1.659  10.803  0.6347 -0.3020  0.3591
 5696TIP3    H138503   0.337   1.579  10.817 -0.0960 -0.9186 -0.3671
 5696TIP3    H238504   0.197   1.634  10.830  0.6547  0.6869  1.4024
 5697TIP3   OH238505   3.188   3.670   6.555 -0.1635 -0.4037 -0.0026
 5697TIP3    H138506   3.174   3.614   6.631  1.3508  1.2205  1.5936
 5697TIP3    H238507   3.194   3.610   6.481 -2.0255 -2.0235  1.0723
 5698TIP3   OH238508   2.930   2.123   5.431  0.3775 -0.3414  0.7616
 5698TIP3    H138509   3.021   2.102   5.453  0.4013 -1.0311  0.0523
 5698TIP3    H238510   2.920   2.094   5.341 -0.6700 -0.6676  0.9712
 5699TIP3   OH238511   4.467   5.163   4.207  0.1931 -0.1219  0.2924
 5699TIP3    H138512   4.507   5.119   4.132 -0.1662 -1.4754  0.8684
 5699TIP3    H238513   4.396   5.105   4.234 -1.3401  1.5977  0.1235
 5700TIP3   OH238514   5.457   0.895  14.539  0.1603 -0.2341  0.7108
 5700TIP3    H138515   5.549   0.878  14.559  0.7077  1.2484 -0.3852
 5700TIP3    H238516   5.458   0.928  14.449 -1.6596 -1.9463 -0.0142
 5701TIP3   OH238517   5.830   6.229  16.558 -0.4214 -0.9053  0.1440
 5701TIP3    H138518   5.802   6.312  16.597  0.2351 -0.3256 -0.5791
 5701TIP3    H238519   5.925   6.230  16.567 -0.3816 -1.4007 -0.2131
 5702TIP3   OH238520   2.695   0.244  15.935 -0.4025  0.0041 -0.3547
 5702TIP3    H138521   2.634   0.316  15.947 -0.3774  0.5496 -2.9254
 5702TIP3    H238522   2.769   0.282  15.887  1.4308 -0.9399  1.5101
 5703TIP3   OH238523   6.540   5.227  12.303 -0.5883  0.1088  0.1848
 5703TIP3    H138524   6.460   5.185  12.335 -0.1737  0.1398  1.3031
 5703TIP3    H238525   6.606   5.159  12.307 -0.6343 -0.0450 -1.1642
 5704TIP3   OH238526   2.254   5.162   0.461 -0.0947 -0.2287 -0.0583
 5704TIP3    H138527   2.330   5.163   0.519 -0.0819 -0.2598 -0.0745
 5704TIP3    H238528   2.180   5.147   0.520 -0.0531 -0.5296 -0.0835
 5705TIP3   OH238529   4.313   2.442  15.324 -0.2183  0.2492 -0.2011
 5705TIP3    H138530   4.356   2.494  15.257 -1.5835  1.7410  0.0174
 5705TIP3    H238531   4.236   2.405  15.281  0.7128 -1.6247 -0.3418
 5706TIP3   OH238532   1.059   6.641  15.176  0.0670 -0.0764 -0.0161
 5706TIP3    H138533   1.108   6.591  15.111  1.0892  0.5294  0.2592
 5706TIP3    H238534   1.041   6.578  15.246  1.1826 -0.1393  0.2428
 5707TIP3   OH238535   4.597   3.790  12.504 -0.0135  0.1514 -0.9632
 5707TIP3    H138536   4.668   3.725  12.500 -0.1470  0.0083 -1.0019
 5707TIP3    H238537   4.598   3.821  12.595 -0.9766 -1.0539 -0.5256
 5708TIP3   OH238538   1.430   2.613   5.795  0.4249  0.1465  0.0632
 5708TIP3    H138539   1.481   2.669   5.854  0.3079  0.2033  0.1087
 5708TIP3    H238540   1.412   2.668   5.719 -1.7625  0.9893  1.1016
 5709TIP3   OH238541   2.023   5.926  11.974  0.1469  0.3860  0.7337
 5709TIP3    H138542   2.109   5.939  11.934  0.2522 -1.7905  0.1311
 5709TIP3    H238543   2.028   5.838  12.012 -1.3684  0.7676  1.8986
 5710TIP3   OH238544   1.509   1.449  16.568  0.5085 -0.3807  0.4775
 5710TIP3    H138545   1.439   1.470  16.630  0.8734 -1.7470  1.3991
 5710TIP3    H238546   1.467   1.395  16.502  0.5810 -0.8194  0.7832
 5711TIP3   OH238547   4.442   4.472   0.052 -0.1226  0.4552 -0.0858
 5711TIP3    H138548   4.359   4.515   0.028  0.1299 -0.4338 -2.9507
 5711TIP3    H238549   4.506   4.543   0.054 -0.4720  0.7910 -0.5253
 5712TIP3   OH238550   0.711   3.836   5.805 -0.2271 -0.1058 -0.5498
 5712TIP3    H138551   0.617   3.852   5.795  0.1957  1.3047 -3.1679
 5712TIP3    H238552   0.719   3.740   5.810 -1.7269 -0.2875 -1.1723
 5713TIP3   OH238553   0.726   3.846   2.202 -0.1389  0.3654 -0.1611
 5713TIP3    H138554   0.641   3.865   2.241  0.2183  0.4577  0.6164
 5713TIP3    H238555   0.709   3.837   2.109 -1.2122 -0.9323  0.1338
 5714TIP3   OH238556   1.378   1.383  14.975 -0.3428 -0.1841 -0.2173
 5714TIP3    H138557   1.315   1.392  14.904  0.3186  0.5148 -0.7228
 5714TIP3    H238558   1.335   1.323  15.037 -0.5025 -1.6402 -1.6662
 5715TIP3   OH238559   5.695   4.015  11.692  0.6182 -0.2866 -0.4528
 5715TIP3    H138560   5.602   4.028  11.675  0.4211 -2.2506 -1.0513
 5715TIP3    H238561   5.738   4.037  11.610  0.8868  2.0999  0.2537
 5716TIP3   OH238562   4.248   4.885  17.215  0.2616 -0.7518  0.3963
 5716TIP3    H138563   4.169   4.940  17.215 -0.8189 -2.2259 -0.1734
 5716TIP3    H238564   4.320   4.946  17.234 -0.9988  0.6446  0.9081
 5717TIP3   OH238565   2.126   2.714  13.381  0.1731 -0.3444 -0.3442
 5717TIP3    H138566   2.216   2.684  13.393  0.8877  1.6188 -0.3548
 5717TIP3    H238567   2.073   2.658  13.438  1.6588 -0.2961  1.1353
 5718TIP3   OH238568   2.067   1.708  11.203 -0.2397  0.1840 -0.1289
 5718TIP3    H138569   2.055   1.795  11.165  0.3846 -0.5084 -2.0300
 5718TIP3    H238570   2.009   1.652  11.152  0.6149 -0.7815 -0.0755
 5719TIP3   OH238571   0.635   2.449   1.819 -0.3421 -0.5757  0.7623
 5719TIP3    H138572   0.639   2.481   1.729  1.1876 -0.5873  0.8035
 5719TIP3    H238573   0.685   2.514   1.870 -2.7900  0.4995  1.9639
 5720TIP3   OH238574   2.333   3.971   1.101 -0.2313 -0.0863 -0.3286
 5720TIP3    H138575   2.385   3.891   1.094 -1.2249 -0.6319 -2.0402
 5720TIP3    H238576   2.354   4.020   1.022  0.1253  1.2237  0.5555
 5721TIP3   OH238577   0.494   4.695  13.328 -1.0656  0.0576  0.2266
 5721TIP3    H138578   0.449   4.613  13.345 -1.9640  0.4223 -0.3205
 5721TIP3    H238579   0.522   4.726  13.414  2.4283 -2.5097  0.2248
 5722TIP3   OH238580   4.550   6.241  11.822  0.0402  0.3148  0.2850
 5722TIP3    H138581   4.519   6.248  11.912 -0.6790 -1.2845  0.1901
 5722TIP3    H238582   4.560   6.147  11.807  0.5090  0.5752 -1.1879
 5723TIP3   OH238583   0.921   0.192   0.890  0.5765 -0.2148  0.2128
 5723TIP3    H138584   0.886   0.144   0.965  1.3517  0.2750  0.8991
 5723TIP3    H238585   0.981   0.256   0.928  0.6413  0.3399 -0.7943
 5724TIP3   OH238586   4.644   2.754  12.371 -1.0478 -0.5256  0.8329
 5724TIP3    H138587   4.633   2.848  12.386 -0.8995 -0.2899 -0.3680
 5724TIP3    H238588   4.554   2.719  12.370 -1.3341  0.1039 -1.4409
 5725TIP3   OH238589   6.015   5.055  15.104  0.5278  0.4733 -0.3498
 5725TIP3    H138590   6.062   4.973  15.122  1.0597  0.3211 -2.2106
 5725TIP3    H238591   5.939   5.029  15.053  1.0931  1.1533 -1.6115
 5726TIP3   OH238592   3.551   2.975   4.666 -0.2172 -0.0692  0.6134
 5726TIP3    H138593   3.476   3.011   4.713 -0.3038  0.7294 -0.1188
 5726TIP3    H238594   3.627   3.016   4.707 -0.3194  1.0429 -0.2734
 5727TIP3   OH238595   1.664   0.503  15.248  0.6832  0.7144 -0.4580
 5727TIP3    H138596   1.668   0.421  15.299  0.8575 -0.5217 -2.3587
 5727TIP3    H238597   1.730   0.560  15.290 -0.8455  0.7175  2.1726
 5728TIP3   OH238598   0.043   2.620   0.655 -0.3473  0.1164 -0.3446
 5728TIP3    H138599   0.133   2.600   0.631 -0.5853  0.7055 -1.8517
 5728TIP3    H238600   0.031   2.581   0.742  0.8790 -1.3056 -0.7899
 5729TIP3   OH238601   2.126   4.807   4.869 -0.0050 -0.5299 -0.0464
 5729TIP3    H138602   2.179   4.883   4.844 -1.8058  0.8752  0.2338
 5729TIP3    H238603   2.169   4.733   4.824  2.5891  0.3652  0.7402
 5730TIP3   OH238604   5.459   4.125   2.701  0.5304  0.3541  0.4859
 5730TIP3    H138605   5.539   4.078   2.723 -0.3011 -0.8832  0.9540
 5730TIP3    H238606   5.419   4.146   2.785  0.4576  1.1655  0.2591
 5731TIP3   OH238607   1.685   1.460  13.059  0.0684 -0.2565 -0.2762
 5731TIP3    H138608   1.749   1.406  13.105  0.2926 -0.0594 -0.3534
 5731TIP3    H238609   1.602   1.415  13.072  0.2396 -0.5733 -0.2660
 5732TIP3   OH238610   2.206   0.881  11.672  0.5761 -0.2027 -0.3842
 5732TIP3    H138611   2.261   0.852  11.745  0.0600  1.2191  0.6161
 5732TIP3    H238612   2.136   0.931  11.713  0.7577  1.3917 -1.8983
 5733TIP3   OH238613   4.296   2.689  11.606  0.1408 -0.0730 -0.7162
 5733TIP3    H138614   4.312   2.759  11.669  0.8760 -0.7858 -0.0907
 5733TIP3    H238615   4.368   2.627  11.619 -1.0111 -1.4473 -0.5595
 5734TIP3   OH238616   3.082   6.221   5.877 -0.0428  0.4123  0.0060
 5734TIP3    H138617   3.146   6.165   5.921 -0.7413  1.5760  2.7469
 5734TIP3    H238618   3.005   6.165   5.865  0.5142 -0.2151 -0.7306
 5735TIP3   OH238619   0.080   4.117   4.571  0.3905 -0.2297 -0.0147
 5735TIP3    H138620  -0.014   4.101   4.576  0.3961 -0.1591  0.3342
 5735TIP3    H238621   0.092   4.203   4.610  0.4711  0.2419 -1.0512
 5736TIP3   OH238622   6.285   0.012   1.666  0.1838  0.5574 -0.2890
 5736TIP3    H138623   6.310   0.097   1.631  0.9162 -0.2625 -1.8032
 5736TIP3    H238624   6.296   0.022   1.761 -2.5636  3.0647 -0.0508
 5737TIP3   OH238625   4.000   2.283   3.953 -0.1310  0.7344  0.3874
 5737TIP3    H138626   3.930   2.339   3.985  0.8623  2.7901 -0.8712
 5737TIP3    H238627   4.063   2.280   4.024 -0.5604  0.5153  0.7663
 5738TIP3   OH238628   6.272   4.789   3.047  0.0234  0.1089 -0.0807
 5738TIP3    H138629   6.278   4.842   3.126 -0.4390  0.2771 -0.1555
 5738TIP3    H238630   6.178   4.779   3.033  0.0819  1.1281 -1.3134
 5739TIP3   OH238631   0.407   1.363  14.151 -0.5741 -0.6256 -0.3113
 5739TIP3    H138632   0.408   1.387  14.059 -0.7738 -1.8024 -0.6341
 5739TIP3    H238633   0.328   1.404  14.186 -0.6289 -0.3866 -0.7214
 5740TIP3   OH238634   0.199   5.722   2.352 -0.0073  0.0581 -0.0131
 5740TIP3    H138635   0.151   5.747   2.431  1.1985 -0.1714  0.8350
 5740TIP3    H238636   0.132   5.693   2.290 -0.9189 -0.7871  1.3125
 5741TIP3   OH238637   6.040   6.306  15.889  0.1909  0.5655 -0.6781
 5741TIP3    H138638   6.093   6.259  15.953 -0.4297  0.6800 -0.0638
 5741TIP3    H238639   6.051   6.257  15.808  0.0148 -0.3179 -0.1855
 5742TIP3   OH238640   1.059   4.226  14.059  0.2774 -0.5395 -0.5759
 5742TIP3    H138641   0.995   4.205  14.127  0.7575 -2.2070 -0.6012
 5742TIP3    H238642   1.007   4.260  13.986 -0.1937  1.9846  0.8194
 5743TIP3   OH238643   5.396   5.769  14.227  0.3277  0.2248  0.1135
 5743TIP3    H138644   5.478   5.817  14.222  0.0027  0.7650 -0.1858
 5743TIP3    H238645   5.358   5.778  14.139 -0.8596  1.4553  0.7213
 5744TIP3   OH238646   2.254   3.747   4.520  0.3855  0.4184  0.7997
 5744TIP3    H138647   2.334   3.725   4.472  1.2183 -0.3655  2.4769
 5744TIP3    H238648   2.282   3.811   4.586 -0.2187 -0.3714  1.8468
 5745TIP3   OH238649   2.792   2.383  16.754  0.2761  0.1815  0.5057
 5745TIP3    H138650   2.854   2.310  16.755  2.9318  2.1667 -1.4967
 5745TIP3    H238651   2.821   2.441  16.825 -0.6247  0.1756  0.8888
 5746TIP3   OH238652   6.160   2.707  12.509  0.2174 -0.1517  0.1791
 5746TIP3    H138653   6.210   2.739  12.433  2.0248 -0.6229  1.1235
 5746TIP3    H238654   6.227   2.685  12.574 -1.2817  0.1783  1.9046
 5747TIP3   OH238655   0.043   3.868   4.342  0.0368 -0.2474 -0.0069
 5747TIP3    H138656   0.008   3.779   4.349 -0.4918 -0.0902 -0.5382
 5747TIP3    H238657   0.081   3.873   4.254 -1.4884  0.5699 -0.6691
 5748TIP3   OH238658   1.152   4.045   4.737  0.4751  0.1045 -0.0427
 5748TIP3    H138659   1.218   4.088   4.791  1.5061  1.2724 -2.1151
 5748TIP3    H238660   1.091   4.115   4.713  1.0969  0.0586 -1.8983
 5749TIP3   OH238661   0.342   1.840  11.006  0.0250  0.1584  0.9476
 5749TIP3    H138662   0.386   1.761  10.975 -0.0458  0.0654  1.0854
 5749TIP3    H238663   0.357   1.904  10.936 -3.1741 -1.0421 -1.0455
 5750TIP3   OH238664   0.551   4.196  11.703  0.0923  0.2185  0.1397
 5750TIP3    H138665   0.461   4.163  11.695  0.0755  0.6498 -1.8021
 5750TIP3    H238666   0.595   4.164  11.625  1.4742  0.5473  0.7621
 5751TIP3   OH238667   4.049   0.792  10.746  0.2427  0.3966 -0.2407
 5751TIP3    H138668   4.091   0.849  10.682 -0.8490  0.3767 -1.0081
 5751TIP3    H238669   4.099   0.804  10.826  1.9355  0.0750 -1.2131
 5752TIP3   OH238670   5.041   4.394  11.661  0.2735 -0.7079  0.3660
 5752TIP3    H138671   5.029   4.346  11.580  1.9307 -2.0141  0.8497
 5752TIP3    H238672   5.109   4.459  11.641 -0.9258  0.5196  0.1177
 5753TIP3   OH238673   2.725   4.757  12.454  0.4929 -0.0487  0.4214
 5753TIP3    H138674   2.722   4.848  12.423  0.4172  0.6175  2.2575
 5753TIP3    H238675   2.634   4.730  12.455  0.4257  0.1819  0.7517
 5754TIP3   OH238676   5.968   1.042   4.943  0.1248 -0.6006 -0.0033
 5754TIP3    H138677   5.882   1.082   4.956  0.3832 -0.0868  0.1660
 5754TIP3    H238678   5.954   0.949   4.956 -0.1645 -0.3970  1.3022
 5755TIP3   OH238679   0.787   1.528   1.685 -0.3131  0.3580 -0.0331
 5755TIP3    H138680   0.759   1.596   1.623 -2.1148 -1.0828 -0.9031
 5755TIP3    H238681   0.736   1.451   1.660 -1.2891 -0.2422  3.3974
 5756TIP3   OH238682   4.397   5.656   2.630 -0.2463  0.0984  0.2214
 5756TIP3    H138683   4.310   5.681   2.598 -0.0586  0.8500  0.2866
 5756TIP3    H238684   4.454   5.665   2.554 -0.8566 -4.5924 -1.1639
 5757TIP3   OH238685   3.728   0.504  14.151 -0.3593 -0.5352 -0.2884
 5757TIP3    H138686   3.650   0.497  14.206 -1.2707 -0.7140 -1.5557
 5757TIP3    H238687   3.770   0.419  14.156  1.0894  0.2411  2.2461
 5758TIP3   OH238688   3.700   5.966   5.647  0.6777 -0.1803 -0.0657
 5758TIP3    H138689   3.680   5.975   5.554 -1.8001 -0.1096  0.3895
 5758TIP3    H238690   3.673   5.877   5.669 -1.2989  0.6276  1.0635
 5759TIP3   OH238691   2.289   1.698   1.586  0.2945 -0.3198  0.3381
 5759TIP3    H138692   2.313   1.715   1.495  0.2518 -1.0657  0.1831
 5759TIP3    H238693   2.320   1.775   1.634 -2.0830  1.4163 -0.6742
 5760TIP3   OH238694   1.298   1.730  15.700 -0.4126  0.1847  0.2325
 5760TIP3    H138695   1.284   1.824  15.708  0.5710  0.3157  0.5140
 5760TIP3    H238696   1.268   1.694  15.784 -0.2936  0.3062  0.3261
 5761TIP3   OH238697   2.406   4.452   4.414 -0.3348 -0.5687 -0.2834
 5761TIP3    H138698   2.425   4.512   4.486 -2.0585  0.2240 -0.4308
 5761TIP3    H238699   2.319   4.417   4.434 -0.5708 -0.8383 -1.6426
 5762TIP3   OH238700   5.664   2.713  12.269 -0.3058 -0.0944 -0.0889
 5762TIP3    H138701   5.724   2.754  12.208 -1.3717  1.8720  0.0934
 5762TIP3    H238702   5.658   2.621  12.240  1.2425  0.1463 -1.2636
 5763TIP3   OH238703   5.221   4.659  16.820 -0.6283 -0.2378  0.5411
 5763TIP3    H138704   5.234   4.564  16.813  0.9623  0.0580 -1.3015
 5763TIP3    H238705   5.135   4.674  16.781  0.1642 -0.7225 -1.5383
 5764TIP3   OH238706   0.775   3.784  16.252  0.0075 -0.5263  0.6844
 5764TIP3    H138707   0.753   3.708  16.198 -1.4621 -1.8246  2.9575
 5764TIP3    H238708   0.728   3.770  16.334 -0.4278  2.9258  1.1778
 5765TIP3   OH238709   2.019   4.747   6.371  0.2665  0.4275 -0.5285
 5765TIP3    H138710   1.944   4.741   6.430  0.8760 -0.7371  0.1969
 5765TIP3    H238711   2.089   4.783   6.426  0.3269  1.1799 -1.0966
 5766TIP3   OH238712   2.955   6.320  15.619 -0.2040 -0.8227  0.3496
 5766TIP3    H138713   2.977   6.373  15.542 -0.7421 -0.2411  0.5869
 5766TIP3    H238714   2.987   6.371  15.693  0.6773 -1.5704  0.5049
 5767TIP3   OH238715   1.818   2.832   4.735 -0.0708  0.8374 -0.1147
 5767TIP3    H138716   1.868   2.904   4.775 -0.9250  1.3269  0.1139
 5767TIP3    H238717   1.794   2.865   4.648 -0.5351  0.8751  0.0224
 5768TIP3   OH238718   6.539   3.128   4.228  0.5515  0.0445  0.5480
 5768TIP3    H138719   6.495   3.213   4.227  0.0976 -0.1806 -0.2757
 5768TIP3    H238720   6.470   3.066   4.253  0.5626 -0.2297 -0.0808
 5769TIP3   OH238721   6.261   4.655  11.219 -0.2513  0.3572 -0.5065
 5769TIP3    H138722   6.260   4.749  11.202 -0.0794  0.2368 -1.2225
 5769TIP3    H238723   6.277   4.648  11.313 -0.2824  1.0419 -0.4448
 5770TIP3   OH238724   1.574   1.469   1.702  0.4321  0.1352  0.7280
 5770TIP3    H138725   1.504   1.449   1.763  1.3285  1.6428  2.3461
 5770TIP3    H238726   1.654   1.449   1.750  1.1728 -0.3527 -0.6285
 5771TIP3   OH238727   0.779   0.423   1.165  0.2064  0.0474  0.1332
 5771TIP3    H138728   0.775   0.329   1.182 -0.7895  0.2661  1.2424
 5771TIP3    H238729   0.856   0.453   1.213 -0.4891  0.0649  1.2665
 5772TIP3   OH238730   2.730   0.248  12.523 -0.0431 -0.6475  0.4613
 5772TIP3    H138731   2.720   0.269  12.431 -3.9622  0.2163  0.8958
 5772TIP3    H238732   2.723   0.152  12.527 -0.7932 -0.6279 -0.1093
 5773TIP3   OH238733   1.980   0.339  11.261 -0.0712  0.1523 -0.3699
 5773TIP3    H138734   2.068   0.347  11.224  0.4887  1.0889  1.0553
 5773TIP3    H238735   1.981   0.398  11.337 -1.3202 -1.2212  0.7733
 5774TIP3   OH238736   1.141   0.378   0.098  0.3049  0.0919  0.3492
 5774TIP3    H138737   1.170   0.374   0.007 -0.7187  2.5107 -0.1525
 5774TIP3    H238738   1.052   0.343   0.096 -0.2387  1.4488  0.1339
 5775TIP3   OH238739   6.414   3.552   3.576 -0.4709 -0.9529 -0.6676
 5775TIP3    H138740   6.495   3.584   3.536 -1.0814  2.7770  0.6894
 5775TIP3    H238741   6.346   3.575   3.513 -0.9385  0.7106  0.3907
 5776TIP3   OH238742   1.944   3.851   3.731 -0.1821 -0.4440  0.2077
 5776TIP3    H138743   1.981   3.935   3.759 -0.6182 -0.5149  1.0006
 5776TIP3    H238744   1.927   3.864   3.637  0.0136  0.2545  0.2577
 5777TIP3   OH238745   5.854   4.327  13.181  0.0551 -0.0746 -0.1208
 5777TIP3    H138746   5.908   4.249  13.195  0.7840  0.0784 -1.9208
 5777TIP3    H238747   5.914   4.394  13.151 -0.3532  1.6474  2.5109
 5778TIP3   OH238748   0.149   2.944  14.092 -0.0422  0.1144  0.0022
 5778TIP3    H138749   0.083   2.874  14.089  0.5230 -0.4816  0.9732
 5778TIP3    H238750   0.135   2.986  14.177  1.4273 -0.6460  0.6583
 5779TIP3   OH238751   3.885   6.141  16.307  0.3904  0.1638  0.0520
 5779TIP3    H138752   3.913   6.063  16.259  1.0292 -0.9319  2.1223
 5779TIP3    H238753   3.827   6.108  16.375 -1.9523  1.8810 -0.9622
 5780TIP3   OH238754   6.121   3.146   0.459 -0.6734 -0.3188  0.5325
 5780TIP3    H138755   6.029   3.171   0.465 -0.7052 -0.2877 -0.0092
 5780TIP3    H238756   6.134   3.127   0.366  0.0696  0.4396  0.4787
 5781TIP3   OH238757   2.145   4.146  17.114 -0.7471  0.0187 -0.0760
 5781TIP3    H138758   2.083   4.074  17.109  0.0413 -0.9446  2.5799
 5781TIP3    H238759   2.104   4.208  17.174 -1.2470  1.7174 -2.0366
 5782TIP3   OH238760   4.226   4.960  13.391 -0.5395 -0.0500  0.0238
 5782TIP3    H138761   4.223   4.934  13.483  1.3863  0.2342  0.1880
 5782TIP3    H238762   4.279   4.892  13.349  0.3594  0.9351 -0.4703
 5783TIP3   OH238763   4.314   2.686   4.692 -0.2798  0.3451  0.6204
 5783TIP3    H138764   4.304   2.643   4.607  0.2914  0.0603  0.6896
 5783TIP3    H238765   4.408   2.706   4.697 -0.6109  2.1278  0.3412
 5784TIP3   OH238766   2.689   3.709  15.593  0.6372  0.1941  0.1815
 5784TIP3    H138767   2.635   3.783  15.566 -0.2269  0.7505  3.0646
 5784TIP3    H238768   2.741   3.743  15.666  1.7730 -1.4899  0.2171
 5785TIP3   OH238769   3.136   0.690  13.630 -0.2285  0.1455  0.3889
 5785TIP3    H138770   3.091   0.614  13.666 -1.8021  0.2274 -1.2671
 5785TIP3    H238771   3.107   0.695  13.539  2.6773  0.6025 -0.6260
 5786TIP3   OH238772   5.005   2.156   1.468 -0.4477  0.0404  0.0215
 5786TIP3    H138773   5.097   2.173   1.487 -0.4608  0.2397 -0.0962
 5786TIP3    H238774   4.958   2.229   1.509 -0.8142 -1.5263  2.6361
 5787TIP3   OH238775   3.429   0.155  16.777 -0.4180 -0.2066  0.2357
 5787TIP3    H138776   3.505   0.100  16.757 -0.1595  0.3975 -0.4653
 5787TIP3    H238777   3.463   0.223  16.836 -0.5324 -0.2301  0.3298
 5788TIP3   OH238778   1.827   5.107   5.372 -0.1442 -0.4024 -0.0035
 5788TIP3    H138779   1.766   5.166   5.415  0.5282  1.0192 -0.9248
 5788TIP3    H238780   1.840   5.035   5.434 -0.9528  0.4362  1.1576
 5789TIP3   OH238781   3.355   5.255   3.808  0.7929  0.0909 -0.0764
 5789TIP3    H138782   3.308   5.321   3.756  1.0881  0.2190 -0.1810
 5789TIP3    H238783   3.439   5.296   3.829  1.1007 -0.3653 -0.4021
 5790TIP3   OH238784   5.778   0.386   5.371  0.0483  0.0953 -0.4369
 5790TIP3    H138785   5.818   0.456   5.319  0.0094 -0.2209 -0.8983
 5790TIP3    H238786   5.684   0.393   5.352  0.1679 -0.8837 -1.4920
 5791TIP3   OH238787   3.605   0.705   5.699 -0.0790  0.3246 -0.0776
 5791TIP3    H138788   3.654   0.623   5.691  1.4302  1.0354  1.2805
 5791TIP3    H238789   3.669   0.768   5.733 -1.5990  1.6533  0.4608
 5792TIP3   OH238790   2.813   4.247  16.074 -0.7846  0.1633  0.2952
 5792TIP3    H138791   2.851   4.312  16.014  0.4130 -0.8039 -0.0508
 5792TIP3    H238792   2.860   4.261  16.156  1.0576 -1.5854 -0.3657
 5793TIP3   OH238793   1.554   5.084   2.603  0.3599 -0.1272  0.0805
 5793TIP3    H138794   1.557   5.030   2.524  0.9011  1.3268 -0.9156
 5793TIP3    H238795   1.597   5.165   2.579 -0.6378  0.8643  1.4890
 5794TIP3   OH238796   1.586   2.740  15.832 -0.5434 -0.0103  0.0674
 5794TIP3    H138797   1.530   2.779  15.765  0.6990  0.5896 -0.6561
 5794TIP3    H238798   1.530   2.734  15.909 -1.7677  0.0141 -0.7945
 5795TIP3   OH238799   5.474   3.591  12.353  0.0520  0.0021 -0.7193
 5795TIP3    H138800   5.482   3.538  12.433 -0.1046 -0.3300 -0.9231
 5795TIP3    H238801   5.565   3.604  12.324  0.0366 -2.3670 -2.1094
 5796TIP3   OH238802   2.833   3.070  13.976 -0.2908 -0.5931 -0.6950
 5796TIP3    H138803   2.861   3.047  13.887 -0.4073  0.5900 -1.0548
 5796TIP3    H238804   2.738   3.075  13.971 -0.2132  0.8881 -0.8687
 5797TIP3   OH238805   1.982   1.215  10.725 -0.2116  0.2012 -0.2063
 5797TIP3    H138806   1.910   1.259  10.681 -2.1166 -0.7719  1.7542
 5797TIP3    H238807   1.996   1.264  10.806  1.8667  0.7893 -0.8459
 5798TIP3   OH238808   2.016   4.660   0.325 -0.4507 -0.0568 -0.0486
 5798TIP3    H138809   1.921   4.672   0.318 -0.2990  1.0344 -0.5202
 5798TIP3    H238810   2.029   4.620   0.411 -1.1631  2.5076  1.3829
 5799TIP3   OH238811   4.402   0.635   4.267  0.0100 -0.0603 -0.4692
 5799TIP3    H138812   4.469   0.673   4.324  0.9674 -0.9138 -0.9890
 5799TIP3    H238813   4.346   0.585   4.326 -0.6884  1.3381  0.0859
 5800TIP3   OH238814   3.821   0.287   3.125 -0.1807  0.0984 -0.5799
 5800TIP3    H138815   3.744   0.269   3.072 -1.2084 -0.1677  0.9492
 5800TIP3    H238816   3.863   0.361   3.081 -1.8588  0.9201 -0.8861
 5801TIP3   OH238817   2.418   1.184  13.400 -0.5366  0.4685 -0.4105
 5801TIP3    H138818   2.359   1.245  13.443  0.3449  0.8554  0.2699
 5801TIP3    H238819   2.402   1.100  13.443 -1.2131  0.3785 -0.8332
 5802TIP3   OH238820   1.442   1.147  16.969 -0.6385  0.9236 -0.0534
 5802TIP3    H138821   1.424   1.239  16.949 -0.8992  1.1252  1.0684
 5802TIP3    H238822   1.537   1.139  16.961 -0.3938  1.7510  1.6202
 5803TIP3   OH238823   4.991   3.316   4.473 -0.4612 -0.1879 -0.2906
 5803TIP3    H138824   5.032   3.339   4.557 -0.9983 -0.9626  0.1957
 5803TIP3    H238825   5.018   3.386   4.414  2.1281 -0.9907 -0.1943
 5804TIP3   OH238826   5.767   2.329   4.166  0.4783  0.0061 -0.4032
 5804TIP3    H138827   5.722   2.405   4.203  1.6270  0.1707  0.7443
 5804TIP3    H238828   5.757   2.339   4.071  1.0175  1.8875 -0.3168
 5805TIP3   OH238829   1.433   2.167  12.549  0.2352  0.2196  0.2184
 5805TIP3    H138830   1.454   2.126  12.465  1.0553  0.7289  0.1680
 5805TIP3    H238831   1.341   2.144  12.564  0.3760 -0.7591 -0.3068
 5806TIP3   OH238832   6.768   6.704  13.871 -0.5469 -0.5089 -0.1070
 5806TIP3    H138833   6.746   6.616  13.843  0.2427 -0.8217  0.2128
 5806TIP3    H238834   6.841   6.730  13.815 -0.5960 -0.1677 -0.0188
 5807TIP3   OH238835   2.296   3.836  13.074 -0.2114  0.4842 -0.7557
 5807TIP3    H138836   2.384   3.802  13.088 -0.4103  0.8922  2.1109
 5807TIP3    H238837   2.308   3.930  13.065 -0.2538  0.3947 -1.8465
 5808TIP3   OH238838   3.597   6.716  15.464  0.7783 -0.1220 -0.2858
 5808TIP3    H138839   3.502   6.719  15.470  0.8201  1.6955  0.2054
 5808TIP3    H238840   3.623   6.642  15.519 -0.2699  0.6693  1.3569
 5809TIP3   OH238841   6.587   6.422   1.998  0.0564  0.3726  0.4353
 5809TIP3    H138842   6.613   6.347   1.945 -0.0508  0.0650  0.8183
 5809TIP3    H238843   6.670   6.459   2.029  0.0771 -0.0146  0.8380
 5810TIP3   OH238844   3.667   5.272  16.885  0.0570 -0.0883  0.1609
 5810TIP3    H138845   3.634   5.207  16.947  0.6297 -0.6434 -0.1094
 5810TIP3    H238846   3.685   5.349  16.939 -0.0075 -0.3665  0.5890
 5811TIP3   OH238847   2.700   0.973  15.310 -0.2669 -0.3275 -0.0289
 5811TIP3    H138848   2.765   1.032  15.348 -0.1237 -1.5319  1.6761
 5811TIP3    H238849   2.736   0.953  15.223  0.3125  1.0443 -0.1470
 5812TIP3   OH238850   2.066   4.769  14.464  0.1070  0.2695 -0.5988
 5812TIP3    H138851   2.155   4.776  14.429  0.1029  0.5207 -0.5594
 5812TIP3    H238852   2.069   4.816  14.547  0.0298 -0.0376 -0.4246
 5813TIP3   OH238853   1.394   5.373   2.691 -0.1625  0.4658 -0.4691
 5813TIP3    H138854   1.484   5.385   2.662  0.3309  1.1615  1.2667
 5813TIP3    H238855   1.370   5.456   2.733 -1.1256 -0.1940  0.3453
 5814TIP3   OH238856   1.015   1.029   1.009  0.6757 -0.1273  0.2933
 5814TIP3    H138857   1.062   0.948   1.030  0.7442 -0.4776 -1.1402
 5814TIP3    H238858   0.999   1.070   1.094  1.9824 -0.8887  0.9319
 5815TIP3   OH238859   5.646   5.084  10.880  0.1603  0.1676  0.5678
 5815TIP3    H138860   5.618   5.094  10.789  1.6926 -1.3613 -0.1320
 5815TIP3    H238861   5.635   4.991  10.898  0.1495  0.4024  1.8651
 5816TIP3   OH238862   1.446   1.510   3.879 -0.0925  0.1552  0.6404
 5816TIP3    H138863   1.360   1.506   3.921 -1.0964  0.1069 -1.3085
 5816TIP3    H238864   1.497   1.441   3.923 -1.7947 -1.4268  0.2864
 5817TIP3   OH238865   2.578   1.465  10.977 -0.3121 -0.0843  0.5449
 5817TIP3    H138866   2.498   1.420  11.004  0.5454 -2.4408 -0.5706
 5817TIP3    H238867   2.553   1.514  10.899 -0.6824 -0.7781  0.2203
 5818TIP3   OH238868   4.545   6.553   1.256 -0.1367  0.0004  0.0527
 5818TIP3    H138869   4.499   6.526   1.335 -1.5726  2.6626  0.2439
 5818TIP3    H238870   4.526   6.483   1.193 -0.5295 -1.2460  1.4815
 5819TIP3   OH238871   4.905   0.337  12.687  0.4438  0.3544  0.0961
 5819TIP3    H138872   4.991   0.311  12.654  0.0173 -0.5314 -0.3231
 5819TIP3    H238873   4.855   0.256  12.692 -0.0810  0.7317  1.2248
 5820TIP3   OH238874   2.279   0.054  15.510 -0.0261  0.0447 -0.2228
 5820TIP3    H138875   2.291   0.011  15.425  0.5416  1.1499 -0.7206
 5820TIP3    H238876   2.223   0.128  15.492  1.8592  1.5804 -0.0852
 5821TIP3   OH238877   5.812   4.597   3.850  0.1988  0.4859 -0.0924
 5821TIP3    H138878   5.807   4.524   3.789 -2.4343 -0.1203  0.7176
 5821TIP3    H238879   5.902   4.629   3.843  0.1611  0.1450 -3.8886
 5822TIP3   OH238880   1.368   0.532  15.845 -0.3099  0.1532 -0.2826
 5822TIP3    H138881   1.394   0.497  15.759 -0.1848  0.2273 -0.2765
 5822TIP3    H238882   1.279   0.563  15.832 -0.2787  0.1998 -0.3986
 5823TIP3   OH238883   2.595   0.595   0.385  0.2297 -0.0790 -0.1065
 5823TIP3    H138884   2.689   0.611   0.381  0.0755  0.6631 -1.0689
 5823TIP3    H238885   2.587   0.500   0.391  1.0520 -0.0992  0.8852
 5824TIP3   OH238886   3.793   1.993   5.763  0.3007  0.3711  0.4022
 5824TIP3    H138887   3.852   2.051   5.715 -2.2377  0.6226 -2.7203
 5824TIP3    H238888   3.738   2.051   5.814  0.7307  0.3605  0.8806
 5825TIP3   OH238889   0.944   5.787   0.736  0.1637 -0.0791  0.3521
 5825TIP3    H138890   0.901   5.852   0.792  1.4640 -0.0600  1.3944
 5825TIP3    H238891   0.949   5.708   0.790  0.5497 -0.3710 -0.0982
 5826TIP3   OH238892   0.507   2.965   3.776 -0.0859 -0.4034 -0.3240
 5826TIP3    H138893   0.531   2.902   3.709 -1.0265 -0.4065 -0.6834
 5826TIP3    H238894   0.587   2.979   3.826  0.2881 -1.4154 -0.6131
 5827TIP3   OH238895   3.458   0.096   5.301  0.0232 -0.6261 -0.0434
 5827TIP3    H138896   3.392   0.032   5.274  0.5756 -1.1848 -0.0894
 5827TIP3    H238897   3.457   0.093   5.397  0.8168 -1.5329 -0.0400
 5828TIP3   OH238898   0.517   1.068  15.263 -0.2193 -0.5781 -0.0837
 5828TIP3    H138899   0.516   0.989  15.317  0.1000  0.0759  0.8980
 5828TIP3    H238900   0.533   1.139  15.324 -0.2314  0.2304 -0.9938
 5829TIP3   OH238901   2.227   1.518  16.760 -0.3309  0.0747  0.9129
 5829TIP3    H138902   2.292   1.454  16.731 -0.1034  1.8363 -3.1810
 5829TIP3    H238903   2.146   1.469  16.771  0.5233 -1.3446  1.0246
 5830TIP3   OH238904   5.084   4.348  12.349 -0.2436 -0.3988  0.0347
 5830TIP3    H138905   5.089   4.432  12.304 -0.4619 -0.5915 -0.3482
 5830TIP3    H238906   5.107   4.283  12.283 -2.7017 -0.8823 -0.4287
 5831TIP3   OH238907   3.229   4.635  13.171 -0.0535 -0.6279 -0.0474
 5831TIP3    H138908   3.238   4.730  13.168  0.3589 -0.6284  0.8102
 5831TIP3    H238909   3.194   4.611  13.085 -0.2452  0.3024 -0.2381
 5832TIP3   OH238910   5.422   1.572   0.379  0.1717  0.0177  0.2252
 5832TIP3    H138911   5.433   1.663   0.352  1.5223 -0.6313 -1.5830
 5832TIP3    H238912   5.328   1.564   0.396 -0.2493  1.3587 -1.1978
 5833TIP3   OH238913   4.652   5.905  12.858 -0.4617 -0.7973  0.4558
 5833TIP3    H138914   4.620   5.923  12.947  2.5131 -1.0025  1.7129
 5833TIP3    H238915   4.683   5.990  12.827  0.0666 -1.0183  0.3588
 5834TIP3   OH238916   5.120   2.508  15.591 -0.1450  0.6308 -0.1205
 5834TIP3    H138917   5.174   2.431  15.572 -0.0146  0.7497 -0.2353
 5834TIP3    H238918   5.035   2.488  15.551 -0.0753  0.5956 -0.2515
 5835TIP3   OH238919   5.427   0.548  15.606  0.2086  0.4155  0.8012
 5835TIP3    H138920   5.371   0.474  15.581  1.2478  0.2191 -1.1956
 5835TIP3    H238921   5.514   0.509  15.615  0.8176  1.4143 -0.5142
 5836TIP3   OH238922   1.004   5.630  14.478 -0.4429 -0.1739  0.6975
 5836TIP3    H138923   1.035   5.558  14.423  0.9934  1.0016 -0.1065
 5836TIP3    H238924   1.072   5.697  14.470 -1.8057  1.3431  1.2895
 5837TIP3   OH238925   5.878   5.721  15.241 -0.3781 -0.2791 -0.0500
 5837TIP3    H138926   5.839   5.638  15.267  0.9662 -1.0388 -0.3625
 5837TIP3    H238927   5.833   5.787  15.294 -0.0619 -1.4254  1.7136
 5838TIP3   OH238928   1.644   6.252  14.294 -0.1035  0.4618 -0.6534
 5838TIP3    H138929   1.594   6.328  14.266  0.8892  0.6370 -2.0406
 5838TIP3    H238930   1.730   6.287  14.316 -0.4965  0.1648  1.6617
 5839TIP3   OH238931   1.191   4.368   5.428  0.3551  0.1263 -0.3670
 5839TIP3    H138932   1.110   4.327   5.459  0.6449  0.8215  1.4034
 5839TIP3    H238933   1.207   4.439   5.490  1.6782  0.7704 -1.4031
 5840TIP3   OH238934   2.206   6.200   2.126 -0.4617 -0.3337 -0.3977
 5840TIP3    H138935   2.271   6.256   2.168 -0.2036  0.1105 -1.3577
 5840TIP3    H238936   2.253   6.118   2.108  0.0671  0.2153 -1.6854
 5841TIP3   OH238937   6.002   6.497   4.059 -0.2924 -0.1865 -0.0987
 5841TIP3    H138938   5.994   6.474   4.152  0.4331  0.0509  0.0332
 5841TIP3    H238939   6.065   6.570   4.058 -1.7216  1.0946 -0.6081
 5842TIP3   OH238940   2.667   1.171   3.299  0.2106 -0.5960 -0.2197
 5842TIP3    H138941   2.708   1.179   3.213  1.4879  0.6742  0.4428
 5842TIP3    H238942   2.574   1.185   3.283  0.4459 -0.2369 -1.3728
 5843TIP3   OH238943   2.474   3.212   0.359 -0.0859  0.2487 -0.2965
 5843TIP3    H138944   2.454   3.158   0.435 -0.3934 -0.2254 -0.7044
 5843TIP3    H238945   2.483   3.300   0.394 -1.3308  0.2200  0.1467
 5844TIP3   OH238946   6.680   4.460  15.165 -0.4423 -0.6267 -0.0582
 5844TIP3    H138947   6.745   4.392  15.151  0.2013 -0.2317  0.9223
 5844TIP3    H238948   6.636   4.435  15.246 -2.1517 -1.3614 -1.1387
 5845TIP3   OH238949   1.516   3.742   4.519 -0.1586  0.2386  0.5011
 5845TIP3    H138950   1.532   3.677   4.587  0.9894  1.0897  1.0754
 5845TIP3    H238951   1.505   3.824   4.567  0.4070  0.8049 -0.3134
 5846TIP3   OH238952   6.285   5.931   5.076  0.1187 -0.5959  0.7385
 5846TIP3    H138953   6.235   5.955   4.998 -0.4615 -1.0985  0.9444
 5846TIP3    H238954   6.377   5.933   5.047  0.0538  1.0983  0.5678
 5847TIP3   OH238955   6.531   3.718  16.826  0.0390 -0.4972  0.0749
 5847TIP3    H138956   6.601   3.763  16.875  0.6364 -0.6990 -0.5779
 5847TIP3    H238957   6.533   3.628  16.859  0.1794 -0.5351 -0.0354
 5848TIP3   OH238958   1.512   3.620  13.326 -0.0358 -0.0983 -0.6866
 5848TIP3    H138959   1.431   3.589  13.367 -0.6906 -0.0754 -1.9257
 5848TIP3    H238960   1.569   3.643  13.400 -1.4216  0.5787  0.2156
 5849TIP3   OH238961   2.451   6.622   3.665  0.6015  0.0091 -0.6465
 5849TIP3    H138962   2.447   6.633   3.760  0.1629  2.1105 -0.8685
 5849TIP3    H238963   2.393   6.547   3.647 -1.2354  1.0701  0.5609
 5850TIP3   OH238964   6.018   0.647  14.319  0.6267 -0.2033 -0.3135
 5850TIP3    H138965   6.047   0.725  14.368  0.5264 -0.7008  0.5539
 5850TIP3    H238966   5.957   0.682  14.254  1.2913  0.5579 -0.5430
 5851TIP3   OH238967   6.460   5.675  13.735  0.1390  0.2661 -0.1145
 5851TIP3    H138968   6.535   5.664  13.793 -0.7990 -0.5240  1.0045
 5851TIP3    H238969   6.497   5.674  13.647  1.3566 -0.9159  0.3818
 5852TIP3   OH238970   1.383   5.793   3.765  0.0561  0.1263  0.0541
 5852TIP3    H138971   1.458   5.777   3.821 -0.6471  0.6132  1.1865
 5852TIP3    H238972   1.418   5.842   3.690  0.8778  0.2617  0.5166
 5853TIP3   OH238973   2.832   4.087  13.591 -0.1497  0.5187 -0.2873
 5853TIP3    H138974   2.862   4.099  13.681  3.0454  1.3762 -1.3151
 5853TIP3    H238975   2.911   4.102  13.538 -1.3800 -2.0016 -3.1265
 5854TIP3   OH238976   3.717   6.586  14.297  0.8092 -0.7563  0.4501
 5854TIP3    H138977   3.737   6.679  14.309  0.2073 -0.2574 -1.9159
 5854TIP3    H238978   3.797   6.550  14.256  0.3168 -0.7964 -0.5086
 5855TIP3   OH238979   6.380   2.214  11.221  0.2208 -0.0508 -0.2009
 5855TIP3    H138980   6.299   2.265  11.231  0.4389  0.2386  0.1125
 5855TIP3    H238981   6.386   2.198  11.127 -0.5537 -0.6542 -0.1602
 5856TIP3   OH238982   1.633   5.010   4.464 -0.3255  0.8201 -0.4417
 5856TIP3    H138983   1.699   4.975   4.405 -1.9141  0.2099 -1.9503
 5856TIP3    H238984   1.573   4.936   4.479 -1.2390  1.6343  0.0095
 5857TIP3   OH238985   0.703   6.097  14.728 -0.5126  0.0501  0.2175
 5857TIP3    H138986   0.700   6.027  14.794  2.7762  0.3001  0.7990
 5857TIP3    H238987   0.679   6.176  14.776 -2.2609 -0.3284  0.0351
 5858TIP3   OH238988   0.959   2.060   0.397  0.7410  0.3675  1.0049
 5858TIP3    H138989   0.906   1.987   0.429 -0.2334  1.3706  1.7718
 5858TIP3    H238990   0.901   2.107   0.337  2.0100 -0.5615 -1.0405
 5859TIP3   OH238991   2.877   6.228  16.614  0.1906  0.4882  0.3688
 5859TIP3    H138992   2.963   6.187  16.619 -1.0396 -2.6229 -1.1327
 5859TIP3    H238993   2.861   6.260  16.703  2.5131  0.4578  0.8687
 5860TIP3   OH238994   3.295   1.796  15.645 -0.0846  0.1446  0.2698
 5860TIP3    H138995   3.330   1.808  15.556  0.6087  1.0323  0.6327
 5860TIP3    H238996   3.321   1.708  15.670 -0.2143 -0.0803 -0.3812
 5861TIP3   OH238997   3.303   4.018   3.455 -0.8337 -0.0359 -0.5594
 5861TIP3    H138998   3.388   4.010   3.413 -1.0142 -1.0169 -0.7560
 5861TIP3    H238999   3.250   4.069   3.393 -0.2955  0.9037 -0.2672
 5862TIP3   OH239000   6.615   5.606  15.143 -0.1394  0.3943 -0.0505
 5862TIP3    H139001   6.616   5.689  15.096 -1.2012 -0.0667 -0.9194
 5862TIP3    H239002   6.523   5.594  15.167 -0.2455 -1.2096 -1.1722
 5863TIP3   OH239003   3.927   2.732  14.725 -0.2351  0.0651 -0.1489
 5863TIP3    H139004   3.949   2.811  14.773  0.1875  1.1822 -2.0941
 5863TIP3    H239005   3.943   2.661  14.788 -2.4939  1.5380  2.3313
 5864TIP3   OH239006   5.268   1.261   4.518  0.7689 -0.2025  0.5770
 5864TIP3    H139007   5.204   1.191   4.503  1.2493 -0.4243 -0.5786
 5864TIP3    H239008   5.218   1.331   4.559  0.0415 -0.8227  0.7753
 5865TIP3   OH239009   6.398   2.368   3.006  0.1768 -0.2111 -0.3347
 5865TIP3    H139010   6.355   2.310   3.068  0.0991 -1.3176 -1.3755
 5865TIP3    H239011   6.388   2.324   2.921 -0.3966  1.6215 -1.2649
 5866TIP3   OH239012   5.813   0.676  11.499 -0.3265  0.2454  0.4594
 5866TIP3    H139013   5.900   0.716  11.495  1.0493 -2.4799  0.7901
 5866TIP3    H239014   5.783   0.675  11.409  1.8269 -2.3308 -0.3597
 5867TIP3   OH239015   0.032   4.399   2.505 -0.2325  0.6162  0.9881
 5867TIP3    H139016  -0.058   4.402   2.472  0.3276  1.8173 -0.5418
 5867TIP3    H239017   0.047   4.486   2.543  0.3345  0.4729  1.0991
 5868TIP3   OH239018   1.928   5.833  13.467 -0.2817  0.1841 -0.1295
 5868TIP3    H139019   1.903   5.860  13.556 -2.6817  0.6745 -0.8887
 5868TIP3    H239020   1.849   5.846  13.415  0.4905 -1.9138 -1.9695
 5869TIP3   OH239021   6.107   0.286   1.733 -0.9846 -0.7577  0.8849
 5869TIP3    H139022   6.137   0.290   1.642 -1.5011 -0.9289  0.7029
 5869TIP3    H239023   6.183   0.254   1.782 -0.2595  0.6282  0.7339
 5870TIP3   OH239024   3.070   4.991   0.605  0.1086 -0.3473 -0.1095
 5870TIP3    H139025   3.131   4.959   0.671  0.5691 -0.2728 -0.5006
 5870TIP3    H239026   3.041   4.912   0.559  1.4197 -0.2110 -1.2275
 5871TIP3   OH239027   6.269   0.978   4.404  0.0482  0.1904  0.2879
 5871TIP3    H139028   6.255   1.072   4.403 -0.8467  0.0828  0.9099
 5871TIP3    H239029   6.316   0.962   4.487  1.8490  0.2713 -0.6613
 5872TIP3   OH239030   0.864   2.656   0.137  0.1623 -0.4723  0.0339
 5872TIP3    H139031   0.901   2.715   0.071 -0.5298 -1.1959 -1.0281
 5872TIP3    H239032   0.770   2.673   0.134  0.2222  0.2679  1.6336
 5873TIP3   OH239033   5.717   2.374  10.664  0.1627  0.1490 -0.2284
 5873TIP3    H139034   5.754   2.287  10.651  0.3330  0.0067  1.0415
 5873TIP3    H239035   5.782   2.421  10.717 -0.1686  0.8700 -0.4362
 5874TIP3   OH239036   2.846   3.788   5.534 -0.6058  0.5009  0.4471
 5874TIP3    H139037   2.890   3.704   5.546  2.0103  1.4746 -1.1999
 5874TIP3    H239038   2.755   3.766   5.514 -0.2052 -1.8590  0.9900
 5875TIP3   OH239039   3.768   5.410   1.805  0.1135  0.6651  0.4737
 5875TIP3    H139040   3.797   5.330   1.760  1.6525  2.6246 -2.3018
 5875TIP3    H239041   3.676   5.395   1.823  0.0628 -1.2969 -1.0363
 5876TIP3   OH239042   4.948   5.397   0.240  0.1115 -0.8222  0.1682
 5876TIP3    H139043   4.947   5.306   0.213 -0.3751 -1.2198  1.4600
 5876TIP3    H239044   4.888   5.401   0.315 -0.2420  0.6413 -0.1420
 5877TIP3   OH239045   3.866   3.493   5.458 -0.3252 -0.0608 -0.2379
 5877TIP3    H139046   3.910   3.576   5.439  1.0804  0.1579  3.2059
 5877TIP3    H239047   3.925   3.426   5.425  1.4771  0.3009  1.9982
 5878TIP3   OH239048   5.985   0.872  11.578  0.1895  0.1032  0.2738
 5878TIP3    H139049   5.971   0.934  11.649 -0.3798  0.3145 -0.0127
 5878TIP3    H239050   6.013   0.927  11.504 -1.4689  0.1867 -0.3263
 5879TIP3   OH239051   5.622   2.939   1.426  0.0505 -0.2745  0.2320
 5879TIP3    H139052   5.620   2.976   1.337  0.1383  0.8374  0.6771
 5879TIP3    H239053   5.626   3.015   1.483 -1.7428 -0.9099  1.2772
 5880TIP3   OH239054   4.731   3.278   4.646  0.1525  0.1263  0.2711
 5880TIP3    H139055   4.731   3.191   4.686  1.3484  0.1728  0.4228
 5880TIP3    H239056   4.824   3.299   4.636 -0.1255  1.3788  0.2069
 5881TIP3   OH239057   5.986   3.037  15.268  0.2238 -0.4819 -0.3467
 5881TIP3    H139058   5.985   3.128  15.297  2.9410 -0.4227 -0.1755
 5881TIP3    H239059   5.894   3.014  15.259 -0.5692  1.8902  0.7912
 5882TIP3   OH239060   0.884   3.744   3.009 -0.5160 -0.0786  0.0925
 5882TIP3    H139061   0.807   3.727   2.955 -1.2889 -1.4953  1.5755
 5882TIP3    H239062   0.863   3.823   3.058 -0.6434  0.0536 -0.1746
 5883TIP3   OH239063   2.250   5.491   5.148  0.2274 -0.0965  0.2627
 5883TIP3    H139064   2.177   5.552   5.139 -0.6961 -1.1787  0.2506
 5883TIP3    H239065   2.224   5.415   5.096  2.1777  0.2097 -1.2603
 5884TIP3   OH239066   1.522   2.952   3.809  0.0250 -0.2671  0.1573
 5884TIP3    H139067   1.492   2.958   3.718  0.5794  1.6662  0.0501
 5884TIP3    H239068   1.442   2.939   3.860 -0.4594  0.0140 -0.5143
 5885TIP3   OH239069   2.652   6.220   0.618  0.4094  0.2056  0.2697
 5885TIP3    H139070   2.591   6.175   0.676 -0.0471 -1.1551 -1.1758
 5885TIP3    H239071   2.735   6.219   0.665  0.3609 -1.9874  0.4355
 5886TIP3   OH239072   3.578   3.170   4.286  0.6950 -0.2493  0.0015
 5886TIP3    H139073   3.570   3.192   4.379  1.5744  0.1146 -0.0014
 5886TIP3    H239074   3.557   3.077   4.282  1.1818 -0.3958  0.6474
 5887TIP3   OH239075   5.669   0.248  15.337 -0.3843  0.2399  0.5266
 5887TIP3    H139076   5.730   0.289  15.398  1.4077  0.1396 -1.0830
 5887TIP3    H239077   5.595   0.309  15.333 -0.1947  0.6257  2.1547
 5888TIP3   OH239078   3.452   0.918  15.071  0.6988 -0.1319 -0.3792
 5888TIP3    H139079   3.456   0.835  15.022 -0.0458 -0.1303 -0.4474
 5888TIP3    H239080   3.457   0.985  15.003  1.3899 -0.1086 -0.3186
 5889TIP3   OH239081   4.596   6.409   2.599  0.2575  0.6888  0.4428
 5889TIP3    H139082   4.684   6.402   2.561  2.0445  2.5326  3.7851
 5889TIP3    H239083   4.574   6.319   2.624  1.0559  0.1649 -0.6448
 5890TIP3   OH239084   0.667   0.632   2.384  0.6922  0.6068 -0.1594
 5890TIP3    H139085   0.606   0.684   2.436  0.1357  0.1778 -0.3770
 5890TIP3    H239086   0.748   0.632   2.435  0.0316 -0.1533  0.9176
 5891TIP3   OH239087   0.352   6.440   4.473 -0.0582 -0.3737  0.2796
 5891TIP3    H139088   0.428   6.397   4.433 -0.9516 -0.4329 -1.4332
 5891TIP3    H239089   0.317   6.374   4.533  0.9407 -0.5147  0.7380
 5892TIP3   OH239090   3.528   0.657   3.319  0.1786  0.5513  0.0129
 5892TIP3    H139091   3.581   0.650   3.239 -1.2442 -1.1514 -0.8536
 5892TIP3    H239092   3.479   0.739   3.307 -0.1675  0.2162 -0.9701
 5893TIP3   OH239093   3.832   1.166   0.067 -0.5817  0.1025  0.1434
 5893TIP3    H139094   3.881   1.245   0.045 -2.2962  0.9048 -0.9562
 5893TIP3    H239095   3.787   1.142  -0.014 -1.4875 -0.9834  0.9415
 5894TIP3   OH239096   2.065   3.633  12.013  0.5222 -0.2956 -0.6965
 5894TIP3    H139097   2.034   3.550  12.050 -0.2304 -0.0634 -0.7753
 5894TIP3    H239098   2.029   3.700  12.071 -0.1943  0.0451 -1.5102
 5895TIP3   OH239099   3.458   4.164  13.225 -0.1098  0.2538  0.2249
 5895TIP3    H139100   3.368   4.158  13.194 -0.3683  2.0641  0.4814
 5895TIP3    H239101   3.466   4.095  13.291 -1.1630 -0.2133 -0.1168
 5896TIP3   OH239102   2.955   3.529   5.554 -0.1592  0.2108  0.2166
 5896TIP3    H139103   3.023   3.594   5.570 -1.3651  1.6663 -0.3384
 5896TIP3    H239104   2.986   3.450   5.599  2.3671  0.4843 -0.8821
 5897TIP3   OH239105   2.899   6.753  14.152 -0.3117 -0.1628 -0.7908
 5897TIP3    H139106   2.885   6.668  14.193 -1.0130 -0.2025 -1.0990
 5897TIP3    H239107   2.862   6.816  14.214  2.4012  0.1594  0.6073
 5898TIP3   OH239108   0.661   1.148   5.334 -0.0239 -0.1572 -0.4058
 5898TIP3    H139109   0.672   1.064   5.289  0.3815 -0.0319 -0.5444
 5898TIP3    H239110   0.689   1.213   5.269  0.5037  0.0299  0.0107
 5899TIP3   OH239111   5.066   5.467   3.330  0.2955  0.3055 -0.0830
 5899TIP3    H139112   4.996   5.493   3.270 -0.5670 -0.9421  0.3202
 5899TIP3    H239113   5.028   5.479   3.417  0.5408 -0.4632  0.1386
 5900TIP3   OH239114   4.110   3.170  12.069  0.0586 -0.0347 -0.4085
 5900TIP3    H139115   4.064   3.120  12.137 -0.2315  1.3379  0.4369
 5900TIP3    H239116   4.040   3.215  12.021  0.4184  1.0910  0.0971
 5901TIP3   OH239117   4.107   5.279   6.322 -0.3418  0.1450 -0.2706
 5901TIP3    H139118   4.133   5.362   6.363  0.9803  0.6230 -1.9328
 5901TIP3    H239119   4.174   5.217   6.351 -0.0157  0.2324 -0.8119
 5902TIP3   OH239120   3.336   0.523  11.503  0.6428  0.1430  0.0789
 5902TIP3    H139121   3.313   0.446  11.554 -0.5528  0.8574  0.6601
 5902TIP3    H239122   3.427   0.542  11.526  0.8374 -0.8932  0.1747
 5903TIP3   OH239123   1.254   1.593   2.675  0.6775  0.2451 -0.6089
 5903TIP3    H139124   1.188   1.563   2.738 -0.0425  1.0433 -0.9606
 5903TIP3    H239125   1.310   1.652   2.727  0.4017  0.4885 -0.5822
 5904TIP3   OH239126   2.290   3.602  12.470 -0.5300 -0.3390 -0.0165
 5904TIP3    H139127   2.363   3.565  12.421  0.1702 -0.2571  0.9303
 5904TIP3    H239128   2.233   3.640  12.404  1.4742  1.7223 -0.6938
 5905TIP3   OH239129   1.944   3.414  15.355  0.0293 -0.4642  0.7044
 5905TIP3    H139130   2.039   3.410  15.351 -0.0350 -1.0625 -0.5040
 5905TIP3    H239131   1.920   3.488  15.299 -0.2238 -0.2741  1.0546
 5906TIP3   OH239132   5.496   0.091   6.237  0.1926  0.2341 -0.0099
 5906TIP3    H139133   5.408   0.063   6.262  1.0977 -2.0964  0.8529
 5906TIP3    H239134   5.551   0.068   6.312  1.4980  2.0828 -0.3188
 5907TIP3   OH239135   1.935   2.460   1.685  0.0224  0.0349  0.1327
 5907TIP3    H139136   2.014   2.422   1.647  0.4884 -1.0222  2.0267
 5907TIP3    H239137   1.877   2.475   1.611  1.7539  0.2318 -1.2222
 5908TIP3   OH239138   1.083   3.200   3.562  0.4592  0.2102 -0.1804
 5908TIP3    H139139   1.149   3.188   3.631 -0.8799 -0.4195  1.0386
 5908TIP3    H239140   1.091   3.121   3.508  1.8759  0.9508 -1.0991
 5909TIP3   OH239141   1.731   0.803   1.093  0.1705  0.4470  0.2839
 5909TIP3    H139142   1.650   0.802   1.144  0.6753 -1.5298  1.1208
 5909TIP3    H239143   1.731   0.720   1.046  1.1302  0.9688 -0.6861
 5910TIP3   OH239144   4.782   6.688   6.251  0.7472 -0.0471  0.2150
 5910TIP3    H139145   4.712   6.733   6.299 -0.1025  1.2150 -2.0199
 5910TIP3    H239146   4.847   6.757   6.236  0.3377  0.0102 -1.5620
 5911TIP3   OH239147   2.720   2.484  15.841  0.3484  0.3634 -0.3061
 5911TIP3    H139148   2.790   2.434  15.881  0.1187  0.2075 -0.0961
 5911TIP3    H239149   2.757   2.516  15.758  0.9263  0.9374  0.1651
 5912TIP3   OH239150   0.582   5.033  13.858 -0.3106 -0.5708 -0.4602
 5912TIP3    H139151   0.539   5.033  13.772  0.0468 -0.3237 -0.6388
 5912TIP3    H239152   0.626   5.117  13.863 -0.4655 -0.5167  0.0357
 5913TIP3   OH239153   1.273   0.715  10.522  0.2520  0.1442 -0.1343
 5913TIP3    H139154   1.271   0.779  10.593 -0.6340 -2.0518  1.9461
 5913TIP3    H239155   1.366   0.705  10.501  0.6120  0.2018  1.3323
 5914TIP3   OH239156   5.520   5.695   4.525  0.4518 -0.2371 -0.3477
 5914TIP3    H139157   5.491   5.607   4.548 -0.1096  0.0598  0.0915
 5914TIP3    H239158   5.574   5.683   4.447  1.2253 -1.0870  0.2957
 5915TIP3   OH239159   3.630   0.219   4.444  0.0799  0.2532  0.0813
 5915TIP3    H139160   3.627   0.284   4.374  0.5123  0.1821 -0.0101
 5915TIP3    H239161   3.715   0.176   4.433 -0.3858 -0.6494 -0.1571
 5916TIP3   OH239162   5.939   5.805  12.461  0.0271  0.0464 -0.7622
 5916TIP3    H139163   5.907   5.816  12.371  0.4629  0.4371 -0.8732
 5916TIP3    H239164   5.911   5.885  12.506  1.7732  0.9213 -1.1425
 5917TIP3   OH239165   6.757   4.146   5.127 -0.0552 -0.1265 -0.4489
 5917TIP3    H139166   6.848   4.162   5.102  0.0694  0.4139  0.3331
 5917TIP3    H239167   6.723   4.232   5.152 -0.1296 -0.6444  1.3512
 5918TIP3   OH239168   2.579   1.879  15.064  0.6514 -0.1170 -0.2800
 5918TIP3    H139169   2.604   1.806  15.008 -2.3066 -0.2686 -1.5807
 5918TIP3    H239170   2.496   1.852  15.103  1.4248  0.9982  2.3729
 5919TIP3   OH239171   0.963   2.215   0.158 -0.8932 -0.2350 -0.0959
 5919TIP3    H139172   0.886   2.273   0.161 -0.6146  0.1148  0.4501
 5919TIP3    H239173   0.948   2.161   0.081 -0.4688  1.5277 -1.4942
 5920TIP3   OH239174   0.933   6.549   2.200  0.1320 -0.0516  0.2947
 5920TIP3    H139175   0.866   6.487   2.171  1.0041 -1.1277  0.5319
 5920TIP3    H239176   1.016   6.505   2.183  0.8050  1.2857 -0.0526
 5921TIP3   OH239177   6.687   6.628   4.364 -0.4046 -0.7911 -0.2390
 5921TIP3    H139178   6.706   6.708   4.315  0.0229 -1.6765 -1.5637
 5921TIP3    H239179   6.745   6.562   4.326 -1.0829 -1.8511  0.5083
 5922TIP3   OH239180   1.143   6.339  13.143 -0.2233 -0.2084  0.5838
 5922TIP3    H139181   1.204   6.266  13.143 -0.9177 -0.7987  0.6298
 5922TIP3    H239182   1.075   6.315  13.080 -0.1911  0.6308  0.2074
 5923TIP3   OH239183   3.374   4.637  12.066  0.2179 -0.4469  0.3612
 5923TIP3    H139184   3.309   4.705  12.082 -0.2776 -0.9148  0.3708
 5923TIP3    H239185   3.448   4.661  12.122  0.5459  0.7474 -0.5344
 5924TIP3   OH239186   0.355   2.000  17.199 -0.2406 -0.3266 -0.4921
 5924TIP3    H139187   0.360   1.906  17.217 -0.1407 -0.2930 -0.3424
 5924TIP3    H239188   0.266   2.024  17.222  0.2084 -0.0596  1.0443
 5925TIP3   OH239189   2.589   1.061  14.062  0.5058  0.6459  0.5616
 5925TIP3    H139190   2.598   1.009  14.142 -3.2675 -2.8043 -0.9132
 5925TIP3    H239191   2.634   1.010  13.995 -1.3744  0.3300 -0.5240
 5926TIP3   OH239192   5.714   5.930  15.077  0.4150  0.3042  0.3928
 5926TIP3    H139193   5.746   5.848  15.039  0.1402  0.3467  0.0637
 5926TIP3    H239194   5.785   5.992  15.062  0.2815  0.3361 -0.1119
 5927TIP3   OH239195   5.174   2.584  17.151  0.3567 -0.5915  0.1642
 5927TIP3    H139196   5.209   2.580  17.240 -2.1311 -1.6095  1.1857
 5927TIP3    H239197   5.229   2.523  17.101  2.1915  0.4804  0.8014
 5928TIP3   OH239198   2.558   3.079   3.466 -0.2322 -0.0405 -0.1394
 5928TIP3    H139199   2.642   3.064   3.509 -0.5290 -0.8946  0.1461
 5928TIP3    H239200   2.508   3.132   3.529  0.0255  0.3212 -0.2377
 5929TIP3   OH239201   5.689   5.816  13.917 -0.0763 -0.1572  0.4499
 5929TIP3    H139202   5.660   5.741  13.865 -0.4906  1.1628 -1.3183
 5929TIP3    H239203   5.771   5.844  13.875 -0.9162  1.5295 -0.1669
 5930TIP3   OH239204   4.576   6.759  16.156  0.2242 -0.5116 -0.3576
 5930TIP3    H139205   4.528   6.773  16.075  0.5318 -0.6981 -0.5748
 5930TIP3    H239206   4.615   6.844  16.176  0.5830 -0.5957 -0.6908
 5931TIP3   OH239207   1.163   6.544  11.753 -0.4124  0.2366 -0.0979
 5931TIP3    H139208   1.179   6.637  11.767 -0.1675  0.2732 -0.6071
 5931TIP3    H239209   1.075   6.529  11.789 -0.1798  0.5173  0.6049
 5932TIP3   OH239210   1.709   5.527  11.954  0.1802 -0.5622 -0.4949
 5932TIP3    H139211   1.649   5.598  11.930 -0.9460 -1.8882 -1.8376
 5932TIP3    H239212   1.724   5.538  12.048 -1.2686  0.4758 -0.3582
 5933TIP3   OH239213   5.458   3.669  16.704  0.3996  1.1029 -0.2082
 5933TIP3    H139214   5.517   3.617  16.758  0.9755  2.2618  0.3164
 5933TIP3    H239215   5.381   3.613  16.692  1.0574  0.0784  0.1948
 5934TIP3   OH239216   3.709   3.522   0.317  0.3932  0.4706 -0.0236
 5934TIP3    H139217   3.729   3.489   0.230 -0.2904  0.0049 -0.0137
 5934TIP3    H239218   3.729   3.450   0.376  0.4993  0.6563  0.1701
 5935TIP3   OH239219   3.124   1.073  16.533 -0.4480  0.3115  0.0308
 5935TIP3    H139220   3.186   1.007  16.562 -0.8005 -0.0131  0.0568
 5935TIP3    H239221   3.049   1.023  16.501 -0.0448  0.6505 -1.5219
 5936TIP3   OH239222   3.486   6.220   0.462  0.3928 -0.5524 -0.1411
 5936TIP3    H139223   3.443   6.295   0.504  0.3605  0.4872 -1.9163
 5936TIP3    H239224   3.414   6.169   0.425  0.5265  0.6019 -2.1614
 5937TIP3   OH239225   3.896   4.136   4.846 -0.1096 -0.6513 -0.1608
 5937TIP3    H139226   3.901   4.137   4.751 -0.1130 -1.0024 -0.1658
 5937TIP3    H239227   3.862   4.222   4.869  3.7792  1.1153 -0.2313
 5938TIP3   OH239228   6.740   1.793  11.398  0.0475  0.0489 -0.3475
 5938TIP3    H139229   6.808   1.762  11.339 -1.1408  0.3202 -1.9219
 5938TIP3    H239230   6.677   1.721  11.402  1.0913 -0.8522  2.3482
 5939TIP3   OH239231   0.965   2.060   5.238 -0.3774  0.3158 -0.3304
 5939TIP3    H139232   1.051   2.093   5.211 -0.3817  0.3528 -0.2977
 5939TIP3    H239233   0.926   2.026   5.157 -0.4921  0.6518 -0.4175
 5940TIP3   OH239234   1.319   5.603   1.685 -0.3182 -0.5043  0.3102
 5940TIP3    H139235   1.298   5.515   1.717 -1.1274 -1.0873 -1.6799
 5940TIP3    H239236   1.308   5.598   1.590  2.1144  1.0901 -0.1518
 5941TIP3   OH239237   6.172   1.610   4.176  0.5163  0.2466  0.0380
 5941TIP3    H139238   6.132   1.682   4.128 -0.2076 -0.6302 -0.7331
 5941TIP3    H239239   6.132   1.614   4.263 -0.6148 -0.0592 -0.4403
 5942TIP3   OH239240   3.877   2.652  16.046 -0.3718 -0.4720  0.6803
 5942TIP3    H139241   3.804   2.625  15.990 -0.5832  0.4553  0.4926
 5942TIP3    H239242   3.859   2.609  16.130 -1.1117 -0.3205  0.6146
 5943TIP3   OH239243   0.238   6.173  12.273  0.3276  0.5273  0.4999
 5943TIP3    H139244   0.243   6.268  12.281  1.8228  0.4833  0.2762
 5943TIP3    H239245   0.322   6.141  12.307  0.3740 -0.6291 -0.6160
 5944TIP3   OH239246   2.146   5.086   0.871 -0.8095 -0.3460 -0.0068
 5944TIP3    H139247   2.110   5.174   0.857  0.3732  0.4324  1.4885
 5944TIP3    H239248   2.069   5.029   0.875 -1.6921  0.8222  0.2924
 5945TIP3   OH239249   6.531   2.597   2.977  0.1465  0.2912 -0.0452
 5945TIP3    H139250   6.556   2.583   2.886 -3.8814  0.1301 -1.3220
 5945TIP3    H239251   6.492   2.514   3.004  0.9985  0.4392  1.7966
 5946TIP3   OH239252   5.291   3.112  11.219 -0.5710 -0.6389  0.4469
 5946TIP3    H139253   5.347   3.189  11.213  0.0884 -1.1750 -0.4069
 5946TIP3    H239254   5.350   3.038  11.205 -1.2526 -1.2879  0.9223
 5947TIP3   OH239255   0.068   6.684  12.943  0.0265  0.5080 -0.6071
 5947TIP3    H139256   0.074   6.641  13.028 -1.6730  0.1843 -0.6309
 5947TIP3    H239257   0.058   6.613  12.880  1.2226  0.7478 -1.0999
 5948TIP3   OH239258   2.810   2.210   6.146  0.3509 -0.4041  0.6875
 5948TIP3    H139259   2.814   2.152   6.070 -3.7239  1.4154 -1.2006
 5948TIP3    H239260   2.864   2.286   6.122 -0.3087 -0.1721 -0.0870
 5949TIP3   OH239261   3.577   2.486  11.769  0.2607 -0.5978  0.2175
 5949TIP3    H139262   3.570   2.433  11.690 -0.8640  2.2382 -1.7955
 5949TIP3    H239263   3.488   2.490  11.803  0.2922  0.0569  0.2441
 5950TIP3   OH239264   2.085   0.780  17.075 -0.8599  0.2646  0.2454
 5950TIP3    H139265   2.156   0.755  17.134 -0.0578  2.4310  0.2852
 5950TIP3    H239266   2.034   0.844  17.125 -1.9691 -0.1329 -0.3350
 5951TIP3   OH239267   1.580   1.744  11.397 -0.1237 -0.4094  0.6488
 5951TIP3    H139268   1.587   1.701  11.312  0.6652 -0.4239  0.7132
 5951TIP3    H239269   1.566   1.837  11.376  1.4805 -0.1848  0.4790
 5952TIP3   OH239270   1.413   0.514  15.101 -0.6863  0.1836  0.0299
 5952TIP3    H139271   1.331   0.498  15.148  0.3871 -1.3437  1.4795
 5952TIP3    H239272   1.482   0.489  15.163  0.9110  1.5918 -1.0747
 5953TIP3   OH239273   4.558   2.764  16.085 -0.3213  0.2715  0.0284
 5953TIP3    H139274   4.518   2.731  16.005  0.1040  0.5909 -0.3153
 5953TIP3    H239275   4.486   2.765  16.148 -0.5327 -0.4989 -0.1872
 5954TIP3   OH239276   4.174   2.172  16.751  0.1703 -0.0664  0.6833
 5954TIP3    H139277   4.136   2.188  16.837 -1.3340  1.2293 -0.1526
 5954TIP3    H239278   4.109   2.118  16.705  0.4713  0.1072  0.0330
 5955TIP3   OH239279   1.393   2.411   3.209 -0.4983 -0.3318  0.5720
 5955TIP3    H139280   1.398   2.485   3.149 -1.2479  0.1109  1.0292
 5955TIP3    H239281   1.441   2.341   3.165 -1.3517 -0.1471 -0.7370
 5956TIP3   OH239282   0.211   1.828   4.536 -0.4161 -0.9347  0.3361
 5956TIP3    H139283   0.233   1.895   4.601  0.2892  0.4687 -1.2479
 5956TIP3    H239284   0.258   1.750   4.565  2.7222  0.5739 -0.1655
 5957TIP3   OH239285   5.372   4.152   2.448 -0.9454  0.1707 -0.1096
 5957TIP3    H139286   5.403   4.106   2.526  1.1239 -0.3310 -1.1612
 5957TIP3    H239287   5.284   4.182   2.471 -1.5125 -2.3526  1.4354
 5958TIP3   OH239288   1.043   5.064   5.372  0.2055  0.2738  0.1844
 5958TIP3    H139289   1.073   4.999   5.309 -0.6279 -0.0911  0.1472
 5958TIP3    H239290   0.987   5.014   5.432 -0.3643  0.9329  0.2093
 5959TIP3   OH239291   5.206   1.086   3.758 -0.3833 -0.2598  0.2727
 5959TIP3    H139292   5.240   1.020   3.698  0.0514  0.8952 -0.7842
 5959TIP3    H239293   5.173   1.035   3.833 -1.0283 -1.7368 -0.9611
 5960TIP3   OH239294   1.398   2.920   0.111 -0.6284  0.2446  0.1332
 5960TIP3    H139295   1.480   2.875   0.130 -0.2004  1.0539  0.2257
 5960TIP3    H239296   1.366   2.948   0.197  0.3738  2.2799 -0.0956
 5961TIP3   OH239297   4.545   2.397   3.915 -0.2709 -0.3106  0.2703
 5961TIP3    H139298   4.508   2.453   3.983 -1.5164 -0.3296 -0.3674
 5961TIP3    H239299   4.483   2.323   3.909  1.4802 -1.9551  1.3254
 5962TIP3   OH239300   2.889   2.776  13.064  0.3996 -0.4328  0.7133
 5962TIP3    H139301   2.981   2.751  13.073  0.9614  2.0218  2.9160
 5962TIP3    H239302   2.857   2.780  13.154 -1.4690  0.1511  0.0560
 5963TIP3   OH239303   5.621   4.362  13.725  0.4040 -0.2327  0.3097
 5963TIP3    H139304   5.606   4.417  13.648 -1.1437  0.9252  1.3780
 5963TIP3    H239305   5.561   4.289  13.714 -0.3830  0.3339  0.7720
 5964TIP3   OH239306   1.454   4.256  14.893 -0.1260 -0.3124  0.0168
 5964TIP3    H139307   1.489   4.338  14.928 -0.4661 -0.4800  0.7583
 5964TIP3    H239308   1.530   4.199  14.884 -0.0593 -0.3323  0.6685
 5965TIP3   OH239309   6.714   1.923   2.470  0.0003  0.3735  0.5120
 5965TIP3    H139310   6.621   1.933   2.449 -0.2922 -0.8334  1.1053
 5965TIP3    H239311   6.729   1.828   2.463  0.9987  0.4756  1.1624
 5966TIP3   OH239312   2.766   6.308   3.714 -0.5148 -0.5608  0.0301
 5966TIP3    H139313   2.746   6.259   3.794  2.0257 -2.3087 -0.2784
 5966TIP3    H239314   2.773   6.241   3.646  0.2812  0.5508 -1.0262
 5967TIP3   OH239315   4.218   0.351  11.866  0.1890 -0.3415 -0.1713
 5967TIP3    H139316   4.227   0.402  11.785  1.7297 -1.9122 -1.0746
 5967TIP3    H239317   4.225   0.260  11.837  1.4831 -0.9217  1.7854
 5968TIP3   OH239318   0.694   6.767  16.614  0.0478  0.3892 -0.0899
 5968TIP3    H139319   0.784   6.763  16.583  0.4257  2.9894  0.4674
 5968TIP3    H239320   0.657   6.681  16.593  2.1661 -0.1799 -1.7692
 5969TIP3   OH239321   5.030   2.086  11.108  0.7153 -0.1745  0.2220
 5969TIP3    H139322   4.971   2.073  11.182  1.7502  0.5501  1.2177
 5969TIP3    H239323   5.017   2.178  11.083 -1.1968 -0.9565 -1.9471
 5970TIP3   OH239324   6.579   5.653   4.966 -0.2090  0.6286  0.6500
 5970TIP3    H139325   6.544   5.710   4.898 -2.1842 -1.0202  0.1723
 5970TIP3    H239326   6.663   5.693   4.991 -0.1395  2.0905 -1.6587
 5971TIP3   OH239327   2.830   6.681  13.153  0.2809 -0.2010 -0.5952
 5971TIP3    H139328   2.919   6.716  13.158  0.0334  0.7800 -2.1636
 5971TIP3    H239329   2.773   6.758  13.154 -0.9109 -0.8757  4.1113
 5972TIP3   OH239330   3.311   1.086   5.102 -0.6521 -0.0919 -0.3998
 5972TIP3    H139331   3.326   1.053   5.191 -1.3322  1.9269  0.5193
 5972TIP3    H239332   3.232   1.041   5.073 -0.3850 -0.8196 -0.0277
 5973TIP3   OH239333   2.948   0.085  15.628 -0.0835  0.0210 -0.4453
 5973TIP3    H139334   2.900   0.140  15.690  1.0489  1.2237 -0.5778
 5973TIP3    H239335   2.943   0.132  15.545 -0.1102 -0.6937 -0.8587
 5974TIP3   OH239336   1.183   5.828   1.331  0.1055 -0.1015 -0.5623
 5974TIP3    H139337   1.091   5.812   1.312  0.2701 -0.7056 -0.8445
 5974TIP3    H239338   1.218   5.743   1.357  0.8409 -0.1043 -1.5274
 5975TIP3   OH239339   4.040   2.083   1.912  0.1611 -0.5592  0.1614
 5975TIP3    H139340   4.090   2.118   1.985 -0.4689  2.4160 -0.7084
 5975TIP3    H239341   3.948   2.097   1.937 -0.0590  1.5504 -1.5769
 5976TIP3   OH239342   5.794   6.598  14.377  0.1684  0.1903  0.1062
 5976TIP3    H139343   5.887   6.586  14.358 -0.1119  0.2484 -1.4951
 5976TIP3    H239344   5.777   6.689  14.355 -0.6865 -0.3651 -1.7623
 5977TIP3   OH239345   4.236   6.375   3.684  0.1018 -0.1788  0.3450
 5977TIP3    H139346   4.212   6.283   3.694  1.7858 -0.7753 -0.6755
 5977TIP3    H239347   4.283   6.396   3.765 -0.3313 -0.1899  0.6026
 5978TIP3   OH239348   4.755   2.350   0.953 -0.2737  0.1017 -0.6451
 5978TIP3    H139349   4.665   2.381   0.960 -0.2378  0.0745 -0.0474
 5978TIP3    H239350   4.808   2.419   0.992 -0.2194 -0.7959  0.9458
 5979TIP3   OH239351   4.563   4.512  16.983 -0.4146 -0.1462  0.1172
 5979TIP3    H139352   4.616   4.539  16.908 -0.3400 -0.0415  0.2070
 5979TIP3    H239353   4.511   4.590  17.005 -0.7630 -0.3113 -0.1063
 5980TIP3   OH239354   0.562   3.164   3.190  0.5478 -0.3491 -0.2037
 5980TIP3    H139355   0.520   3.248   3.209  1.6856  0.5956 -1.6031
 5980TIP3    H239356   0.599   3.136   3.274  4.1197  2.8937 -0.3762
 5981TIP3   OH239357   1.486   5.102  15.515 -0.7411 -0.1941 -0.6847
 5981TIP3    H139358   1.512   5.151  15.436 -0.1639 -0.2732 -0.5503
 5981TIP3    H239359   1.492   5.010  15.489  0.3512 -0.2545 -0.2981
 5982TIP3   OH239360   3.392   5.830  13.641  0.8377  0.1062  0.1385
 5982TIP3    H139361   3.330   5.773  13.686  0.4926  1.3360  1.2757
 5982TIP3    H239362   3.422   5.891  13.708  0.8790  1.5289 -1.1218
 5983TIP3   OH239363   0.395   3.579  12.584 -0.0228 -0.0227 -0.5603
 5983TIP3    H139364   0.318   3.614  12.540 -1.3679 -0.3504  1.4122
 5983TIP3    H239365   0.385   3.605  12.675 -0.2768 -3.9812  0.7223
 5984TIP3   OH239366   0.840   1.585   5.336  0.2895 -0.2578  0.0660
 5984TIP3    H139367   0.822   1.517   5.401 -0.2576 -2.0741 -1.8966
 5984TIP3    H239368   0.924   1.560   5.297  0.2402  0.3817 -0.4676
 5985TIP3   OH239369   6.145   0.993   0.677 -0.2800  0.1456  0.2858
 5985TIP3    H139370   6.171   0.984   0.586  0.2423 -0.9814  0.5197
 5985TIP3    H239371   6.050   0.990   0.676 -0.2934  0.7585 -0.2742
 5986TIP3   OH239372   2.421   4.871   0.356  0.4348 -0.0793  0.0139
 5986TIP3    H139373   2.514   4.853   0.369  0.2364 -0.2250  1.3242
 5986TIP3    H239374   2.391   4.800   0.300  1.4919  0.9954 -2.0277
 5987TIP3   OH239375   4.273   2.314   1.945  0.5387  0.2759  0.1245
 5987TIP3    H139376   4.235   2.398   1.971 -1.3152  0.4482 -2.6600
 5987TIP3    H239377   4.240   2.251   2.008  0.1271  1.3036  0.9534
 5988TIP3   OH239378   6.372   5.786   6.114  0.1606  0.5731  0.4885
 5988TIP3    H139379   6.290   5.759   6.073  0.5732  1.0142 -0.6893
 5988TIP3    H239380   6.417   5.704   6.136  0.6597  0.2602 -1.4996
 5989TIP3   OH239381   6.301   1.503  11.993 -0.0999  0.5259  0.0085
 5989TIP3    H139382   6.246   1.461  11.927 -0.6748  0.2882  0.6128
 5989TIP3    H239383   6.246   1.575  12.027 -0.7486 -0.7203  1.7785
 5990TIP3   OH239384   0.178   6.042  15.327 -0.0783  0.5182  0.2957
 5990TIP3    H139385   0.162   5.991  15.247 -1.6926 -0.7024  1.3342
 5990TIP3    H239386   0.106   6.106  15.330 -0.0605  0.5203  0.7956
 5991TIP3   OH239387   3.431   5.202  10.915  0.6635  0.3321  0.5292
 5991TIP3    H139388   3.416   5.110  10.938  1.3204  0.9474  3.9667
 5991TIP3    H239389   3.526   5.211  10.914  0.5979  1.1843  1.2185
 5992TIP3   OH239390   2.609   6.690   0.249 -0.7837  0.2507  0.1132
 5992TIP3    H139391   2.643   6.603   0.228 -0.0311  0.3422  0.9075
 5992TIP3    H239392   2.545   6.708   0.180 -0.7438 -0.8110 -0.2166
 5993TIP3   OH239393   3.081   0.208  11.367 -0.5010 -0.4636 -0.0464
 5993TIP3    H139394   3.032   0.248  11.295  0.9273  0.3303 -0.6336
 5993TIP3    H239395   3.050   0.118  11.371 -1.7501 -0.0719 -0.5972
 5994TIP3   OH239396   0.380   3.277  10.711  0.5314 -0.8810 -0.3897
 5994TIP3    H139397   0.475   3.284  10.704  0.4542  0.4121 -0.4760
 5994TIP3    H239398   0.354   3.217  10.640  1.2852 -1.3626 -0.2645
 5995TIP3   OH239399   1.324   0.596   1.434  0.0765 -0.2820  0.3322
 5995TIP3    H139400   1.380   0.556   1.368 -0.3944 -1.2762  0.5142
 5995TIP3    H239401   1.333   0.540   1.511 -2.2609 -1.3759 -0.0924
 5996TIP3   OH239402   5.485   5.708   3.612  0.4099 -0.0126 -0.5315
 5996TIP3    H139403   5.548   5.774   3.583  1.4595  0.0467  1.6589
 5996TIP3    H239404   5.400   5.752   3.607  1.0350  1.3968  0.4083
 5997TIP3   OH239405   6.375   6.332  11.079  0.3129  0.7946  0.1628
 5997TIP3    H139406   6.384   6.398  11.148 -0.9984  0.8395  0.3346
 5997TIP3    H239407   6.319   6.264  11.119 -0.7593  0.9898 -0.9459
 5998TIP3   OH239408   3.047   6.214  13.727 -0.4377 -0.2842 -0.0172
 5998TIP3    H139409   2.999   6.242  13.805  1.2628  2.6946  0.1068
 5998TIP3    H239410   3.123   6.273  13.723  1.4710 -2.6675 -1.9783
 5999TIP3   OH239411   1.403   2.365   2.156 -0.4119  0.4853  0.0728
 5999TIP3    H139412   1.410   2.367   2.061  0.9437 -0.6475  0.1142
 5999TIP3    H239413   1.480   2.414   2.186 -1.1056  1.2779  0.5985
 6000TIP3   OH239414   2.312   1.922  11.016 -0.0189  0.3133  0.9354
 6000TIP3    H139415   2.311   1.854  10.948  3.7161  1.3711 -0.4193
 6000TIP3    H239416   2.361   1.883  11.088 -0.6401  0.5205  1.4778
 6001TIP3   OH239417   2.184   2.607  11.710 -0.2938  0.0072  0.1585
 6001TIP3    H139418   2.251   2.586  11.646 -0.6695 -1.2230  0.1482
 6001TIP3    H239419   2.116   2.652  11.659 -1.5017 -2.6822 -0.7853
 6002TIP3   OH239420   6.053   2.209   5.095  0.1424  0.0048  0.0816
 6002TIP3    H139421   6.131   2.248   5.055  1.3116 -1.1787  1.1286
 6002TIP3    H239422   6.074   2.116   5.102 -1.3091 -0.3115  0.5604
 6003TIP3   OH239423   5.002   5.428   1.276 -0.3891  0.1674  0.2497
 6003TIP3    H139424   4.990   5.512   1.232 -2.1390  0.0845  0.5047
 6003TIP3    H239425   4.922   5.416   1.328  0.0252 -1.4352  0.5747
 6004TIP3   OH239426   1.127   3.023   3.241 -0.7858 -0.0262 -0.4665
 6004TIP3    H139427   1.175   3.078   3.179 -0.3876  0.2549  0.0834
 6004TIP3    H239428   1.192   2.960   3.273 -1.2636 -0.9048 -1.1776
 6005TIP3   OH239429   1.492   6.089   4.518 -0.0542  0.6153  0.1664
 6005TIP3    H139430   1.487   6.062   4.426  0.0671  0.8648  0.0877
 6005TIP3    H239431   1.498   6.184   4.516  1.5009  0.5446  0.3696
 6006TIP3   OH239432   1.873   0.581  15.410 -0.4722  0.2385 -0.1320
 6006TIP3    H139433   1.967   0.599  15.408 -0.4484  0.2295  0.5096
 6006TIP3    H239434   1.849   0.590  15.502 -1.4823  2.1563 -0.5452
 6007TIP3   OH239435   2.807   2.037   0.231 -0.1859 -0.0561  0.0876
 6007TIP3    H139436   2.731   2.085   0.199  1.1926  1.6963 -0.7620
 6007TIP3    H239437   2.828   2.078   0.315 -1.7578 -2.3930  1.7528
 6008TIP3   OH239438   6.332   0.328  11.946 -0.3899  0.1008 -0.2249
 6008TIP3    H139439   6.327   0.233  11.939 -0.2924 -0.0245  1.1352
 6008TIP3    H239440   6.402   0.353  11.886 -1.5218 -0.4955 -1.8594
 6009TIP3   OH239441   6.630   3.521   5.958  0.1027  0.4160  0.0695
 6009TIP3    H139442   6.602   3.484   6.042  0.2438  1.4998  0.6234
 6009TIP3    H239443   6.714   3.564   5.978  0.2267  0.5310 -0.6723
 6010TIP3   OH239444   2.842   1.229  10.460  0.2147  0.2705  0.2658
 6010TIP3    H139445   2.807   1.141  10.448  2.0506 -0.5138  0.3489
 6010TIP3    H239446   2.883   1.227  10.546 -0.5365  1.5060  0.6678
 6011TIP3   OH239447   5.946   3.705   5.036  0.1106 -0.0006 -0.4263
 6011TIP3    H139448   5.923   3.621   5.076 -0.7707  0.3685 -0.1339
 6011TIP3    H239449   6.042   3.707   5.038  0.1539 -1.1144 -0.6871
 6012TIP3   OH239450   6.376   2.157  12.489  0.1273  0.2630  0.5796
 6012TIP3    H139451   6.449   2.097  12.502 -0.1526 -0.7129 -1.7895
 6012TIP3    H239452   6.298   2.104  12.506 -0.0850  0.5445  0.4941
 6013TIP3   OH239453   1.793   3.681   1.736  0.1277  1.1158 -0.3377
 6013TIP3    H139454   1.713   3.629   1.745  1.0089 -0.2063  0.2019
 6013TIP3    H239455   1.819   3.670   1.645  1.0331 -0.5642  0.0795
 6014TIP3   OH239456   4.700   5.043  10.846  0.3926  0.2906  0.4679
 6014TIP3    H139457   4.737   4.965  10.805  0.7410  0.4818  0.4070
 6014TIP3    H239458   4.774   5.082  10.893 -0.0640 -0.0883  1.5363
 6015TIP3   OH239459   3.900   3.886   0.758 -0.3011  0.5912 -0.1740
 6015TIP3    H139460   3.888   3.831   0.681  0.9520  1.0140 -0.7096
 6015TIP3    H239461   3.987   3.925   0.746 -0.3393  1.1478  1.1535
 6016TIP3   OH239462   2.144   1.046   5.232 -0.0333  0.6472 -0.0337
 6016TIP3    H139463   2.108   1.134   5.217 -0.1182  0.3925 -1.5035
 6016TIP3    H239464   2.199   1.055   5.310 -0.4911  1.8686  0.1718
 6017TIP3   OH239465   3.448   2.942   1.721 -0.1244 -0.1004 -0.2191
 6017TIP3    H139466   3.447   2.958   1.816 -0.0917 -3.3868  0.4344
 6017TIP3    H239467   3.534   2.903   1.705 -0.6182 -0.7156 -1.4038
 6018TIP3   OH239468   3.675   4.651   6.924  0.3380 -0.2856 -0.6217
 6018TIP3    H139469   3.730   4.718   6.964  0.0023 -0.4129  0.0704
 6018TIP3    H239470   3.587   4.672   6.953  0.4122 -1.9998  1.0458
 6019TIP3   OH239471   0.308   5.748   6.842  0.3677 -0.1963 -0.1971
 6019TIP3    H139472   0.276   5.779   6.927  1.6440 -0.7398  0.5270
 6019TIP3    H239473   0.230   5.722   6.794 -0.5135  1.6882  0.1547
 6020TIP3   OH239474   1.340   6.765  16.935 -0.8041 -0.4678  0.0772
 6020TIP3    H139475   1.284   6.834  16.970  1.6898  0.1184  3.3506
 6020TIP3    H239476   1.356   6.707  17.009  1.6425 -1.4696 -1.1273
 6021TIP3   OH239477   3.327   4.538  14.513 -0.1540 -0.0833  0.2381
 6021TIP3    H139478   3.255   4.580  14.466  0.1068  0.1567  0.0556
 6021TIP3    H239479   3.370   4.609  14.560  1.1265  0.1020 -1.1409
 6022TIP3   OH239480   6.555   3.779  16.555  0.3195  0.2775 -0.0876
 6022TIP3    H139481   6.611   3.843  16.599  0.8794  0.5099 -1.1039
 6022TIP3    H239482   6.526   3.720  16.625  0.5940  1.0549  0.6985
 6023TIP3   OH239483   6.617   6.614  15.344 -0.4713  0.0140 -0.1491
 6023TIP3    H139484   6.646   6.570  15.265  0.8578 -0.2671  0.4572
 6023TIP3    H239485   6.563   6.549  15.389  0.8358 -0.7710  0.3636
 6024TIP3   OH239486   0.753   0.675   0.489 -0.0871  0.6678  0.1559
 6024TIP3    H139487   0.696   0.730   0.542 -0.9783  1.7328 -1.8123
 6024TIP3    H239488   0.834   0.725   0.481 -0.0442  0.6214  0.2973
 6025TIP3   OH239489   0.547   2.086  16.783  0.0718 -0.2101 -0.2026
 6025TIP3    H139490   0.499   2.006  16.802 -0.0276 -0.3993 -1.1702
 6025TIP3    H239491   0.538   2.139  16.862  0.6008 -1.3575  0.6594
 6026TIP3   OH239492   5.871   4.025  17.263 -0.2028  0.1010 -0.3750
 6026TIP3    H139493   5.877   3.931  17.248 -0.1689  0.4123 -2.7238
 6026TIP3    H239494   5.780   4.047  17.244 -0.6441  0.3345  1.8112
 6027TIP3   OH239495   5.954   2.941  15.599  0.6111 -0.3092  0.2457
 6027TIP3    H139496   5.989   2.978  15.518  2.0395 -0.4152  0.7836
 6027TIP3    H239497   5.907   2.863  15.572  2.1267 -1.0466 -0.3866
 6028TIP3   OH239498   6.067   2.763  15.153 -0.0118  0.1675 -0.0203
 6028TIP3    H139499   6.011   2.835  15.183 -1.2064 -1.3050  1.5206
 6028TIP3    H239500   6.151   2.804  15.132 -0.3173  1.8974  1.8232
 6029TIP3   OH239501   1.645   4.925   1.161 -0.2160 -0.5077 -0.3151
 6029TIP3    H139502   1.597   4.926   1.079 -0.7347 -1.3362 -0.0340
 6029TIP3    H239503   1.614   5.003   1.208  0.4705  0.2613 -1.1015
 6030TIP3   OH239504   4.596   1.617   4.829 -0.3632  0.5428 -0.0449
 6030TIP3    H139505   4.673   1.637   4.881  0.0267 -0.5999 -0.1624
 6030TIP3    H239506   4.623   1.632   4.739 -0.0293 -0.5712 -0.1435
 6031TIP3   OH239507   2.360   5.016   1.009 -0.3911 -0.6622  0.5271
 6031TIP3    H139508   2.308   4.943   1.044 -1.7567 -0.1111 -0.2544
 6031TIP3    H239509   2.295   5.075   0.971  0.7726  0.4659  0.2276
 6032TIP3   OH239510   0.208   2.363   3.889 -0.8034  0.0340 -0.6655
 6032TIP3    H139511   0.198   2.292   3.826  4.0501 -0.0561 -1.7591
 6032TIP3    H239512   0.260   2.429   3.843  0.9153  1.0609  2.4117
 6033TIP3   OH239513   1.824   5.904   0.504  0.0495 -0.1169  0.0775
 6033TIP3    H139514   1.847   5.951   0.584 -0.4625  0.1064  0.0949
 6033TIP3    H239515   1.752   5.954   0.466  1.2274  0.6186 -1.2916
 6034TIP3   OH239516   2.582   5.536  16.495 -0.3807  0.1374  0.0961
 6034TIP3    H139517   2.617   5.626  16.489  1.4305 -0.5596 -0.5276
 6034TIP3    H239518   2.636   5.494  16.562 -0.1785 -0.9056 -0.7005
 6035TIP3   OH239519   4.821   1.754  10.985 -0.4274 -0.4599 -0.3202
 6035TIP3    H139520   4.816   1.660  10.997 -1.8994 -0.3918 -0.2519
 6035TIP3    H239521   4.733   1.786  11.006  0.2611  1.0142  0.4440
 6036TIP3   OH239522   4.661   2.201   6.178 -0.5398  0.4211 -0.2436
 6036TIP3    H139523   4.734   2.151   6.141 -0.1981 -0.0665  1.0327
 6036TIP3    H239524   4.587   2.183   6.120  0.0026 -0.2203 -0.7430
 6037TIP3   OH239525   5.560   5.298  14.442 -0.1981 -0.0675 -0.6651
 6037TIP3    H139526   5.502   5.370  14.467  0.9603  1.6971 -2.7138
 6037TIP3    H239527   5.520   5.260  14.364 -0.8316 -1.7845  0.4292
 6038TIP3   OH239528   6.722   6.571  16.113  0.9895  0.2209  0.1939
 6038TIP3    H139529   6.780   6.499  16.089 -2.0311 -1.9575 -1.2105
 6038TIP3    H239530   6.723   6.629  16.036 -0.0926 -0.8740 -0.7001
 6039TIP3   OH239531   4.569   6.570   6.473 -0.3345 -0.0921 -0.4136
 6039TIP3    H139532   4.499   6.598   6.532  0.7858  0.7016  0.6021
 6039TIP3    H239533   4.631   6.643   6.474  0.4496 -0.7213 -1.3825
 6040TIP3   OH239534   0.332   0.047  12.416  0.0214 -0.0511  0.4933
 6040TIP3    H139535   0.404   0.110  12.413  0.1268 -0.1665  0.5845
 6040TIP3    H239536   0.307   0.045  12.508 -0.2830  0.1947  0.4176
 6041TIP3   OH239537   1.838   1.753   1.276 -0.5053  0.3010 -0.2691
 6041TIP3    H139538   1.883   1.713   1.202  1.4663 -0.1251  1.0910
 6041TIP3    H239539   1.854   1.694   1.350 -1.5452  1.2188  0.7460
 6042TIP3   OH239540   4.703   5.757   1.188  0.2097 -0.0953 -0.2013
 6042TIP3    H139541   4.713   5.843   1.148  1.0840 -0.4676 -0.8176
 6042TIP3    H239542   4.679   5.700   1.116 -1.7992 -0.1257  0.4492
 6043TIP3   OH239543   2.986   5.148   1.937 -0.4398  0.1173 -0.4330
 6043TIP3    H139544   2.951   5.121   1.852 -0.6207 -1.6826  0.1764
 6043TIP3    H239545   2.947   5.087   2.000 -0.1799  1.3041  0.9358
 6044TIP3   OH239546   2.735   6.173  15.570  0.2551  0.4394 -0.5261
 6044TIP3    H139547   2.722   6.143  15.480 -0.0141  1.4435 -0.8353
 6044TIP3    H239548   2.823   6.209  15.571  0.5455 -0.2592 -0.1776
 6045TIP3   OH239549   1.679   1.922   1.500  0.6605  0.3769  0.5510
 6045TIP3    H139550   1.757   1.950   1.547  0.3670  1.3637  0.4732
 6045TIP3    H239551   1.707   1.847   1.448  1.0609 -0.5201  2.0358
 6046TIP3   OH239552   2.532   2.666   4.298  0.0528  0.2160  0.6164
 6046TIP3    H139553   2.510   2.579   4.329 -0.2193 -0.1006 -0.4144
 6046TIP3    H239554   2.451   2.699   4.259  0.5569  0.2759 -0.4404
 6047TIP3   OH239555   1.249   4.651  13.837 -0.0702  0.0373 -0.5131
 6047TIP3    H139556   1.324   4.599  13.809 -0.1083  0.2133 -0.9530
 6047TIP3    H239557   1.212   4.603  13.910  0.1996 -0.2864 -0.5876
 6048TIP3   OH239558   2.680   1.653  12.739 -0.2667 -0.0327 -0.3897
 6048TIP3    H139559   2.632   1.590  12.686 -1.8994  0.6233  0.2407
 6048TIP3    H239560   2.750   1.685  12.682 -0.8620 -0.6818 -1.5107
 6049TIP3   OH239561   1.465   0.128  14.536 -0.3151 -0.9004  0.3735
 6049TIP3    H139562   1.460   0.106  14.443 -0.9496  2.5918 -0.5611
 6049TIP3    H239563   1.375   0.117  14.568 -0.5009 -0.3728  0.0600
 6050TIP3   OH239564   3.183   3.858   2.704 -0.1993 -0.1238 -0.5630
 6050TIP3    H139565   3.183   3.905   2.787 -0.4353 -1.8012  0.4367
 6050TIP3    H239566   3.276   3.846   2.683 -0.1308 -0.3344 -0.1502
 6051TIP3   OH239567   3.872   6.601   5.400 -0.6379 -1.1312  0.5511
 6051TIP3    H139568   3.850   6.687   5.437  3.2951  0.0196  0.6813
 6051TIP3    H239569   3.858   6.611   5.306 -1.8784 -1.0086  0.7238
 6052TIP3   OH239570   6.261   2.099   3.820 -0.1278  0.2297 -0.4799
 6052TIP3    H139571   6.280   2.084   3.912  0.0732 -0.9170 -0.6929
 6052TIP3    H239572   6.226   2.188   3.817 -0.1503  0.2784  0.6991
 6053TIP3   OH239573   5.613   1.512  13.330  0.1335  0.4276  0.5970
 6053TIP3    H139574   5.665   1.565  13.390 -0.7502 -0.0133  1.7739
 6053TIP3    H239575   5.522   1.536  13.349 -0.1475  1.3540 -1.5657
 6054TIP3   OH239576   5.631   3.217   4.979 -0.5365  0.1377 -0.3505
 6054TIP3    H139577   5.714   3.262   4.993 -1.0645  0.8605  0.5682
 6054TIP3    H239578   5.594   3.207   5.066 -0.9015 -1.2012 -0.6378
 6055TIP3   OH239579   2.586   5.693   0.049  0.4661 -0.5960 -0.1916
 6055TIP3    H139580   2.557   5.602   0.055 -0.5778 -0.2634  0.0933
 6055TIP3    H239581   2.522   5.735  -0.009  1.1613 -0.1326 -0.6348
 6056TIP3   OH239582   1.081   2.461  11.035 -0.2174  0.2379  0.1195
 6056TIP3    H139583   1.127   2.377  11.027 -2.0338 -1.0838  2.4270
 6056TIP3    H239584   1.115   2.499  11.116 -1.6938  0.1805  0.7866
 6057TIP3   OH239585   5.365   0.984  16.403  0.4430  0.9808 -0.8284
 6057TIP3    H139586   5.432   1.046  16.432  1.9172 -1.2087  0.8367
 6057TIP3    H239587   5.370   0.985  16.308  1.2694  2.4996 -0.7963
 6058TIP3   OH239588   5.048   5.677  15.983 -0.0733  0.1136 -0.2405
 6058TIP3    H139589   5.060   5.632  15.899 -0.9281 -1.0767  0.2346
 6058TIP3    H239590   4.960   5.714  15.978 -1.0924 -1.9780  0.9657
 6059TIP3   OH239591   6.315   1.097   2.580  0.2734 -0.3526  0.0847
 6059TIP3    H139592   6.266   1.137   2.508  2.6661 -1.0950 -2.1103
 6059TIP3    H239593   6.314   1.164   2.648 -1.8353  0.5208 -0.6921
 6060TIP3   OH239594   2.906   6.532   2.892  0.0262 -0.0686  0.1618
 6060TIP3    H139595   2.986   6.552   2.941  0.7433 -0.7193 -0.7001
 6060TIP3    H239596   2.849   6.489   2.956  0.8848 -0.7782  0.4819
 6061TIP3   OH239597   6.079   5.930  16.189 -0.3124 -0.0621  0.4890
 6061TIP3    H139598   6.048   5.847  16.224 -2.2989 -0.1903 -1.3609
 6061TIP3    H239599   6.000   5.974  16.159  1.0028  1.0055 -1.6441
 6062TIP3   OH239600   0.305   0.155   2.560  0.5621  0.2689 -0.6574
 6062TIP3    H139601   0.308   0.213   2.636  0.8536 -0.3518 -0.1844
 6062TIP3    H239602   0.274   0.210   2.488 -0.8546  0.6061  0.1647
 6063TIP3   OH239603   1.534   4.586   4.951 -0.9129  0.1623  0.0735
 6063TIP3    H139604   1.549   4.563   4.859  2.1640  1.5098  0.1078
 6063TIP3    H239605   1.616   4.562   4.995 -1.0974  2.4528  1.8315
 6064TIP3   OH239606   3.591   6.640   2.259 -0.0590 -0.0359 -0.1591
 6064TIP3    H139607   3.571   6.650   2.166  1.8124  0.5097 -0.5446
 6064TIP3    H239608   3.562   6.722   2.299  1.2193  0.7119 -0.6907
 6065TIP3   OH239609   1.425   4.629   0.754 -0.0867  0.0804  0.0423
 6065TIP3    H139610   1.366   4.570   0.706 -0.7062  0.4642  0.3211
 6065TIP3    H239611   1.469   4.573   0.817 -1.4116  0.0716  0.9903
 6066TIP3   OH239612   3.471   4.301   0.319 -0.2953 -0.2603 -1.1104
 6066TIP3    H139613   3.535   4.332   0.383 -1.1635 -0.1017 -0.2901
 6066TIP3    H239614   3.514   4.229   0.274  0.5968  0.0994 -0.8497
 6067TIP3   OH239615   6.506   5.274  13.170  0.4382  0.2095 -0.0103
 6067TIP3    H139616   6.418   5.250  13.198  0.7748 -1.9185 -0.6643
 6067TIP3    H239617   6.511   5.248  13.078  2.1730 -0.9766  0.3739
 6068TIP3   OH239618   0.532   1.416   1.119 -0.4603  0.4575  0.3454
 6068TIP3    H139619   0.544   1.485   1.185 -0.0191  0.3831  0.3463
 6068TIP3    H239620   0.540   1.334   1.169  1.3268  0.3798 -0.0273
 6069TIP3   OH239621   0.276   5.257  14.592 -0.2631 -0.2692 -0.7187
 6069TIP3    H139622   0.272   5.299  14.677 -0.9930 -1.0956 -0.3346
 6069TIP3    H239623   0.201   5.198  14.590  0.0127 -0.6117 -1.7454
 6070TIP3   OH239624   5.112   1.064   1.593 -0.6975 -0.9389  0.4653
 6070TIP3    H139625   5.081   1.001   1.528  0.9684 -2.2445  0.8585
 6070TIP3    H239626   5.148   1.136   1.542 -0.2145 -1.5404 -0.0653
 6071TIP3   OH239627   2.853   6.692  11.810 -0.0316  0.6177 -0.0315
 6071TIP3    H139628   2.793   6.755  11.769 -0.2959  1.6646  1.8444
 6071TIP3    H239629   2.939   6.713  11.774 -0.2345  1.6237  0.0382
 6072TIP3   OH239630   2.033   6.441   2.501  0.0071  0.1436  0.3893
 6072TIP3    H139631   2.045   6.407   2.590  0.0639 -0.9035 -0.0039
 6072TIP3    H239632   2.092   6.516   2.495  0.4486 -0.1503  1.0316
 6073TIP3   OH239633   6.463   1.456   1.621 -0.2158  0.1594  0.4922
 6073TIP3    H139634   6.554   1.456   1.653 -0.6063 -0.2126  1.6607
 6073TIP3    H239635   6.410   1.447   1.701 -1.3455  1.8938 -0.0054
 6074TIP3   OH239636   5.454   4.520  16.639  0.1047 -0.4556  0.0813
 6074TIP3    H139637   5.463   4.615  16.652 -0.5999 -0.5918  1.7900
 6074TIP3    H239638   5.367   4.509  16.601 -0.5103 -0.5126  1.4555
 6075TIP3   OH239639   5.535   5.476   3.503  0.7333  0.0353  0.7872
 6075TIP3    H139640   5.483   5.410   3.548  1.0778 -0.5819  0.2976
 6075TIP3    H239641   5.519   5.557   3.552 -1.4377  0.0817  0.0815
 6076TIP3   OH239642   1.597   0.931   3.800 -0.2044  0.1393 -0.1125
 6076TIP3    H139643   1.514   0.978   3.810 -0.0097  0.2964  0.9184
 6076TIP3    H239644   1.595   0.863   3.867  0.4843  0.1208 -0.0984
 6077TIP3   OH239645   2.256   5.896  15.764 -0.4909 -0.0980 -0.4760
 6077TIP3    H139646   2.210   5.971  15.800  1.1332  0.9931 -0.6042
 6077TIP3    H239647   2.306   5.931  15.691 -0.4739 -1.5034 -1.1764
 6078TIP3   OH239648   0.058   0.034   3.466 -0.1358  0.2434 -0.3621
 6078TIP3    H139649   0.087   0.029   3.374 -0.6342  2.2628 -0.6771
 6078TIP3    H239650   0.060  -0.057   3.496 -0.7609 -0.5908 -2.6090
 6079TIP3   OH239651   1.313   6.598  16.340 -0.3965 -0.4157  0.0739
 6079TIP3    H139652   1.290   6.604  16.433 -1.5009 -2.6669  0.0159
 6079TIP3    H239653   1.229   6.595  16.295  0.1363  0.1323 -0.9789
 6080TIP3   OH239654   5.964   2.979  12.669 -0.3491  0.6553  0.2124
 6080TIP3    H139655   5.912   3.001  12.746  1.2034 -1.9540  2.1906
 6080TIP3    H239656   5.992   3.063  12.634 -2.2906  1.9773  1.6248
 6081TIP3   OH239657   0.773   0.476   4.981 -0.5631  0.2379 -0.0592
 6081TIP3    H139658   0.719   0.526   4.920 -0.9403  1.2477  1.0627
 6081TIP3    H239659   0.718   0.467   5.059  0.3257 -0.0603  0.5380
 6082TIP3   OH239660   2.337   2.411  12.157  0.0833 -0.4485 -0.5469
 6082TIP3    H139661   2.345   2.365  12.241 -0.6753 -0.8525 -0.6913
 6082TIP3    H239662   2.342   2.343  12.091  2.6029  0.0325 -0.9705
 6083TIP3   OH239663   1.946   2.300   4.439 -0.4224  0.0325  0.0105
 6083TIP3    H139664   1.883   2.230   4.461 -0.5968  0.2815  0.3103
 6083TIP3    H239665   2.021   2.254   4.402 -0.4829 -0.3293  0.3297
 6084TIP3   OH239666   4.098   4.340  15.851 -0.4659 -0.5713  0.0904
 6084TIP3    H139667   4.084   4.248  15.830  0.7715 -0.5859 -0.7483
 6084TIP3    H239668   4.108   4.342  15.946 -2.1575 -1.0573  0.3058
 6085TIP3   OH239669   6.677   6.503   0.217 -0.3381 -0.5316 -0.3911
 6085TIP3    H139670   6.742   6.512   0.147 -0.1828 -0.2447 -0.2132
 6085TIP3    H239671   6.633   6.420   0.199 -0.8096 -0.1052 -1.2428
 6086TIP3   OH239672   3.806   5.540   5.523 -0.6972 -0.0118 -0.0740
 6086TIP3    H139673   3.721   5.531   5.566 -0.1277 -0.2982  1.0320
 6086TIP3    H239674   3.797   5.490   5.442 -1.5659 -0.0753  0.0478
 6087TIP3   OH239675   1.512   2.009   0.724 -0.4377 -0.6220  0.6735
 6087TIP3    H139676   1.499   2.096   0.686 -2.1664 -1.0678  0.1586
 6087TIP3    H239677   1.582   2.021   0.788 -1.2879  1.3632  1.3152
 6088TIP3   OH239678   0.486   0.824  12.469 -0.1302 -0.3597 -0.4136
 6088TIP3    H139679   0.420   0.837  12.537 -0.6276 -2.3234 -0.4634
 6088TIP3    H239680   0.482   0.731  12.449 -0.4302  0.1981 -3.5808
 6089TIP3   OH239681   1.192   3.880  16.893  0.1271 -0.0561 -0.4577
 6089TIP3    H139682   1.112   3.933  16.888  0.5106  0.4729 -1.1006
 6089TIP3    H239683   1.166   3.794  16.860 -0.3639 -0.1109  0.0630
 6090TIP3   OH239684   2.761   0.180   5.278  0.1424 -0.5231  0.8447
 6090TIP3    H139685   2.714   0.097   5.279  1.4065 -1.3001  2.6840
 6090TIP3    H239686   2.740   0.219   5.193 -0.4014 -2.7654 -0.1220
 6091TIP3   OH239687   4.333   2.633  14.060  0.0981 -0.0909 -0.0469
 6091TIP3    H139688   4.252   2.583  14.049  0.7898 -0.7048 -3.8935
 6091TIP3    H239689   4.399   2.567  14.083  0.0906 -0.1131 -0.0892
 6092TIP3   OH239690   1.109   5.691   3.678  0.6057  0.2508  0.6023
 6092TIP3    H139691   1.189   5.743   3.666  1.5111 -1.2898 -0.4468
 6092TIP3    H239692   1.138   5.600   3.665 -1.2859 -0.3620  0.4368
 6093TIP3   OH239693   2.931   0.262  14.632  0.6362  0.3512 -0.2386
 6093TIP3    H139694   2.906   0.232  14.545 -0.6326  0.6439  0.0029
 6093TIP3    H239695   2.854   0.246  14.686  1.3563  0.2985  0.8064
 6094TIP3   OH239696   0.740   4.505  14.791 -0.5434 -0.0560 -0.5859
 6094TIP3    H139697   0.771   4.417  14.807 -0.6510 -0.1491 -0.8714
 6094TIP3    H239698   0.744   4.549  14.876 -0.7236 -0.4073 -0.3963
 6095TIP3   OH239699   5.258   5.602  13.540 -0.0937 -0.3218 -0.2321
 6095TIP3    H139700   5.339   5.600  13.591 -0.9327 -0.2362  1.1488
 6095TIP3    H239701   5.219   5.516  13.555  1.5645 -1.9726 -4.0742
 6096TIP3   OH239702   5.835   2.800   1.814 -0.0135  0.3375 -0.0901
 6096TIP3    H139703   5.763   2.742   1.841 -0.7997  1.4311  0.2792
 6096TIP3    H239704   5.882   2.751   1.747  1.0089 -1.8408  2.0747
 6097TIP3   OH239705   5.188   5.473   5.087  0.2051  0.4844  0.4227
 6097TIP3    H139706   5.283   5.485   5.094  0.3742 -0.3156 -0.3071
 6097TIP3    H239707   5.151   5.558   5.112  1.1634  1.1260 -0.2468
 6098TIP3   OH239708   2.640   0.840   2.178  0.9647  0.3928 -0.4015
 6098TIP3    H139709   2.613   0.891   2.102 -0.4080  0.5769  0.1693
 6098TIP3    H239710   2.687   0.902   2.233  3.2028 -0.0764 -1.6872
 6099TIP3   OH239711   6.227   5.318  13.238  0.6952  0.0886  0.3305
 6099TIP3    H139712   6.218   5.355  13.150 -2.6713 -0.3970  0.3669
 6099TIP3    H239713   6.240   5.395  13.294 -1.7211  0.9140 -0.1254
 6100TIP3   OH239714   2.940   0.915   3.746  0.2569 -0.2885  0.1156
 6100TIP3    H139715   2.992   0.872   3.814 -0.0458 -0.3854  0.2855
 6100TIP3    H239716   2.975   1.004   3.742  1.5300 -0.7971 -0.8970
 6101TIP3   OH239717   3.900   1.120   4.485  0.5628  0.4934 -0.4018
 6101TIP3    H139718   3.897   1.028   4.512  2.6442  0.5046  0.0411
 6101TIP3    H239719   3.919   1.168   4.565 -2.5578  1.6213 -0.2116
 6102TIP3   OH239720   3.984   1.086   3.633  0.0358  0.0060 -0.1386
 6102TIP3    H139721   4.002   1.115   3.722 -0.4656  2.3267 -0.7383
 6102TIP3    H239722   4.070   1.059   3.599  0.5052  0.6143  0.5363
 6103TIP3   OH239723   0.364   3.842   3.484  0.3510  0.1701  0.1477
 6103TIP3    H139724   0.403   3.892   3.413  0.9226  0.9228  0.9625
 6103TIP3    H239725   0.338   3.759   3.445  0.6785  0.5642 -0.9208
 6104TIP3   OH239726   5.962   0.727  12.104  0.0904  0.0955 -0.1338
 6104TIP3    H139727   5.961   0.762  12.015 -0.4413  0.2219 -0.0856
 6104TIP3    H239728   5.974   0.804  12.160 -0.4475  0.1318 -0.0592
 6105TIP3   OH239729   1.793   0.882  15.363  0.3826  0.2469  0.2719
 6105TIP3    H139730   1.719   0.856  15.418 -1.2866  0.9924 -1.4897
 6105TIP3    H239731   1.870   0.848  15.408 -1.1342 -1.7950  1.4944
 6106TIP3   OH239732   1.381   5.548   2.942  0.4162 -0.3416 -0.4069
 6106TIP3    H139733   1.427   5.601   3.007  3.1117 -1.6112 -1.1372
 6106TIP3    H239734   1.288   5.559   2.963  0.9865  2.4532  1.1053
 6107TIP3   OH239735   3.266   5.900  13.929 -0.0016  0.3229 -0.4745
 6107TIP3    H139736   3.315   5.828  13.970 -0.3135 -0.0790 -0.7998
 6107TIP3    H239737   3.179   5.895  13.967 -0.1701  0.2098 -0.8690
 6108TIP3   OH239738   3.444   1.527   3.422 -0.1948  0.2075 -0.1228
 6108TIP3    H139739   3.526   1.512   3.374 -0.8181 -2.3927 -0.4912
 6108TIP3    H239740   3.465   1.508   3.513 -0.1502  0.5736 -0.0541
 6109TIP3   OH239741   5.925   4.299   0.581  0.3235 -0.8064 -0.1757
 6109TIP3    H139742   5.912   4.382   0.626  0.5911 -0.3701 -0.8860
 6109TIP3    H239743   5.935   4.323   0.489  1.4608 -1.5262 -0.2584
 6110TIP3   OH239744   4.258   5.210   1.847 -0.6302  0.4906  0.7945
 6110TIP3    H139745   4.277   5.126   1.889 -1.8511 -0.1144  0.2091
 6110TIP3    H239746   4.230   5.267   1.919  1.1317  0.7191  1.3330
 6111TIP3   OH239747   5.697   6.049  13.691  0.0507  0.4603  0.2550
 6111TIP3    H139748   5.670   6.113  13.758 -1.5470 -1.5194  1.6393
 6111TIP3    H239749   5.792   6.045  13.699  0.1597  2.3322  0.4061
 6112TIP3   OH239750   4.441   4.556   0.800 -0.0365  0.0088 -0.1450
 6112TIP3    H139751   4.491   4.483   0.763  1.1312 -0.5917  2.3965
 6112TIP3    H239752   4.507   4.618   0.830 -1.0056  2.6948 -3.0376
 6113TIP3   OH239753   0.539   2.210  11.694  0.2091  0.1555 -0.3984
 6113TIP3    H139754   0.511   2.128  11.734 -0.2162  0.4506 -0.0776
 6113TIP3    H239755   0.464   2.239  11.643 -0.6058  1.5842  1.4653
 6114TIP3   OH239756   1.364   5.263  12.577  0.6743 -0.1429  0.0222
 6114TIP3    H139757   1.326   5.346  12.548  0.8268 -0.4041 -0.9504
 6114TIP3    H239758   1.295   5.198  12.560  0.7297 -0.2868  0.3427
 6115TIP3   OH239759   0.305   3.257  14.089 -0.1647  0.0137 -0.1676
 6115TIP3    H139760   0.342   3.343  14.070  2.6483 -1.4150 -1.7780
 6115TIP3    H239761   0.275   3.225  14.003 -3.8182  0.3666  0.7961
 6116TIP3   OH239762   2.093   5.358   5.715  0.8277  0.3113  0.2821
 6116TIP3    H139763   2.119   5.311   5.794 -0.3210 -1.6885 -0.4557
 6116TIP3    H239764   1.999   5.369   5.724  0.8098  0.7989 -0.4375
 6117TIP3   OH239765   2.375   2.408   4.642  0.1552 -0.4736 -0.3184
 6117TIP3    H139766   2.284   2.382   4.656  0.0263  0.0508 -0.1434
 6117TIP3    H239767   2.369   2.500   4.614  0.7834  0.5350  2.5123
 6118TIP3   OH239768   1.563   3.560   5.879  0.5072 -0.4553 -0.2174
 6118TIP3    H139769   1.561   3.526   5.968 -1.7865 -1.0591 -0.4426
 6118TIP3    H239770   1.565   3.655   5.889  0.6384 -0.5286  0.4572
 6119TIP3   OH239771   5.521   5.012   4.400 -0.0344  0.0364  0.4003
 6119TIP3    H139772   5.454   5.020   4.333 -0.6531 -2.0878  0.6832
 6119TIP3    H239773   5.473   4.982   4.478  1.1600 -1.1606  0.7112
 6120TIP3   OH239774   5.737   1.027  13.360 -0.1924 -0.2751 -0.2128
 6120TIP3    H139775   5.734   1.058  13.269 -0.8427  1.3152  0.3337
 6120TIP3    H239776   5.819   1.062  13.395 -1.0268  1.0424  0.4677
 6121TIP3   OH239777   0.285   2.176  16.436  0.3278  0.2133  0.0847
 6121TIP3    H139778   0.243   2.191  16.352 -0.0159  1.9710  0.5228
 6121TIP3    H239779   0.226   2.116  16.482  0.5701 -0.8355 -0.9431
 6122TIP3   OH239780   5.147   3.022  14.973 -0.5894  0.6265 -0.0358
 6122TIP3    H139781   5.213   2.973  15.021  0.8649  1.1432 -1.4035
 6122TIP3    H239782   5.071   2.964  14.968  0.3644 -0.6492  0.1234
 6123TIP3   OH239783   5.891   5.584  12.623 -0.2446  0.4825  0.0406
 6123TIP3    H139784   5.821   5.648  12.639 -0.0634  0.6728  0.0812
 6123TIP3    H239785   5.957   5.633  12.574 -0.6036  0.0187 -0.9271
 6124TIP3   OH239786   3.093   5.365   3.003  0.0133  0.0387  0.3375
 6124TIP3    H139787   3.047   5.384   2.922 -1.4805 -0.8500  0.9410
 6124TIP3    H239788   3.100   5.449   3.048 -0.1041  0.3491 -0.2271
 6125TIP3   OH239789   5.686   1.698   4.953 -0.2101  0.4423  0.3175
 6125TIP3    H139790   5.683   1.711   5.047  3.4422 -1.4923  0.8914
 6125TIP3    H239791   5.671   1.604   4.942 -2.0938  0.8546 -1.2760
 6126TIP3   OH239792   5.543   0.543  14.139 -0.0527 -0.3953 -0.5286
 6126TIP3    H139793   5.477   0.605  14.107  0.1674 -0.6969 -1.6300
 6126TIP3    H239794   5.554   0.481  14.066  1.8022 -0.0568 -0.5813
 6127TIP3   OH239795   3.952   0.530  15.096  0.5457 -0.5689 -0.3782
 6127TIP3    H139796   3.943   0.477  15.176  1.0732 -1.1941 -0.7166
 6127TIP3    H239797   3.887   0.493  15.036  0.3938 -0.3325 -0.3582
 6128TIP3   OH239798   5.761   1.450   4.235  0.4020 -0.0215 -0.2493
 6128TIP3    H139799   5.713   1.533   4.223  1.8026  1.0206  0.9930
 6128TIP3    H239800   5.730   1.394   4.163 -2.0570  0.8593  0.0285
 6129TIP3   OH239801   0.343   1.767  16.591  0.1882 -0.4643  0.0365
 6129TIP3    H139802   0.306   1.734  16.673  0.3430 -1.9871 -0.4790
 6129TIP3    H239803   0.431   1.728  16.587  1.7471  2.6401  0.9730
 6130TIP3   OH239804   3.221   6.025   6.009 -0.0532  0.0432 -0.5029
 6130TIP3    H139805   3.148   5.964   6.012 -0.4982  0.5275 -1.1873
 6130TIP3    H239806   3.273   5.996   5.934  0.1364  0.0632 -0.3814
 6131TIP3   OH239807   6.589   2.422   4.210 -0.6074  0.4744  0.0139
 6131TIP3    H139808   6.666   2.402   4.265  0.6457 -0.0132 -1.8400
 6131TIP3    H239809   6.530   2.349   4.225 -0.1537  0.1897  0.4653
 6132TIP3   OH239810   6.091   3.405  15.117  0.0987 -0.7482  0.0927
 6132TIP3    H139811   6.031   3.413  15.042 -1.8015 -1.1604  1.5016
 6132TIP3    H239812   6.169   3.362  15.080 -1.2876 -2.1211 -1.3968
 6133TIP3   OH239813   4.043   0.002  13.814 -0.1291  0.2179 -0.3809
 6133TIP3    H139814   4.053   0.072  13.878  1.6375 -0.2972 -0.0519
 6133TIP3    H239815   4.124   0.004  13.762  0.1785 -1.8583 -0.0586
 6134TIP3   OH239816   0.489   3.415  11.628 -0.1309  0.0449 -0.2403
 6134TIP3    H139817   0.428   3.381  11.562 -1.4985  1.6580  0.1183
 6134TIP3    H239818   0.545   3.340  11.650 -0.7064 -0.9632 -2.0164
 6135TIP3   OH239819   2.122   2.972  10.661  0.0461 -0.2785  0.1195
 6135TIP3    H139820   2.077   3.052  10.690  0.4808  0.3317 -0.8711
 6135TIP3    H239821   2.108   2.910  10.733 -0.0234  0.7828  1.0407
 6136TIP3   OH239822   0.083   2.943   3.881 -0.3985  0.0443  0.6430
 6136TIP3    H139823   0.155   2.929   3.943 -0.3738  0.3891  0.6960
 6136TIP3    H239824   0.055   3.034   3.897  0.3196  0.5081 -0.5873
 6137TIP3   OH239825   4.901   0.582  15.102  0.2766  0.9905  0.0728
 6137TIP3    H139826   4.924   0.565  15.011 -0.2410 -0.1035  0.1348
 6137TIP3    H239827   4.949   0.662  15.124  3.0843 -0.5544 -0.1369
 6138TIP3   OH239828   3.124   5.666   0.135  0.3729 -0.3664 -0.3355
 6138TIP3    H139829   3.146   5.698   0.047 -0.0430  0.6419 -0.0804
 6138TIP3    H239830   3.039   5.706   0.155  0.3923 -0.7117  0.4735
 6139TIP3   OH239831   6.248   3.074  12.456 -0.0800  0.0790 -0.4798
 6139TIP3    H139832   6.244   3.044  12.365 -0.1095  0.5205 -0.6267
 6139TIP3    H239833   6.220   2.998  12.508 -1.3350  0.2292 -0.9108
 6140TIP3   OH239834   6.744   0.445  14.842  0.1766  0.4888 -0.6217
 6140TIP3    H139835   6.791   0.528  14.849  0.5686  0.2050  0.2680
 6140TIP3    H239836   6.781   0.402  14.765  1.0910  0.4555 -0.1772
 6141TIP3   OH239837   4.739   0.618  15.469 -0.6699 -0.1886 -0.0425
 6141TIP3    H139838   4.674   0.601  15.537  1.0689 -0.4205  1.6428
 6141TIP3    H239839   4.687   0.636  15.390 -2.7419 -1.2109  0.9999
 6142TIP3   OH239840   3.446   0.760   1.888 -0.2684  0.4577 -0.1113
 6142TIP3    H139841   3.404   0.838   1.925 -0.8723  0.6335 -1.1206
 6142TIP3    H239842   3.531   0.791   1.858  0.1583  0.3491  0.9597
 6143TIP3   OH239843   6.393   5.517  11.482  0.3142  0.7257  0.4155
 6143TIP3    H139844   6.306   5.547  11.511  0.6504  3.2448 -0.8964
 6143TIP3    H239845   6.384   5.422  11.474 -1.4263  0.5329  3.1140
 6144TIP3   OH239846   4.191   5.196   6.767  0.3822 -0.0146  0.3862
 6144TIP3    H139847   4.125   5.239   6.713 -0.5897 -1.3514  0.4805
 6144TIP3    H239848   4.273   5.211   6.720 -0.1517  0.6260 -0.3659
 6145TIP3   OH239849   1.329   6.506   0.167  0.6134 -0.3256 -0.7691
 6145TIP3    H139850   1.353   6.591   0.204  2.0923 -0.9494 -0.2129
 6145TIP3    H239851   1.264   6.527   0.100  1.4186  1.3261 -1.0958
 6146TIP3   OH239852   0.033   3.313   1.338  0.1407  0.4547 -0.4356
 6146TIP3    H139853   0.115   3.322   1.386  0.1315 -0.2100 -0.2756
 6146TIP3    H239854   0.056   3.330   1.247  0.4799  0.1960 -0.4013
 6147TIP3   OH239855   4.809   2.083  10.857 -0.0764 -0.9870  0.7667
 6147TIP3    H139856   4.866   2.145  10.901 -1.2857  0.4184  0.4307
 6147TIP3    H239857   4.810   2.110  10.765 -0.8946 -1.2166  0.6792
 6148TIP3   OH239858   3.753   1.474   6.482  0.3983 -0.0144  0.5737
 6148TIP3    H139859   3.803   1.553   6.501  1.4267 -0.6642  0.6556
 6148TIP3    H239860   3.791   1.407   6.539 -0.5709 -0.5358  0.6367
 6149TIP3   OH239861   5.068   5.326   5.637 -0.0700  0.1529 -0.3069
 6149TIP3    H139862   5.093   5.399   5.694  3.9347 -0.9811 -0.3197
 6149TIP3    H239863   5.059   5.366   5.550 -1.8748  1.1841  0.3029
 6150TIP3   OH239864   1.571   4.736  13.158  0.0962  0.0986  0.1227
 6150TIP3    H139865   1.658   4.730  13.198 -0.4841 -1.6752  1.2169
 6150TIP3    H239866   1.571   4.669  13.090 -0.5105 -0.1095  0.3240
 6151TIP3   OH239867   0.308   3.749   3.109 -0.0069  0.2720 -0.2229
 6151TIP3    H139868   0.253   3.766   3.033 -1.7810  2.1401  1.3473
 6151TIP3    H239869   0.301   3.829   3.162 -0.0209 -1.4397  2.5698
 6152TIP3   OH239870   5.766   3.088  16.742 -0.2044 -0.1905 -0.6002
 6152TIP3    H139871   5.729   3.100  16.830 -0.6418  0.6698 -0.8906
 6152TIP3    H239872   5.713   3.018  16.703  0.1842 -0.7819 -0.0816
 6153TIP3   OH239873   4.532   2.232   0.422 -0.8131 -0.2376 -0.1095
 6153TIP3    H139874   4.584   2.157   0.393  0.5711  0.9541 -0.8574
 6153TIP3    H239875   4.544   2.235   0.516 -0.1137 -0.4168 -0.1860
 6154TIP3   OH239876   5.244   1.934   3.434 -0.2832  0.3765 -0.0980
 6154TIP3    H139877   5.206   1.981   3.360 -0.3420  0.6309  0.0939
 6154TIP3    H239878   5.251   1.843   3.403  1.5255  0.8191 -1.1307
 6155TIP3   OH239879   4.496   2.110  13.493  0.1994  0.4204  0.1333
 6155TIP3    H139880   4.497   2.149  13.581 -0.1319  0.0476  0.3074
 6155TIP3    H239881   4.413   2.063  13.489  0.6968 -0.4849  0.0386
 6156TIP3   OH239882   5.308   2.812   4.309  0.2990 -0.6175 -0.0460
 6156TIP3    H139883   5.258   2.735   4.334  2.5201 -2.4111 -0.7351
 6156TIP3    H239884   5.294   2.820   4.214 -0.3139  0.1583  0.1000
 6157TIP3   OH239885   2.039   5.633   5.075  0.9669 -0.4843 -0.4928
 6157TIP3    H139886   1.953   5.677   5.078  1.3408  0.2330  0.0091
 6157TIP3    H239887   2.083   5.672   5.000  0.4875 -1.5731 -1.3605
 6158TIP3   OH239888   1.150   4.228   3.404  0.5278  0.0647 -0.4031
 6158TIP3    H139889   1.082   4.212   3.339  0.6891  0.5364 -0.6975
 6158TIP3    H239890   1.232   4.213   3.357  0.6762  1.4715 -0.6261
 6159TIP3   OH239891   0.921   4.344  16.330  0.0801  0.2157  0.2207
 6159TIP3    H139892   0.898   4.327  16.239 -0.2258 -1.1838  0.5379
 6159TIP3    H239893   0.865   4.418  16.356  2.2907  2.6816 -1.5515
 6160TIP3   OH239894   0.603   2.173   2.235 -0.5298  0.4662 -0.0088
 6160TIP3    H139895   0.561   2.087   2.243 -0.1987  0.3058  0.0079
 6160TIP3    H239896   0.695   2.156   2.252 -0.3980  0.7554 -0.4248
 6161TIP3   OH239897   6.304   1.021   1.948 -0.2955  0.1013 -0.1115
 6161TIP3    H139898   6.357   1.052   2.021  0.0245  0.1459 -0.3630
 6161TIP3    H239899   6.308   0.926   1.954 -0.1110  0.1052 -0.1888
 6162TIP3   OH239900   1.871   5.115  13.768 -0.2089 -0.6948  0.5509
 6162TIP3    H139901   1.876   5.160  13.684  3.2467 -0.3009  0.8138
 6162TIP3    H239902   1.815   5.172  13.822  1.4783  1.7399 -0.0851
 6163TIP3   OH239903   2.376   4.712   3.926  0.3593  0.2434  0.1033
 6163TIP3    H139904   2.354   4.679   4.013 -1.4523 -0.0441 -0.4123
 6163TIP3    H239905   2.471   4.719   3.926  0.6928 -2.7915  1.0218
 6164TIP3   OH239906   4.029   1.825  16.582 -0.1513  0.1470  0.0882
 6164TIP3    H139907   4.007   1.906  16.536  0.2800  0.2335  0.0304
 6164TIP3    H239908   3.961   1.763  16.556  0.6726 -0.1307 -1.5200
 6165TIP3   OH239909   5.122   2.450   0.891  0.5818  0.3154 -0.1687
 6165TIP3    H139910   5.105   2.495   0.974  0.4004  0.1537 -0.1162
 6165TIP3    H239911   5.136   2.359   0.915 -0.5019  0.0646 -0.4032
 6166TIP3   OH239912   2.611   1.956   4.683  0.2893  0.1894 -0.1843
 6166TIP3    H139913   2.670   2.019   4.642  0.1511  0.0945 -0.5313
 6166TIP3    H239914   2.609   1.981   4.776  0.6740  0.3483 -0.2174
 6167TIP3   OH239915   0.504   5.374  13.014  0.7987 -0.5662  0.4524
 6167TIP3    H139916   0.517   5.348  12.923  1.4860 -1.7632  0.8558
 6167TIP3    H239917   0.587   5.415  13.040 -0.3005  2.2851 -0.1924
 6168TIP3   OH239918   5.206   2.465   6.000  0.1207 -0.2363  0.0731
 6168TIP3    H139919   5.139   2.432   5.940  0.1605  0.3789 -0.3170
 6168TIP3    H239920   5.161   2.528   6.056  0.2076 -0.3988  0.3298
 6169TIP3   OH239921   5.966   3.905  13.823  0.4546  0.1936  0.7749
 6169TIP3    H139922   6.013   3.927  13.903  1.3638 -1.3753  0.7027
 6169TIP3    H239923   5.994   3.816  13.802 -0.8458  0.0512 -0.5152
 6170TIP3   OH239924   5.139   1.734  15.749  0.2697  0.0327 -0.0710
 6170TIP3    H139925   5.141   1.830  15.752 -0.5966  0.1010 -1.1032
 6170TIP3    H239926   5.192   1.711  15.673  0.2848 -0.3014  0.0393
 6171TIP3   OH239927   1.615   0.746  15.089  0.0705  0.5026 -0.2520
 6171TIP3    H139928   1.708   0.729  15.105 -0.0816  0.0220  0.1676
 6171TIP3    H239929   1.573   0.661  15.104 -0.4375  0.7247 -0.4073
 6172TIP3   OH239930   0.403   3.818   4.345 -0.1086 -0.6536 -0.2733
 6172TIP3    H139931   0.406   3.886   4.277  0.6292 -0.0634  0.3338
 6172TIP3    H239932   0.436   3.739   4.301  1.3965 -0.0264 -0.3456
 6173TIP3   OH239933   2.638   4.984  11.481 -0.3779 -0.5124 -0.0683
 6173TIP3    H139934   2.685   4.970  11.398 -2.4038  1.3250 -1.6674
 6173TIP3    H239935   2.546   4.971  11.458 -1.0827  1.1252  1.6186
 6174TIP3   OH239936   0.953   2.285  12.680  0.4838  0.0762  0.1214
 6174TIP3    H139937   0.951   2.343  12.604 -2.7011 -0.1163 -0.0849
 6174TIP3    H239938   0.863   2.285  12.713  1.3166 -1.4184  2.7153
 6175TIP3   OH239939   6.494   4.061  14.827 -0.1919 -0.1512  0.0291
 6175TIP3    H139940   6.554   3.987  14.815 -1.4787 -1.4050  1.0461
 6175TIP3    H239941   6.424   4.045  14.764 -0.8309 -0.1877  0.7424
 6176TIP3   OH239942   5.057   2.124   5.420  0.3698 -0.3194  0.4805
 6176TIP3    H139943   5.039   2.113   5.326  1.5485  0.0179  0.2030
 6176TIP3    H239944   5.042   2.217   5.437 -0.5287 -0.5140  0.7897
 6177TIP3   OH239945   3.520   4.903   0.732  0.3595 -0.0817  0.6617
 6177TIP3    H139946   3.574   4.978   0.759  0.9834 -0.1707 -0.2978
 6177TIP3    H239947   3.579   4.828   0.737  0.3503 -0.1755 -0.4287
 6178TIP3   OH239948   0.795   3.642  16.752  0.5615 -0.8041  0.1224
 6178TIP3    H139949   0.890   3.642  16.758  0.5904  1.8465  0.5619
 6178TIP3    H239950   0.766   3.586  16.824  1.7535 -0.6295  0.7523
 6179TIP3   OH239951   1.670   5.044  15.001 -0.5080  0.0775  0.2006
 6179TIP3    H139952   1.655   4.952  14.982  0.5450  0.1668 -1.2351
 6179TIP3    H239953   1.765   5.051  15.013 -0.5040  1.0421 -0.2363
 6180TIP3   OH239954   5.376   4.408  15.067 -0.3141  0.2235 -0.4246
 6180TIP3    H139955   5.293   4.388  15.111  0.2085  0.4170  0.6859
 6180TIP3    H239956   5.388   4.502  15.081  1.5828 -0.2985  2.1750
 6181TIP3   OH239957   3.831   6.404  14.954 -0.4022  0.4763  0.1256
 6181TIP3    H139958   3.920   6.404  14.990 -0.5911  0.6096  0.5920
 6181TIP3    H239959   3.844   6.402  14.859  0.1073 -0.8149  0.1932
 6182TIP3   OH239960   5.563   2.334   0.163  0.2241 -0.2648 -0.0226
 6182TIP3    H139961   5.565   2.247   0.203  2.4785 -0.7873 -1.0568
 6182TIP3    H239962   5.608   2.390   0.226  0.1828 -0.2088 -0.0434
 6183TIP3   OH239963   4.159   2.784   2.949 -0.1176  0.2453  0.6144
 6183TIP3    H139964   4.250   2.792   2.921  0.1573 -1.3981  0.8847
 6183TIP3    H239965   4.157   2.701   2.997 -1.7056  0.3896  0.8477
 6184TIP3   OH239966   6.264   2.333   1.139 -0.0516  0.3517 -0.2352
 6184TIP3    H139967   6.238   2.331   1.231  2.3977 -2.0954  0.5531
 6184TIP3    H239968   6.234   2.249   1.104  1.7880 -0.1575 -0.7185
 6185TIP3   OH239969   4.512   0.342  12.152  0.2704 -0.3074 -0.1441
 6185TIP3    H139970   4.581   0.312  12.094 -0.7662 -0.4571 -1.3462
 6185TIP3    H239971   4.519   0.438  12.151 -0.2073 -0.2770 -1.1217
 6186TIP3   OH239972   4.433   5.550  11.325  0.5680  0.6522  0.2092
 6186TIP3    H139973   4.476   5.465  11.321  0.9613  0.8183  0.7458
 6186TIP3    H239974   4.344   5.534  11.293 -0.4217 -0.7004  3.2117
 6187TIP3   OH239975   2.259   5.926  16.073  0.9331 -0.1845 -0.1862
 6187TIP3    H139976   2.313   5.932  15.994  1.3345  0.4876  0.1267
 6187TIP3    H239977   2.256   6.016  16.106 -0.9480 -0.0763 -0.5762
 6188TIP3   OH239978   1.515   6.293   1.963  0.3242  0.5068  0.0173
 6188TIP3    H139979   1.494   6.348   1.887  0.2009  0.3174 -0.0841
 6188TIP3    H239980   1.569   6.350   2.019 -1.6680  1.5418  1.0057
 6189TIP3   OH239981   6.695   3.225   5.513 -0.8623 -0.0594 -0.5933
 6189TIP3    H139982   6.750   3.208   5.590 -0.5818 -1.8593 -1.1255
 6189TIP3    H239983   6.714   3.315   5.489 -0.2850  0.2533  0.9155
 6190TIP3   OH239984   1.897   0.444   6.743 -0.0717 -0.0949  0.2339
 6190TIP3    H139985   1.965   0.379   6.764 -0.1685 -0.6936 -1.1814
 6190TIP3    H239986   1.915   0.517   6.802  0.6431 -1.0096  1.1878
 6191TIP3   OH239987   5.629   0.468  11.632  0.0916 -0.4117 -0.0450
 6191TIP3    H139988   5.552   0.508  11.672  0.1544 -0.8584  0.5390
 6191TIP3    H239989   5.675   0.540  11.590 -0.8233 -0.1894 -0.6948
 6192TIP3   OH239990   3.561   5.460   5.358 -0.1879 -0.0149 -0.2763
 6192TIP3    H139991   3.511   5.537   5.383 -1.7361 -0.6576 -1.2730
 6192TIP3    H239992   3.503   5.386   5.378  1.2630 -0.9453  0.6737
 6193TIP3   OH239993   2.361   2.906  15.876  0.7037  0.1157  0.3555
 6193TIP3    H139994   2.454   2.919  15.858  0.7711  0.0873  0.6855
 6193TIP3    H239995   2.317   2.973  15.823  1.0687  2.2383  2.5319
 6194TIP3   OH239996   1.910   3.235   3.608  0.0353 -0.2839 -0.4068
 6194TIP3    H139997   2.004   3.242   3.629  0.0938  0.4141 -0.8997
 6194TIP3    H239998   1.887   3.320   3.572 -1.0306 -0.1083  0.6328
 6195TIP3   OH239999   3.801   4.964   5.602 -0.2243 -1.0417 -0.3818
 6195TIP3    H140000   3.743   4.950   5.677  0.3524  1.2078  0.5630
 6195TIP3    H240001   3.789   4.885   5.548 -1.2306 -2.3900  1.6550
 6196TIP3   OH240002   0.792   5.525  13.645 -0.2390 -0.1930 -0.4559
 6196TIP3    H140003   0.735   5.514  13.721 -0.3490  1.3758 -0.2754
 6196TIP3    H240004   0.860   5.458  13.657 -0.0877  0.2015  1.1880
 6197TIP3   OH240005   1.025   1.535  11.705  0.2252  0.3297 -0.1481
 6197TIP3    H140006   1.019   1.576  11.618  1.0844 -1.0342 -0.8792
 6197TIP3    H240007   1.038   1.608  11.765  0.4254  1.2376 -1.2605
 6198TIP3   OH240008   1.346   3.994   3.759  0.0077 -0.0101 -0.5746
 6198TIP3    H140009   1.265   3.974   3.711  0.1001 -0.8282 -0.3932
 6198TIP3    H240010   1.416   3.968   3.700  0.2333  2.4740 -1.5609
 6199TIP3   OH240011   1.046   5.351   1.042 -0.5647  0.1047 -0.5957
 6199TIP3    H140012   1.096   5.349   0.960 -0.8818 -0.9406 -0.7723
 6199TIP3    H240013   1.076   5.274   1.090 -2.4382 -0.9249 -0.9831
 6200TIP3   OH240014   1.576   0.767   1.503  0.1086  0.5189  0.7841
 6200TIP3    H140015   1.502   0.792   1.448 -0.8487  0.9349  2.2088
 6200TIP3    H240016   1.561   0.674   1.521 -0.7345  0.8702  2.0129
 6201TIP3   OH240017   0.970   4.316  14.693 -0.3118 -0.4101 -0.2744
 6201TIP3    H140018   1.063   4.315  14.718 -0.5835  0.0507  0.8233
 6201TIP3    H240019   0.953   4.407  14.669 -0.8518 -0.1319  1.0815
 6202TIP3   OH240020   4.855   0.627   5.088 -0.6268 -0.5544 -0.5249
 6202TIP3    H140021   4.764   0.652   5.102 -0.1490  0.3549  1.1778
 6202TIP3    H240022   4.902   0.710   5.080  0.3267 -0.9563  0.6133
 6203TIP3   OH240023   6.712   4.853   5.359  0.0927  0.0453 -0.0634
 6203TIP3    H140024   6.657   4.822   5.287 -0.1886  1.3945 -0.4543
 6203TIP3    H240025   6.653   4.860   5.433  0.3312 -1.1119  0.2486
 6204TIP3   OH240026   0.575   1.504   1.378  0.2432  0.1156 -0.2357
 6204TIP3    H140027   0.611   1.452   1.450  0.4120 -0.3041 -0.6105
 6204TIP3    H240028   0.620   1.588   1.384 -1.7554  1.1498  1.8516
 6205TIP3   OH240029   5.190   6.608   1.894 -0.0907 -0.0116  0.1255
 6205TIP3    H140030   5.105   6.626   1.933 -0.1648  1.6391 -0.7457
 6205TIP3    H240031   5.171   6.586   1.803  0.4699  1.2489 -0.3062
 6206TIP3   OH240032   3.024   6.603  16.357 -0.4551 -0.0251 -0.2697
 6206TIP3    H140033   3.029   6.534  16.423 -0.5756  0.0799 -0.1514
 6206TIP3    H240034   2.931   6.621  16.347 -0.3861  0.8556  0.4733
 6207TIP3   OH240035   1.916   2.174  16.106 -0.5491 -0.2048 -0.3357
 6207TIP3    H140036   1.868   2.151  16.027 -1.2850 -0.2395  0.1101
 6207TIP3    H240037   1.853   2.162  16.177 -0.2495  0.8827  0.1477
 6208TIP3   OH240038   0.852   0.020   5.949  0.1626  0.5791  0.3232
 6208TIP3    H140039   0.798   0.077   6.003 -3.2425 -1.5846 -0.5005
 6208TIP3    H240040   0.877   0.074   5.874 -2.7864  1.2220 -0.3393
 6209TIP3   OH240041   0.516   3.418   2.754 -0.2090  0.1184  0.2609
 6209TIP3    H140042   0.569   3.362   2.811  0.2241  1.5582  1.3346
 6209TIP3    H240043   0.546   3.507   2.773 -1.0083  0.7500 -1.2469
 6210TIP3   OH240044   2.168   5.058   3.625 -0.0862  0.2982  0.3930
 6210TIP3    H140045   2.255   5.089   3.652  0.4485 -0.2357 -0.6884
 6210TIP3    H240046   2.119   5.139   3.608  0.5687  0.5957 -0.1313
 6211TIP3   OH240047   2.953   1.012  14.651 -0.0501  0.3940  0.1756
 6211TIP3    H140048   3.039   0.979  14.626  0.8300  1.4425  1.6699
 6211TIP3    H240049   2.916   0.944  14.708 -0.5710 -0.3908 -1.0428
 6212TIP3   OH240050   2.608   3.524  16.065 -0.1090  0.0668 -0.6243
 6212TIP3    H140051   2.520   3.530  16.102 -0.2629  0.8347 -1.0751
 6212TIP3    H240052   2.654   3.599  16.102 -0.0284  0.3836 -1.3511
 6213TIP3   OH240053   5.124   4.512  12.581  0.8383 -0.0592  0.4510
 6213TIP3    H140054   5.199   4.494  12.638  1.2202  0.4638  0.1173
 6213TIP3    H240055   5.145   4.469  12.498 -0.0248 -1.4127  0.8967
 6214TIP3   OH240056   0.861   4.862   5.602  0.1039 -0.3252 -0.1504
 6214TIP3    H140057   0.826   4.875   5.690  0.7517 -0.2157  0.0916
 6214TIP3    H240058   0.797   4.906   5.545 -1.4338 -2.1452  0.0493
 6215TIP3   OH240059   3.073   4.509   3.092  0.0732 -0.4149  0.1343
 6215TIP3    H140060   3.115   4.528   3.008  0.8729 -2.0556  0.1170
 6215TIP3    H240061   3.109   4.574   3.152 -0.2761  0.5794 -0.7157
 6216TIP3   OH240062   5.662   5.551   4.338 -0.2813 -0.0608  0.1166
 6216TIP3    H140063   5.685   5.538   4.430 -0.7398  0.4450  0.3068
 6216TIP3    H240064   5.585   5.495   4.325 -1.1745  1.0404  0.4683
 6217TIP3   OH240065   0.875   6.492   3.743 -0.2401 -0.0361 -0.2333
 6217TIP3    H140066   0.863   6.502   3.649 -1.2381 -1.2039 -0.2504
 6217TIP3    H240067   0.899   6.399   3.755  1.6569  0.4879  0.5144
 6218TIP3   OH240068   5.443   1.788   0.211  0.1749 -0.2535 -0.3406
 6218TIP3    H140069   5.373   1.852   0.199 -0.8833 -1.5779 -1.5084
 6218TIP3    H240070   5.511   1.836   0.257 -1.6837  0.9641  1.3095
 6219TIP3   OH240071   3.660   4.866  14.973  0.0831  0.1512 -0.1864
 6219TIP3    H140072   3.742   4.874  15.023 -0.5963 -1.4581  1.2931
 6219TIP3    H240073   3.594   4.906  15.029 -0.2173  1.2106 -1.2654
 6220TIP3   OH240074   1.583   5.765  15.365 -0.0475 -0.0467  0.2356
 6220TIP3    H140075   1.665   5.806  15.339 -0.4980  1.7063  1.3829
 6220TIP3    H240076   1.608   5.679  15.398  1.1748  0.0073 -0.4808
 6221TIP3   OH240077   6.150   4.713   2.172 -0.4980 -0.5803  0.8264
 6221TIP3    H140078   6.146   4.680   2.262  0.2846 -2.0751  0.3356
 6221TIP3    H240079   6.079   4.668   2.127  0.3065 -1.2940  0.2514
 6222TIP3   OH240080   2.010   5.463  12.288 -0.0580 -0.3679  0.2950
 6222TIP3    H140081   2.071   5.536  12.280 -0.5404  0.0929  0.7969
 6222TIP3    H240082   2.051   5.393  12.238  0.0575  0.4642 -0.8071
 6223TIP3   OH240083   5.124   1.897  11.375 -0.3526 -0.4169  0.4080
 6223TIP3    H140084   5.121   1.990  11.398  0.1512 -0.2419 -0.2002
 6223TIP3    H240085   5.179   1.893  11.297 -1.4486 -1.0677 -0.3661
 6224TIP3   OH240086   5.219   4.779  13.166 -0.4513  0.1877 -0.2272
 6224TIP3    H140087   5.171   4.741  13.239  0.2521  1.3453  0.8883
 6224TIP3    H240088   5.304   4.736  13.168 -0.4949  0.0871 -0.4896
 6225TIP3   OH240089   2.395   5.868   2.762  0.1180  0.3087  0.1037
 6225TIP3    H140090   2.465   5.825   2.713 -0.6099 -0.5609 -0.1997
 6225TIP3    H240091   2.316   5.817   2.741 -0.8021  1.8487 -0.3399
 6226TIP3   OH240092   4.327   0.793  15.881 -0.5310 -0.1681  0.3051
 6226TIP3    H140093   4.327   0.699  15.866  0.4260 -0.0924 -0.2149
 6226TIP3    H240094   4.257   0.807  15.946 -0.1162 -1.3217  1.0254
 6227TIP3   OH240095   4.839   4.395  14.178 -0.3725  0.1653 -0.7257
 6227TIP3    H140096   4.908   4.350  14.128  0.1239  0.3570 -0.2290
 6227TIP3    H240097   4.810   4.466  14.121  1.4194  1.4777 -0.0817
 6228TIP3   OH240098   0.450   3.449  10.453  0.1801  0.3359 -0.0622
 6228TIP3    H140099   0.505   3.511  10.406 -0.1543  0.5369 -0.1865
 6228TIP3    H240100   0.503   3.424  10.529  0.5186  0.3860 -0.2778
 6229TIP3   OH240101   6.192   3.977   4.484  0.1452  0.2368  0.1718
 6229TIP3    H140102   6.097   3.986   4.494  0.0861  0.0059 -0.1687
 6229TIP3    H240103   6.224   4.067   4.475 -0.4041  0.2327 -2.8711
 6230TIP3   OH240104   6.467   5.920   2.569 -0.3571  0.1756 -0.3355
 6230TIP3    H140105   6.532   5.871   2.519  0.2270  0.1435  0.4249
 6230TIP3    H240106   6.449   5.998   2.517  1.5893  1.0479  0.2059
 6231TIP3   OH240107   3.755   1.483   4.074 -0.6922  0.6225  0.2366
 6231TIP3    H140108   3.743   1.437   3.991 -0.7093 -0.2629  0.7103
 6231TIP3    H240109   3.674   1.533   4.085 -0.9054  0.3427 -0.0370
 6232TIP3   OH240110   3.152   3.154  15.792 -0.2920  0.1624 -0.7898
 6232TIP3    H140111   3.088   3.084  15.807  0.3257 -0.6340 -1.7789
 6232TIP3    H240112   3.231   3.109  15.761  0.5777  1.1782 -0.1563
 6233TIP3   OH240113   1.600   1.793   1.731  0.1176  0.0335 -0.0861
 6233TIP3    H140114   1.649   1.713   1.712 -0.1043  0.0698 -0.8436
 6233TIP3    H240115   1.619   1.851   1.657  2.3603  1.6951  1.6588
 6234TIP3   OH240116   3.887   4.843   6.936  0.5790 -0.2132  0.1609
 6234TIP3    H140117   3.968   4.818   6.893  1.1022  0.5688  0.6665
 6234TIP3    H240118   3.897   4.937   6.954 -0.0850 -0.2860  0.9816
 6235TIP3   OH240119   5.848   1.720   3.453  0.2847 -0.7488 -0.0834
 6235TIP3    H140120   5.929   1.727   3.503  0.0790 -1.7819  0.4230
 6235TIP3    H240121   5.783   1.765   3.507  0.7438  1.3069 -1.1229
 6236TIP3   OH240122   5.140   4.084  11.164  0.1935 -0.1535 -0.3938
 6236TIP3    H140123   5.059   4.135  11.172 -0.9277 -1.5052 -2.3314
 6236TIP3    H240124   5.116   4.010  11.108  2.9468 -0.2510 -1.5844
 6237TIP3   OH240125   2.499   0.173  11.502  0.4226 -0.0430 -0.0662
 6237TIP3    H140126   2.521   0.102  11.562  0.6931  1.0468  1.1714
 6237TIP3    H240127   2.583   0.203  11.468  0.2352 -1.1495 -1.6586
 6238TIP3   OH240128   5.136   2.764   4.652 -0.1147  0.1210  0.2991
 6238TIP3    H140129   5.211   2.711   4.678 -1.0641 -0.5332  1.8781
 6238TIP3    H240130   5.085   2.708   4.595 -0.4611 -0.2250  0.9344
 6239TIP3   OH240131   2.964   1.329  11.671 -0.2190  0.4971  0.2225
 6239TIP3    H140132   3.021   1.381  11.614  0.7010  0.8777  1.4348
 6239TIP3    H240133   2.898   1.390  11.701 -2.0942 -0.2160 -2.1267
 6240TIP3   OH240134   1.117   5.115  12.867  0.2016  0.5846  0.1946
 6240TIP3    H140135   1.059   5.065  12.923  1.8894 -0.1458  1.3620
 6240TIP3    H240136   1.061   5.145  12.795 -0.9022 -3.1093 -0.6897
 6241TIP3   OH240137   4.084   2.487  13.969  0.4305 -0.2812  0.5379
 6241TIP3    H140138   4.028   2.418  14.005  0.1969 -0.0465  0.6238
 6241TIP3    H240139   4.047   2.569  14.003  0.4718 -0.0870  0.1196
 6242TIP3   OH240140   0.427   1.979   1.602  0.0129  0.1891  0.0284
 6242TIP3    H140141   0.502   1.958   1.547 -0.3583 -2.2811  0.3469
 6242TIP3    H240142   0.352   1.972   1.544 -0.4612 -3.2221  0.8565
 6243TIP3   OH240143   1.728   2.640  12.076  0.4633  0.6885 -0.5413
 6243TIP3    H140144   1.772   2.688  12.006 -0.7193  0.1360 -1.7308
 6243TIP3    H240145   1.696   2.560  12.033 -0.1210  0.2364  0.6801
 6244TIP3   OH240146   1.685   5.368   3.743 -0.0884 -0.3936 -0.3654
 6244TIP3    H140147   1.671   5.316   3.665  0.4407 -0.0183 -0.7215
 6244TIP3    H240148   1.598   5.386   3.777 -0.3793  0.2178 -1.3902
 6245TIP3   OH240149   3.484   0.894   2.282  0.4591  0.0277  0.8100
 6245TIP3    H140150   3.450   0.973   2.240  0.7885 -0.4980 -0.5034
 6245TIP3    H240151   3.495   0.918   2.374 -0.7127  1.0828  0.6901
 6246TIP3   OH240152   0.519   2.470  15.721  0.0598  0.3030  0.0468
 6246TIP3    H140153   0.424   2.462  15.725  0.1748 -2.0190 -0.1788
 6246TIP3    H240154   0.546   2.395  15.668  2.1443 -0.2384  1.7446
 6247TIP3   OH240155   6.193   2.447   4.778  0.0742  0.5826  0.4560
 6247TIP3    H140156   6.166   2.468   4.688 -1.1073 -2.1821  0.0661
 6247TIP3    H240157   6.122   2.481   4.833  0.2791  1.3347  0.2687
 6248TIP3   OH240158   6.229   6.505  15.749 -0.1037 -0.3927  0.1607
 6248TIP3    H140159   6.176   6.456  15.811  0.1535  0.9794  1.5141
 6248TIP3    H240160   6.252   6.586  15.795  0.7670  0.3148 -1.4336
 6249TIP3   OH240161   3.734   3.928  12.787  0.3450 -0.4316  0.5004
 6249TIP3    H140162   3.715   4.012  12.829  1.3356  0.5359 -0.8916
 6249TIP3    H240163   3.808   3.893  12.837 -0.8556 -1.1259  1.8741
 6250TIP3   OH240164   0.049   3.198   2.537 -0.2969  0.4228 -0.1247
 6250TIP3    H140165   0.127   3.243   2.503  0.6678 -0.3125  1.0295
 6250TIP3    H240166  -0.014   3.202   2.465  0.7064  1.2859 -0.9925
 6251TIP3   OH240167   1.696   1.642  13.859  0.1803 -0.4077  0.0320
 6251TIP3    H140168   1.727   1.551  13.852 -0.7019 -0.9364  2.2757
 6251TIP3    H240169   1.685   1.656  13.953 -2.0628  1.2193 -0.4188
 6252TIP3   OH240170   4.727   6.491  11.252  0.2465 -0.2015  0.5060
 6252TIP3    H140171   4.643   6.532  11.232  0.1596 -0.4925  0.2778
 6252TIP3    H240172   4.757   6.536  11.331 -0.5040 -0.6565  1.0601
 6253TIP3   OH240173   2.882   1.596  12.351 -0.2823  0.1595  0.2914
 6253TIP3    H140174   2.971   1.601  12.316 -1.0093  1.2266 -1.5113
 6253TIP3    H240175   2.854   1.506  12.332 -0.6498  0.6930 -1.9603
 6254TIP3   OH240176   2.278   3.918   4.218  0.5082 -0.2751  0.0798
 6254TIP3    H140177   2.280   3.891   4.310  1.3834 -0.6765 -0.0481
 6254TIP3    H240178   2.301   4.011   4.220 -2.9050  0.6994  0.5572
 6255TIP3   OH240179   1.224   3.974  11.369  0.0468  0.3840  0.8223
 6255TIP3    H140180   1.149   3.938  11.322  1.0384 -0.5929 -0.0826
 6255TIP3    H240181   1.300   3.946  11.317  1.0208  1.5768  1.5589
 6256TIP3   OH240182   3.777   2.393   4.109 -0.3475 -0.2806 -0.2877
 6256TIP3    H140183   3.693   2.418   4.071 -0.9196  1.4758  1.9181
 6256TIP3    H240184   3.803   2.469   4.162  2.8047 -0.6223 -1.1015
 6257TIP3   OH240185   5.058   1.044   4.508 -0.6156 -0.7569 -0.4213
 6257TIP3    H140186   4.973   1.058   4.549 -0.6021 -1.7261 -0.0380
 6257TIP3    H240187   5.091   0.964   4.548  0.0196 -0.9592 -1.3249
 6258TIP3   OH240188   6.032   4.248  16.208  0.3122 -0.2447  0.2538
 6258TIP3    H140189   6.080   4.231  16.289  0.6049 -0.2837  0.0741
 6258TIP3    H240190   6.100   4.272  16.145 -0.0181  1.0410  0.3539
 6259TIP3   OH240191   1.594   1.566   0.685 -0.4928  0.3301 -0.3145
 6259TIP3    H140192   1.601   1.483   0.733 -1.1171 -0.7418 -1.9751
 6259TIP3    H240193   1.612   1.633   0.750  0.7312 -1.1395  0.9340
 6260TIP3   OH240194   4.889   0.900  15.485  0.5835 -0.0856  0.2065
 6260TIP3    H140195   4.950   0.857  15.545  1.0879  0.9185  0.4484
 6260TIP3    H240196   4.895   0.850  15.404  1.1621 -0.4550  0.4732
 6261TIP3   OH240197   4.325   5.258  14.973  0.0546  0.4262  0.5804
 6261TIP3    H140198   4.403   5.299  15.012  0.1513  0.2517  0.5702
 6261TIP3    H240199   4.345   5.164  14.973 -0.9918  0.1631  2.4339
 6262TIP3   OH240200   1.981   6.410  16.993  0.5613 -0.4381  0.4229
 6262TIP3    H140201   1.896   6.453  17.000 -0.4544 -2.6075  3.3731
 6262TIP3    H240202   2.045   6.481  16.996 -1.0806  1.0895  0.7672
 6263TIP3   OH240203   0.555   0.771   6.666 -0.3525 -0.5270  0.0519
 6263TIP3    H140204   0.638   0.811   6.639 -0.3248  0.0505  0.9438
 6263TIP3    H240205   0.489   0.836   6.642 -0.6590 -1.3180 -1.3788
 6264TIP3   OH240206   3.363   3.931   4.244  0.2965  0.1730  0.2831
 6264TIP3    H140207   3.280   3.893   4.276 -0.9505  1.4766 -1.2649
 6264TIP3    H240208   3.368   3.904   4.153  1.9200 -0.3614  0.4959
 6265TIP3   OH240209   4.660   2.645  15.163 -0.5827  0.2092  0.0797
 6265TIP3    H140210   4.694   2.681  15.082  0.3391 -3.9025 -1.6163
 6265TIP3    H240211   4.734   2.648  15.224 -0.7190  1.6110  0.1969
 6266TIP3   OH240212   2.271   0.810  14.672  0.0783 -0.7904  0.4006
 6266TIP3    H140213   2.176   0.812  14.659  0.1750 -1.3474 -0.4366
 6266TIP3    H240214   2.284   0.760  14.752 -0.2621 -2.1227 -0.3565
 6267TIP3   OH240215   3.152   5.029   1.556 -0.2296  0.6397  0.2650
 6267TIP3    H140216   3.196   4.952   1.519 -1.6007  0.3844 -0.9322
 6267TIP3    H240217   3.061   5.020   1.527 -0.7440  1.9121  1.4323
 6268TIP3   OH240218   0.628   2.081  12.524  0.1268  0.1909  1.0157
 6268TIP3    H140219   0.548   2.132  12.516 -0.6015 -1.0909 -0.2657
 6268TIP3    H240220   0.695   2.133  12.479 -0.8543 -0.4217 -1.3026
 6269TIP3   OH240221   2.829   3.019   5.281  0.3480 -0.1961 -0.4825
 6269TIP3    H140222   2.831   2.982   5.369  0.9842 -0.9549 -0.8020
 6269TIP3    H240223   2.737   3.021   5.257  0.0216  1.3141  0.7189
 6270TIP3   OH240224   6.657   0.392  12.680  0.0487  0.4311  0.3813
 6270TIP3    H140225   6.683   0.396  12.588  0.2379 -0.3395  0.3915
 6270TIP3    H240226   6.643   0.483  12.706  1.3852  0.7635 -0.0143
 6271TIP3   OH240227   1.252   3.461  11.416 -0.5808  0.5847 -0.3688
 6271TIP3    H140228   1.309   3.384  11.412  0.5086  1.3951 -1.3535
 6271TIP3    H240229   1.168   3.427  11.448  0.2358 -0.7695  0.4448
 6272TIP3   OH240230   1.494   6.060  11.803 -0.6722  0.2851 -0.0361
 6272TIP3    H140231   1.532   6.110  11.874  1.8399 -0.5564 -0.6875
 6272TIP3    H240232   1.526   6.102  11.723 -1.7521 -0.0157 -0.6568
 6273TIP3   OH240233   5.069   5.603   0.458  0.1923  0.3306  0.1673
 6273TIP3    H140234   5.048   5.531   0.516 -1.1832  1.3732  1.0110
 6273TIP3    H240235   4.997   5.665   0.467 -0.0154  0.6324 -2.5274
 6274TIP3   OH240236   1.251   5.076  16.815 -0.5203 -0.3800 -0.4862
 6274TIP3    H140237   1.265   5.143  16.749 -0.1659 -0.5215 -0.5571
 6274TIP3    H240238   1.337   5.037  16.829 -0.2637  0.6869  1.1862
 6275TIP3   OH240239   2.063   4.223   5.653 -0.3689  0.4400  1.0389
 6275TIP3    H140240   2.138   4.179   5.692 -0.3146  0.9239  1.4735
 6275TIP3    H240241   2.032   4.161   5.586  2.5537  1.6374 -1.7084
 6276TIP3   OH240242   1.805   0.877   2.741  0.2646  0.3335  0.1521
 6276TIP3    H140243   1.882   0.927   2.770  1.3545 -1.6045  0.8104
 6276TIP3    H240244   1.735   0.906   2.799  1.2111  0.1409  1.4508
 6277TIP3   OH240245   1.106   5.048   3.845  0.5224  0.0636  0.5767
 6277TIP3    H140246   1.103   5.021   3.753  1.8618 -0.4730  0.6691
 6277TIP3    H240247   1.128   5.141   3.842  1.3482 -0.1352  0.3631
 6278TIP3   OH240248   0.478   2.444  13.822 -0.0130 -1.1574 -0.1417
 6278TIP3    H140249   0.541   2.473  13.888  0.7988 -1.9354 -0.5547
 6278TIP3    H240250   0.453   2.524  13.776  3.0289 -1.0911 -2.0073
 6279TIP3   OH240251   5.769   4.814   3.648  0.7150  0.2693  0.2234
 6279TIP3    H140252   5.864   4.817   3.631  0.7235 -2.6974 -0.9014
 6279TIP3    H240253   5.756   4.730   3.693 -1.5454 -0.2598 -1.2333
 6280TIP3   OH240254   1.932   4.282   5.311  0.0793 -0.1464 -0.4634
 6280TIP3    H140255   1.966   4.372   5.310 -0.9156  0.2389 -0.8714
 6280TIP3    H240256   2.003   4.230   5.348  0.2972  0.9560  0.7437
 6281TIP3   OH240257   3.518   1.476  15.073  0.3456 -0.0016 -0.4153
 6281TIP3    H140258   3.504   1.517  15.159 -0.5454 -0.8461 -0.1426
 6281TIP3    H240259   3.573   1.400  15.091  0.5008  0.0511 -0.6591
 6282TIP3   OH240260   4.069   6.216   1.937 -0.2952  0.1280  0.3213
 6282TIP3    H140261   4.091   6.284   2.001  1.9062  0.2920 -0.5378
 6282TIP3    H240262   4.001   6.256   1.882  0.8556  1.6225 -0.0789
 6283TIP3   OH240263   2.004   3.230   4.056  0.0268 -0.4278  0.1346
 6283TIP3    H140264   2.085   3.271   4.026  0.0095 -0.2423  0.3343
 6283TIP3    H240265   1.960   3.299   4.106 -0.7235 -0.2217 -0.7948
 6284TIP3   OH240266   4.566   1.557   5.946 -0.5179 -0.1912  0.9845
 6284TIP3    H140267   4.648   1.589   5.983 -0.0867 -1.0792  0.8232
 6284TIP3    H240268   4.514   1.531   6.022 -0.0388 -1.0523  1.0313
 6285TIP3   OH240269   4.144   4.207   3.494  0.6609  0.7756  0.2974
 6285TIP3    H140270   4.108   4.187   3.408 -1.4346  1.1593  1.0464
 6285TIP3    H240271   4.235   4.231   3.476  0.1682  1.2391 -1.8626
 6286TIP3   OH240272   2.659   6.168  17.078 -0.3290  0.2588  0.6910
 6286TIP3    H140273   2.569   6.198  17.060 -0.4144 -1.2795 -1.8409
 6286TIP3    H240274   2.696   6.237  17.134 -2.2251  2.2866 -0.4056
 6287TIP3   OH240275   1.346   2.896   4.247  0.3703 -0.0045 -0.1884
 6287TIP3    H140276   1.268   2.903   4.302  0.4499  0.7166 -0.1555
 6287TIP3    H240277   1.406   2.961   4.283  1.4683 -1.3635  0.5335
 6288TIP3   OH240278   1.784   6.297  15.805  0.2821 -0.0895  0.1739
 6288TIP3    H140279   1.705   6.262  15.846  0.0301  1.1581  0.7750
 6288TIP3    H240280   1.764   6.389  15.789  1.1999 -0.0297 -0.7312
 6289TIP3   OH240281   1.765   1.773   4.403  0.0651  0.2171 -0.0427
 6289TIP3    H140282   1.824   1.702   4.378 -0.4019 -0.1539 -0.1111
 6289TIP3    H240283   1.678   1.744   4.374 -0.5289 -0.3021  2.0855
 6290TIP3   OH240284   1.659   2.447   1.643  0.7402 -0.0809  0.2438
 6290TIP3    H140285   1.688   2.401   1.722  1.3988  0.7861  0.5383
 6290TIP3    H240286   1.647   2.379   1.577 -0.0175 -0.8384  1.1465
 6291TIP3   OH240287   4.955   5.478  15.249  0.7135 -0.3653  0.0983
 6291TIP3    H140288   5.010   5.536  15.302  1.5385 -0.3972 -0.6893
 6291TIP3    H240289   4.881   5.532  15.223  0.9313  0.0185  0.2710
 6292TIP3   OH240290   3.273   1.573   0.028 -0.4000 -0.2722 -0.2820
 6292TIP3    H140291   3.307   1.661   0.013  0.6905 -0.6381 -0.0297
 6292TIP3    H240292   3.185   1.574  -0.010 -0.8595  1.2635  0.7281
 6293TIP3   OH240293   0.713   3.102   1.184  0.0253  0.6766  0.4473
 6293TIP3    H140294   0.803   3.128   1.164  0.3125 -1.7367 -2.1193
 6293TIP3    H240295   0.721   3.036   1.252 -0.3649  3.8296  3.8440
 6294TIP3   OH240296   0.758   6.147  13.743  0.3195  0.4237  0.3976
 6294TIP3    H140297   0.719   6.062  13.728 -0.6879  0.6857  1.3890
 6294TIP3    H240298   0.723   6.203  13.674  2.1086 -0.2510 -1.1529
 6295TIP3   OH240299   3.541   4.077  13.700 -0.2727  0.6138  0.3074
 6295TIP3    H140300   3.504   4.012  13.759 -1.1308  1.6939  0.9950
 6295TIP3    H240301   3.538   4.159  13.749  2.7494  0.8424  0.2818
 6296TIP3   OH240302   2.404   5.404  15.171 -0.0110 -0.5084  0.3095
 6296TIP3    H140303   2.409   5.356  15.254  0.0971  0.0931  0.6524
 6296TIP3    H240304   2.482   5.460  15.171  1.3052 -2.1808 -1.2611
 6297TIP3   OH240305   4.439   2.662  14.772  0.0000 -0.3249 -0.7439
 6297TIP3    H140306   4.475   2.646  14.684  2.0567 -0.8271  0.1379
 6297TIP3    H240307   4.392   2.582  14.794  1.3094 -1.0762 -0.5639
 6298TIP3   OH240308   2.812   2.382  12.542 -0.2578  0.4782  0.3343
 6298TIP3    H140309   2.855   2.344  12.619 -0.4515 -0.0195  0.2021
 6298TIP3    H240310   2.724   2.403  12.572 -1.3582 -2.4514 -0.4759
 6299TIP3   OH240311   3.245   6.214  16.100  0.5523  0.2592 -0.0829
 6299TIP3    H140312   3.340   6.226  16.099  0.5278  0.8617  1.9490
 6299TIP3    H240313   3.219   6.228  16.191 -1.5222  0.3344 -0.6273
 6300TIP3   OH240314   4.414   2.973  11.457  0.0245  0.1954 -0.0714
 6300TIP3    H140315   4.459   3.037  11.402  0.0049  1.1977  1.0669
 6300TIP3    H240316   4.422   3.006  11.546 -1.7156 -0.3574  0.3289
 6301TIP3   OH240317   2.181   2.104  16.173 -0.0662 -0.1239 -0.9730
 6301TIP3    H140318   2.201   2.012  16.188 -0.1548 -0.4276 -2.5239
 6301TIP3    H240319   2.086   2.106  16.157 -0.3408  0.4728  0.5362
 6302TIP3   OH240320   4.891   4.543  11.825 -0.0293 -0.1420  0.1172
 6302TIP3    H140321   4.953   4.508  11.761 -0.8085 -2.3844  0.4955
 6302TIP3    H240322   4.808   4.547  11.779  0.3293  3.2049 -0.5008
 6303TIP3   OH240323   5.819   3.978  16.481  0.0641  0.4796 -0.2213
 6303TIP3    H140324   5.732   4.000  16.515  1.1496  0.0391  3.3019
 6303TIP3    H240325   5.820   3.882  16.477  0.4325  0.4735 -0.0431
 6304TIP3   OH240326   4.407   5.637   1.209  0.3961  0.4990  0.0531
 6304TIP3    H140327   4.386   5.629   1.302  0.1060  1.7451  0.1029
 6304TIP3    H240328   4.421   5.730   1.195  2.0012  0.1495 -0.8307
 6305TIP3   OH240329   3.612   5.530  15.859  0.0581 -0.5275  0.6770
 6305TIP3    H140330   3.676   5.561  15.794  0.5516 -0.4411  1.1964
 6305TIP3    H240331   3.640   5.440  15.878 -0.9124 -1.0467 -0.2541
 6306TIP3   OH240332   5.348   0.216   3.234 -0.1844 -0.8100  0.1965
 6306TIP3    H140333   5.377   0.301   3.267 -0.6250 -0.9059  0.8697
 6306TIP3    H240334   5.409   0.153   3.271  0.8958 -0.6878 -1.3140
 6307TIP3   OH240335   3.537   4.047   5.711 -0.2073 -0.0940  0.2076
 6307TIP3    H140336   3.516   3.960   5.746 -0.7614  0.3133  0.9065
 6307TIP3    H240337   3.478   4.107   5.757  0.9954  0.8160  0.6214
 6308TIP3   OH240338   3.470   1.888   4.084 -0.0557  0.3714  0.2370
 6308TIP3    H140339   3.422   1.916   4.163 -2.2112 -0.0268 -0.8390
 6308TIP3    H240340   3.531   1.822   4.116  0.2779  1.3722  1.8009
 6309TIP3   OH240341   5.118   0.207   3.397 -0.3090 -0.5175  0.4086
 6309TIP3    H140342   5.061   0.132   3.382 -1.4276  0.4687 -0.3964
 6309TIP3    H240343   5.196   0.188   3.344 -0.9338 -0.7278 -0.4613
 6310TIP3   OH240344   3.270   5.798  16.634  0.5628  0.3479 -0.0858
 6310TIP3    H140345   3.327   5.809  16.558  0.7787 -1.2974 -0.1940
 6310TIP3    H240346   3.236   5.886  16.651 -0.9327  0.5016 -3.1982
 6311TIP3   OH240347   3.355   4.235   4.311 -0.1608  0.4671 -0.7720
 6311TIP3    H140348   3.412   4.177   4.362 -1.1750  2.8151  3.4812
 6311TIP3    H240349   3.413   4.305   4.281  0.3190 -0.6069 -2.5160
 6312TIP3   OH240350   3.507   4.650  16.147  0.4511  0.4490 -0.0162
 6312TIP3    H140351   3.528   4.571  16.097  1.5744  1.0930 -0.6086
 6312TIP3    H240352   3.433   4.690  16.100  1.4719  1.0316 -1.1957
 6313TIP3   OH240353   4.021   6.005  11.195 -0.3490 -0.3716  0.3919
 6313TIP3    H140354   4.031   5.991  11.101 -1.1885 -0.9247  0.3796
 6313TIP3    H240355   3.929   5.987  11.213 -0.6280  1.3942  1.0329
 6314TIP3   OH240356   6.729   1.473   5.264 -0.2069  0.0135 -0.3979
 6314TIP3    H140357   6.780   1.406   5.218 -0.3692  0.3805 -1.1283
 6314TIP3    H240358   6.729   1.548   5.204  0.2470  0.7885  0.5473
 6315TIP3   OH240359   2.937   3.719   1.766 -0.2283  0.0188  0.0627
 6315TIP3    H140360   2.924   3.798   1.714  1.6098  0.6831  0.5253
 6315TIP3    H240361   2.905   3.648   1.710  1.4868  0.7082 -1.9646
 6316TIP3   OH240362   2.334   5.233   4.723 -0.4298 -0.6963  0.2768
 6316TIP3    H140363   2.251   5.282   4.728 -1.2063 -1.8497 -0.8290
 6316TIP3    H240364   2.315   5.151   4.768 -0.2993 -1.5028 -1.1042
 6317TIP3   OH240365   3.663   2.725   3.333  0.4145  0.3006  0.2562
 6317TIP3    H140366   3.744   2.706   3.285 -0.2942  0.7721 -1.1876
 6317TIP3    H240367   3.640   2.814   3.308  0.4602  0.9066  2.1918
 6318TIP3   OH240368   6.235   2.617  16.398 -0.1233  0.8331  0.3584
 6318TIP3    H140369   6.317   2.631  16.351 -0.1394 -0.1955 -0.0104
 6318TIP3    H240370   6.184   2.696  16.381 -0.6178  0.0449 -2.4121
 6319TIP3   OH240371   5.041   5.200   0.591  0.2427 -0.7195 -0.0526
 6319TIP3    H140372   5.030   5.295   0.601  1.1488 -0.6041 -0.0579
 6319TIP3    H240373   4.970   5.162   0.641  0.4270 -0.0465  0.7418
 6320TIP3   OH240374   4.290   6.449   5.481  0.5370 -0.2077 -0.3569
 6320TIP3    H140375   4.207   6.413   5.450  0.8240 -0.3813 -0.9512
 6320TIP3    H240376   4.270   6.539   5.504  0.2426 -0.1683 -0.7608
 6321TIP3   OH240377   4.511   2.588  11.233  0.0107  0.3521 -0.0447
 6321TIP3    H140378   4.472   2.636  11.307  1.6090  1.6273  0.0346
 6321TIP3    H240379   4.498   2.646  11.158 -0.2290 -0.2371 -0.4655
 6322TIP3   OH240380   1.755   5.708   0.308  0.0075 -0.3091  0.3332
 6322TIP3    H140381   1.699   5.760   0.251 -0.0233  0.3326  0.9326
 6322TIP3    H240382   1.818   5.771   0.343  0.9093 -0.9637 -0.0874
 6323TIP3   OH240383   5.502   4.577  13.893  0.0620  0.2239  0.0069
 6323TIP3    H140384   5.538   4.513  13.833 -0.1763  0.9981 -0.9911
 6323TIP3    H240385   5.487   4.655  13.839  0.8996  1.3213  1.3060
 6324TIP3   OH240386   4.446   2.340   4.926  0.0111  0.3663 -0.1228
 6324TIP3    H140387   4.397   2.286   4.987 -1.1702  2.9439  1.3973
 6324TIP3    H240388   4.414   2.314   4.840  1.9743 -3.6068  0.1136
 6325TIP3   OH240389   4.116   1.866   3.993  0.1915 -0.2578  0.0250
 6325TIP3    H140390   4.160   1.873   3.909 -0.5338  0.7139 -0.2940
 6325TIP3    H240391   4.149   1.785   4.031  2.1132  0.3268 -0.2789
 6326TIP3   OH240392   1.262   5.789   5.252 -0.1883 -0.3420  0.7475
 6326TIP3    H140393   1.259   5.821   5.162 -0.4296 -1.0860  0.4871
 6326TIP3    H240394   1.191   5.726   5.258  0.2043 -0.7429  1.2919
 6327TIP3   OH240395   1.991   4.357   1.399  0.4580 -0.1079 -0.0354
 6327TIP3    H140396   2.005   4.287   1.463  1.3710  0.0904  0.0047
 6327TIP3    H240397   2.045   4.429   1.431  0.7981  0.0515 -0.9406
 6328TIP3   OH240398   3.239   3.693   2.376 -0.6000  0.3374  0.0747
 6328TIP3    H140399   3.317   3.655   2.416 -0.9778  0.2410  0.7445
 6328TIP3    H240400   3.266   3.716   2.287  0.2952  0.6519  0.4165
 6329TIP3   OH240401   1.218   2.722   1.895  0.1273  0.2959  0.4800
 6329TIP3    H140402   1.264   2.766   1.967  0.4505  0.4788  0.1649
 6329TIP3    H240403   1.131   2.762   1.893  0.1658  0.3893  0.6779
 6330TIP3   OH240404   4.796   1.930   3.266 -0.6184 -0.6189  0.3064
 6330TIP3    H140405   4.720   1.879   3.294  0.0440 -1.1178  1.3030
 6330TIP3    H240406   4.760   2.002   3.215 -1.7678 -0.7734  0.8645
 6331TIP3   OH240407   2.249   5.638  16.233 -0.3588 -0.0436 -0.2215
 6331TIP3    H140408   2.257   5.563  16.292  0.0338 -0.6059 -0.9755
 6331TIP3    H240409   2.326   5.693  16.254  0.9652 -1.2743 -1.6111
 6332TIP3   OH240410   0.931   3.310  12.488 -0.2269  0.1926  0.0740
 6332TIP3    H140411   0.922   3.404  12.476 -2.3456  0.0203 -0.0148
 6332TIP3    H240412   1.009   3.287  12.438 -0.9563  1.5763 -1.8407
 6333TIP3   OH240413   2.496   0.504  12.375 -0.0005  0.9057  0.0643
 6333TIP3    H140414   2.582   0.484  12.410 -0.2821  0.3352  0.4530
 6333TIP3    H240415   2.435   0.463  12.437 -0.5108 -0.8599 -1.5238
 6334TIP3   OH240416   6.113   2.514   2.502 -0.3428 -0.0330 -0.2639
 6334TIP3    H140417   6.165   2.489   2.578  1.7184 -1.3832 -2.0268
 6334TIP3    H240418   6.118   2.610   2.501 -0.2068  0.0078  1.1217
 6335TIP3   OH240419   3.789   0.002   4.021  0.0478  0.2108  0.7789
 6335TIP3    H140420   3.813   0.066   3.954  0.0181 -0.2020  0.3672
 6335TIP3    H240421   3.826  -0.080   3.990  0.0765  0.0244  1.2985
 6336TIP3   OH240422   2.523   2.329   3.714  0.3272 -0.5545  0.3560
 6336TIP3    H140423   2.611   2.355   3.686 -0.1757 -1.1094 -1.9983
 6336TIP3    H240424   2.510   2.243   3.673 -1.0633 -0.7846  1.2377
 6337TIP3   OH240425   4.640   0.984   0.435 -0.2498  0.2950 -0.3466
 6337TIP3    H140426   4.560   1.012   0.391 -1.2918  0.8995  1.7895
 6337TIP3    H240427   4.614   0.974   0.527  2.2838  1.1367  0.5347
 6338TIP3   OH240428   0.712   0.678  15.259 -0.1430 -0.1070 -0.2626
 6338TIP3    H140429   0.619   0.654  15.255  0.0958 -0.9486 -1.0612
 6338TIP3    H240430   0.747   0.625  15.331 -0.7643  2.0578  1.7668
 6339TIP3   OH240431   6.473   0.694  15.393  0.2165  0.2511  0.4567
 6339TIP3    H140432   6.435   0.712  15.479  0.0058 -1.8968  0.8646
 6339TIP3    H240433   6.426   0.617  15.362  0.2042  1.0525 -1.6703
 6340TIP3   OH240434   1.493   4.841  14.307  0.4027 -0.4116  0.0403
 6340TIP3    H140435   1.510   4.783  14.233  2.9115  1.1412 -0.7327
 6340TIP3    H240436   1.577   4.846  14.353  0.3167  2.5197  0.0751
 6341TIP3   OH240437   5.264   1.399   3.137 -1.0172  0.2816  0.0507
 6341TIP3    H140438   5.283   1.480   3.090 -3.7947 -0.9554 -3.7482
 6341TIP3    H240439   5.175   1.411   3.169 -0.3526 -0.2226  2.2305
 6342TIP3   OH240440   1.896   1.982  17.037 -0.2798  0.1944  0.3795
 6342TIP3    H140441   1.870   2.043  16.969  2.2260  2.6071  1.4005
 6342TIP3    H240442   1.950   1.917  16.992 -2.0185 -0.6958 -0.5208
 6343TIP3   OH240443   1.394   0.530  13.557  0.3672  0.1345 -0.6340
 6343TIP3    H140444   1.451   0.459  13.528  1.0594  0.3902  0.0531
 6343TIP3    H240445   1.454   0.595  13.594 -0.1614  1.5408 -2.1400
 6344TIP3   OH240446   1.778   1.371  10.636 -0.1310  0.5624  0.3905
 6344TIP3    H140447   1.739   1.444  10.588 -0.9324 -0.7009 -0.9619
 6344TIP3    H240448   1.764   1.393  10.728 -0.5099  2.0110  0.0207
 6345TIP3   OH240449   6.239   3.211  14.976  0.0111  0.1550 -0.1078
 6345TIP3    H140450   6.238   3.147  14.905  0.4211 -0.4068  0.3731
 6345TIP3    H240451   6.331   3.237  14.983 -0.0389  0.2623  0.1628
 6346TIP3   OH240452   4.467   2.926  15.303  0.3157 -0.1564 -0.5809
 6346TIP3    H140453   4.419   2.885  15.231 -0.3115 -0.6220  0.0874
 6346TIP3    H240454   4.559   2.908  15.283  0.1030 -1.0436 -0.8230
 6347TIP3   OH240455   0.230   4.181  14.471 -0.4035 -0.0160  0.2357
 6347TIP3    H140456   0.291   4.208  14.539  0.8791  1.2839 -1.3753
 6347TIP3    H240457   0.144   4.208  14.504  0.2424  1.0105  1.1218
 6348TIP3   OH240458   6.162   6.335  14.774 -0.7413  0.2937  0.0131
 6348TIP3    H140459   6.141   6.311  14.684  3.6980 -0.3136 -1.1403
 6348TIP3    H240460   6.130   6.424  14.785  0.0468  0.9994 -2.8201
 6349TIP3   OH240461   1.756   6.263  12.735  0.8336  0.4090  0.2252
 6349TIP3    H140462   1.720   6.222  12.814  1.4330 -1.0342 -0.2200
 6349TIP3    H240463   1.844   6.289  12.760 -0.0569  2.9406  0.9807
 6350TIP3   OH240464   5.626   1.311   1.890 -0.0369  0.5566 -0.2690
 6350TIP3    H140465   5.604   1.393   1.935  0.3716 -0.1553  1.2763
 6350TIP3    H240466   5.583   1.243   1.941  1.4140 -0.3872 -0.2380
 6351TIP3   OH240467   0.587   4.296   6.256  0.2459  0.4745  0.1517
 6351TIP3    H140468   0.670   4.251   6.269 -0.5843 -1.6160 -1.2761
 6351TIP3    H240469   0.545   4.292   6.342  0.3634 -1.2101  0.1687
 6352TIP3   OH240470   6.737   1.327   1.063  0.3876 -0.4991 -0.2882
 6352TIP3    H140471   6.717   1.299   1.153  0.6514 -0.2009 -0.1331
 6352TIP3    H240472   6.822   1.289   1.044 -0.3298 -1.8113 -0.9690
 6353TIP3   OH240473   5.821   3.696   3.056 -0.5001  0.8432  0.3568
 6353TIP3    H140474   5.781   3.717   2.972  1.8140  0.8891 -0.8281
 6353TIP3    H240475   5.758   3.637   3.099 -2.3951  1.9941 -0.7251
 6354TIP3   OH240476   1.018   0.452   1.330  0.0429  0.3687  0.0049
 6354TIP3    H140477   1.015   0.546   1.347 -0.0852  0.5625 -1.0309
 6354TIP3    H240478   1.024   0.412   1.417  0.4538  1.3424  0.4368
 6355TIP3   OH240479   6.420   1.482  15.758 -0.3597 -0.9415 -0.7868
 6355TIP3    H140480   6.325   1.480  15.751 -0.4347 -3.4280 -0.1040
 6355TIP3    H240481   6.437   1.508  15.849 -0.4177 -1.2880 -0.6762
 6356TIP3   OH240482   3.985   3.930   1.236 -0.1407  0.9055 -0.6346
 6356TIP3    H140483   3.937   3.883   1.167  1.0011 -0.3556 -0.6146
 6356TIP3    H240484   3.979   4.022   1.211  0.6494  0.4462 -2.7086
 6357TIP3   OH240485   3.970   3.300  13.861  0.2783 -0.0110  0.0431
 6357TIP3    H140486   3.952   3.279  13.953  1.2135 -0.6894  0.0814
 6357TIP3    H240487   3.955   3.395  13.855  0.4089  0.0794  0.9449
 6358TIP3   OH240488   3.489   2.951  15.130  0.1871  0.1833  0.0199
 6358TIP3    H140489   3.432   3.028  15.130 -0.7176 -0.4563 -0.4836
 6358TIP3    H240490   3.463   2.902  15.208 -0.7221 -0.6264 -0.7571
 6359TIP3   OH240491   3.637   4.395   5.446  0.1482  0.4943 -0.0586
 6359TIP3    H140492   3.621   4.303   5.467  1.2624  0.4256  0.5937
 6359TIP3    H240493   3.602   4.406   5.358  2.0615 -1.1777 -1.1017
 6360TIP3   OH240494   4.812   5.658  12.010 -0.0151  0.5259  0.3314
 6360TIP3    H140495   4.808   5.563  12.006  0.5340  0.4359  1.4531
 6360TIP3    H240496   4.798   5.679  12.103  1.8365  1.3992  0.4681
 6361TIP3   OH240497   5.817   4.339  13.448 -0.0443  0.4438  0.4501
 6361TIP3    H140498   5.866   4.358  13.367 -1.0044  0.3221 -0.1727
 6361TIP3    H240499   5.733   4.305  13.418  0.4774 -1.9685  1.5160
 6362TIP3   OH240500   6.453   1.164   2.161 -0.7943 -0.1708 -0.3319
 6362TIP3    H140501   6.422   1.251   2.137 -0.0971 -0.1437 -1.1763
 6362TIP3    H240502   6.513   1.178   2.234 -0.9731  0.0103 -0.2191
 6363TIP3   OH240503   1.806   1.463   4.543 -0.5234  0.1876 -0.3586
 6363TIP3    H140504   1.789   1.437   4.453  1.0160 -0.3510 -0.5209
 6363TIP3    H240505   1.889   1.509   4.540 -1.3664  1.8927  0.5246
 6364TIP3   OH240506   5.522   3.805  15.214  0.0230 -0.2025 -0.4267
 6364TIP3    H140507   5.435   3.817  15.177 -0.0298 -0.7312 -0.4735
 6364TIP3    H240508   5.551   3.720  15.182  0.1484 -0.4757  0.3972
 6365TIP3   OH240509   5.507   3.728   5.743 -0.1577 -0.0258 -0.0922
 6365TIP3    H140510   5.525   3.808   5.793 -0.1728 -0.0615 -0.0296
 6365TIP3    H240511   5.422   3.745   5.703  0.7281  0.7975 -1.7134
 6366TIP3   OH240512   2.462   2.382  14.299 -0.0402  0.5701 -0.3630
 6366TIP3    H140513   2.539   2.373  14.354 -0.5058  0.4059  0.2702
 6366TIP3    H240514   2.390   2.344  14.350 -0.7493  1.6828 -0.4775
 6367TIP3   OH240515   2.906   6.263  13.956 -0.1182 -0.4577  0.3437
 6367TIP3    H140516   2.970   6.322  13.997  0.0671 -1.2499  1.2264
 6367TIP3    H240517   2.822   6.306  13.969 -0.0432 -0.6063  1.4343
 6368TIP3   OH240518   3.299   6.300   4.591  0.2155 -0.0914 -0.0111
 6368TIP3    H140519   3.390   6.318   4.570  0.6689 -1.3340  0.7856
 6368TIP3    H240520   3.252   6.380   4.567  1.3425  0.1827 -1.4499
 6369TIP3   OH240521   2.678   0.644  14.529  0.5670 -0.4043  0.1043
 6369TIP3    H140522   2.757   0.648  14.476  0.0176  1.2305 -0.6333
 6369TIP3    H240523   2.628   0.570  14.493  1.0288 -0.4498 -0.4467
 6370TIP3   OH240524   1.992   3.916   1.465  0.4008 -0.7110  0.1975
 6370TIP3    H140525   2.052   3.885   1.398  0.6397 -2.5674  1.2115
 6370TIP3    H240526   2.027   3.882   1.547 -2.3397 -2.4674  0.7753
 6371TIP3   OH240527   4.037   6.757  12.965 -0.0333 -0.1323 -0.1090
 6371TIP3    H140528   4.032   6.725  12.875 -1.2972  0.4087 -0.2446
 6371TIP3    H240529   4.035   6.677  13.019 -1.9144 -0.3709 -0.4865
 6372TIP3   OH240530   2.732   1.660  12.986 -0.2081  0.3027 -0.2531
 6372TIP3    H140531   2.710   1.638  12.895 -1.9796 -0.6316  0.3395
 6372TIP3    H240532   2.816   1.704  12.980  0.2719 -0.7346 -2.2312
 6373TIP3   OH240533   0.634   1.309   1.599  0.2992  0.6868 -0.3931
 6373TIP3    H140534   0.570   1.272   1.661 -0.3855  0.8565 -0.9860
 6373TIP3    H240535   0.634   1.247   1.526  0.3063  1.0469 -0.6974
 6374TIP3   OH240536   3.977   5.762  12.996  0.6782  0.2765  0.2903
 6374TIP3    H140537   4.018   5.684  13.033 -0.0160 -0.3503 -0.2250
 6374TIP3    H240538   3.894   5.730  12.960  0.7597  1.0968 -0.6555
 6375TIP3   OH240539   2.033   2.759  11.529 -0.1595 -0.1694  0.7047
 6375TIP3    H140540   2.101   2.816  11.492 -0.8640 -0.5677 -1.3377
 6375TIP3    H240541   1.979   2.818  11.581  0.0838  0.7246 -0.0107
 6376TIP3   OH240542   6.656   3.977   0.505  0.5413 -0.4028  0.0881
 6376TIP3    H140543   6.583   3.990   0.445 -1.3199 -1.9757  1.8591
 6376TIP3    H240544   6.676   3.883   0.499 -0.4727 -0.8661  2.6589
 6377TIP3   OH240545   0.087   0.229   6.368 -0.3643 -0.1051  0.1081
 6377TIP3    H140546   0.111   0.160   6.306 -0.0477  0.2442 -0.1708
 6377TIP3    H240547   0.019   0.279   6.322  0.8294  0.9761 -0.5459
 6378TIP3   OH240548   3.143   0.693  14.133 -0.1671  0.0127  0.2551
 6378TIP3    H140549   3.195   0.743  14.071  1.0577  0.2986  1.4496
 6378TIP3    H240550   3.194   0.612  14.147 -1.3244 -0.8679 -0.4522
 6379TIP3   OH240551   0.105   6.554   5.266  0.7314  0.2345 -0.0454
 6379TIP3    H140552   0.013   6.552   5.294  0.6040 -0.9458 -0.4954
 6379TIP3    H240553   0.115   6.477   5.210  2.1743 -0.0730  0.5690
 6380TIP3   OH240554   1.652   6.662  11.924 -0.6070 -0.0214  0.8103
 6380TIP3    H140555   1.714   6.733  11.907 -0.3812 -0.2803  0.5433
 6380TIP3    H240556   1.701   6.583  11.903 -1.1645 -0.2061  0.1941
 6381TIP3   OH240557   5.486   1.770   1.782  0.4079  0.2949  0.7842
 6381TIP3    H140558   5.395   1.794   1.766  0.9764  1.1778 -1.6898
 6381TIP3    H240559   5.507   1.709   1.711  2.2251  1.6254  0.1011
 6382TIP3   OH240560   0.695   6.086  12.449 -0.1379  0.2354 -0.2347
 6382TIP3    H140561   0.738   6.033  12.382 -0.3405 -0.3188  0.0604
 6382TIP3    H240562   0.696   6.175  12.415  2.5924  0.5425  0.3910
 6383TIP3   OH240563   6.132   2.984  13.658  0.2255  0.4490 -0.0919
 6383TIP3    H140564   6.100   3.056  13.713  0.9471  0.7843 -0.0988
 6383TIP3    H240565   6.055   2.927  13.646 -0.3219  1.1523  0.0104
 6384TIP3   OH240566   1.589   4.532  14.873 -0.4563  0.1878 -0.3459
 6384TIP3    H140567   1.598   4.527  14.778 -2.6558 -2.3834 -0.5359
 6384TIP3    H240568   1.550   4.617  14.889 -1.5455  0.0285 -1.9259
 6385TIP3   OH240569   3.522   5.852   1.024  0.6071  0.2030  0.6006
 6385TIP3    H140570   3.601   5.800   1.017  1.7211  1.8263  0.6233
 6385TIP3    H240571   3.453   5.788   1.042  1.8908 -1.2437  0.6001
 6386TIP3   OH240572   4.773   2.387   4.060  0.1076  0.3007  0.1231
 6386TIP3    H140573   4.747   2.355   3.974  1.0186  1.0648 -0.4657
 6386TIP3    H240574   4.867   2.372   4.063 -0.0410 -0.4758  1.3389
 6387TIP3   OH240575   1.129   3.909  13.508 -0.0371  0.8039  0.0739
 6387TIP3    H140576   1.065   3.838  13.515  2.0775 -1.4491 -1.3866
 6387TIP3    H240577   1.100   3.960  13.433  0.1932 -0.6723 -1.0879
 6388TIP3   OH240578   5.336   0.063   0.662  0.9203  0.8443  0.2723
 6388TIP3    H140579   5.296   0.082   0.577 -0.3319 -1.0890  0.3755
 6388TIP3    H240580   5.401   0.132   0.673  0.8767  1.3632 -2.0924
 6389TIP3   OH240581   1.508   1.216   2.435  0.2848  0.3088 -0.3267
 6389TIP3    H140582   1.444   1.270   2.481  1.3737  0.9099  0.5620
 6389TIP3    H240583   1.576   1.198   2.501  0.3450 -1.4963 -0.8361
 6390TIP3   OH240584   4.994   5.521  13.644 -0.0093  0.1468 -0.0077
 6390TIP3    H140585   4.901   5.541  13.638 -0.3469 -1.4535 -0.7039
 6390TIP3    H240586   4.999   5.440  13.694  0.8998 -0.4443 -1.0075
 6391TIP3   OH240587   2.411   2.207   5.099 -0.1387 -0.5122  0.7985
 6391TIP3    H140588   2.435   2.128   5.051 -0.5031  0.3222 -0.8308
 6391TIP3    H240589   2.336   2.180   5.153  0.9860 -1.7499  1.8081
 6392TIP3   OH240590   0.301   4.182  14.800 -0.0912 -0.3284 -0.1911
 6392TIP3    H140591   0.251   4.100  14.798 -0.8868  0.1587 -0.9717
 6392TIP3    H240592   0.254   4.238  14.860 -2.2417  1.1609 -3.0316
 6393TIP3   OH240593   5.088   0.535  14.101 -0.3543  0.3635  0.0236
 6393TIP3    H140594   5.090   0.457  14.156  0.7692  0.9207  0.8094
 6393TIP3    H240595   5.076   0.501  14.012  1.6042 -0.8367  0.1534
 6394TIP3   OH240596   5.695   1.942  13.926  0.4097  0.0728 -0.6101
 6394TIP3    H140597   5.652   1.859  13.946 -0.1568  0.4575 -0.1989
 6394TIP3    H240598   5.628   2.008  13.939  0.8819  0.6093 -0.8401
 6395TIP3   OH240599   2.709   0.434   3.005  0.1561  0.4318  0.6730
 6395TIP3    H140600   2.787   0.415   3.057  0.7335 -0.3381 -0.4274
 6395TIP3    H240601   2.679   0.349   2.974 -0.8138  0.7704  0.6319
 6396TIP3   OH240602   2.767   1.010   3.499  0.3493 -0.2023  0.1475
 6396TIP3    H140603   2.845   1.046   3.541  2.5341 -1.2389 -2.7012
 6396TIP3    H240604   2.748   1.070   3.427  0.5396 -1.6146 -1.1409
 6397TIP3   OH240605   5.810   1.244  16.328 -0.1607 -0.2790  0.1304
 6397TIP3    H140606   5.897   1.283  16.333  1.3972 -3.0995 -1.9801
 6397TIP3    H240607   5.773   1.257  16.415  2.9020 -0.1267  1.5367
 6398TIP3   OH240608   5.220   1.519  13.825  0.6163  0.1945  0.0647
 6398TIP3    H140609   5.223   1.507  13.920  1.1944 -0.0344  0.0248
 6398TIP3    H240610   5.134   1.488  13.798  0.1459  1.0060  0.6150
 6399TIP3   OH240611   5.456   3.503   1.539  0.3531 -0.0216  0.3893
 6399TIP3    H140612   5.517   3.482   1.468  0.8020 -0.6264  0.9396
 6399TIP3    H240613   5.504   3.480   1.619 -0.3064  0.2415  0.8700
 6400TIP3   OH240614   1.460   5.589  15.089  0.6413 -0.1944 -0.3506
 6400TIP3    H140615   1.381   5.642  15.100 -0.1730 -1.4940  0.3668
 6400TIP3    H240616   1.523   5.625  15.151 -0.4374 -1.0067  1.2954
 6401TIP3   OH240617   6.320   5.441  13.721  0.4696  0.5745 -0.0480
 6401TIP3    H140618   6.362   5.380  13.781  1.2955 -0.9973 -2.1051
 6401TIP3    H240619   6.367   5.523  13.733  0.1049  0.5431  1.9563
 6402TIP3   OH240620   2.761   3.071   4.908 -0.0693  0.0891  0.1560
 6402TIP3    H140621   2.754   2.979   4.882 -1.8276  0.6211 -1.4899
 6402TIP3    H240622   2.671   3.098   4.925  0.2572  1.8373 -0.6300
 6403TIP3   OH240623   4.304   2.717  16.657 -0.1179  0.6291 -0.2697
 6403TIP3    H140624   4.243   2.649  16.626 -0.3888  0.3827  0.7701
 6403TIP3    H240625   4.290   2.790  16.597 -2.8601  1.2983  1.0436
 6404TIP3   OH240626   3.790   0.329   3.957  0.3086 -0.4599 -0.0965
 6404TIP3    H140627   3.728   0.295   3.892  0.6477 -1.9132  0.2969
 6404TIP3    H240628   3.780   0.424   3.952 -1.3949 -0.6217 -0.5928
 6405TIP3   OH240629   5.112   0.606   4.938  0.8402 -0.5498  0.2181
 6405TIP3    H140630   5.088   0.651   5.019  0.7891  0.6553 -0.4338
 6405TIP3    H240631   5.201   0.635   4.919  0.8286 -0.7682 -0.1917
 6406TIP3   OH240632   2.391   0.580   2.338  0.6858  0.4414 -0.6716
 6406TIP3    H140633   2.445   0.542   2.407  0.2180 -0.2192 -0.6692
 6406TIP3    H240634   2.304   0.587   2.376  0.5798  0.7333 -0.9610
 6407TIP3   OH240635   0.020   2.390   1.174  0.6414  0.1015 -0.5828
 6407TIP3    H140636   0.034   2.474   1.217 -1.2629  0.4684 -0.5728
 6407TIP3    H240637   0.096   2.337   1.198  1.4838  1.5510  0.0593
 6408TIP3   OH240638   5.134   0.973   1.051 -0.9333  0.4449 -0.1910
 6408TIP3    H140639   5.116   0.906   0.985 -1.2866  1.2522 -0.9373
 6408TIP3    H240640   5.176   1.044   1.003  0.2604  0.4021  0.7555
 6409TIP3   OH240641   5.229   6.664  14.012  0.2209 -0.0023  1.1154
 6409TIP3    H140642   5.169   6.610  14.064 -0.8752 -0.1327 -0.2292
 6409TIP3    H240643   5.183   6.747  14.001 -2.0354 -1.5394 -3.7902
 6410TIP3   OH240644   2.320   5.918  17.023 -0.2730  0.6481  0.5290
 6410TIP3    H140645   2.288   5.886  16.939  1.3297 -1.4957  0.6480
 6410TIP3    H240646   2.299   5.848  17.085  0.3868  1.2965  1.5121
 6411TIP3   OH240647   1.690   5.314   5.523  0.2464 -0.0248 -0.4618
 6411TIP3    H140648   1.747   5.366   5.580  1.4911 -1.4401 -0.3840
 6411TIP3    H240649   1.668   5.374   5.452 -0.8347  1.5869  1.1115
 6412TIP3   OH240650   2.484   4.179   1.910 -0.0096 -0.5876  0.1676
 6412TIP3    H140651   2.516   4.206   1.996  1.0853  2.1325 -0.9703
 6412TIP3    H240652   2.564   4.158   1.861 -0.4382 -0.2374 -0.7111
 6413TIP3   OH240653   0.995   3.499   0.185 -0.5443  0.4041  0.1771
 6413TIP3    H140654   0.911   3.501   0.231 -1.4795  0.8598 -1.4614
 6413TIP3    H240655   0.998   3.412   0.146 -0.0219  0.2208  0.6147
 6414TIP3   OH240656   0.131   5.670  13.258  0.6447 -0.4967  0.7441
 6414TIP3    H140657   0.038   5.689  13.243  1.1120  0.9419 -0.5056
 6414TIP3    H240658   0.144   5.583  13.220 -0.1982 -0.7636  1.0372
 6415TIP3   OH240659   2.526   0.579  15.962  0.7231 -0.2330 -0.1717
 6415TIP3    H140660   2.598   0.641  15.971  0.6845 -0.2214  0.0446
 6415TIP3    H240661   2.455   0.630  15.921  0.0729  0.3483  1.5684
 6416TIP3   OH240662   1.730   6.468   5.958 -0.9664  0.5203  0.1688
 6416TIP3    H140663   1.692   6.389   5.997  0.8295  0.3510  1.7154
 6416TIP3    H240664   1.823   6.463   5.979 -0.6304  2.5513 -0.5942
 6417TIP3   OH240665   6.377   3.392   5.873 -0.1958 -0.5884  0.1106
 6417TIP3    H140666   6.372   3.367   5.781 -2.5182  0.0420  0.0176
 6417TIP3    H240667   6.460   3.441   5.880 -0.1790 -0.2771 -1.7193
 6418TIP3   OH240668   6.678   6.382   5.749 -0.1292 -0.1241  0.2265
 6418TIP3    H140669   6.688   6.338   5.664 -0.5166 -0.2866  0.2631
 6418TIP3    H240670   6.585   6.374   5.769 -0.5061  1.9117 -0.4269
 6419TIP3   OH240671   6.216   0.402  12.490  0.2003  0.5972 -0.0926
 6419TIP3    H140672   6.267   0.470  12.533 -0.3283  1.5121 -0.8609
 6419TIP3    H240673   6.249   0.400  12.400  0.1531 -0.0989 -0.0994
 6420TIP3   OH240674   4.337   5.102  15.385  0.2126  0.0795 -0.5836
 6420TIP3    H140675   4.376   5.168  15.442  1.3744 -0.4867 -0.6978
 6420TIP3    H240676   4.262   5.147  15.345 -0.1385  0.7328  0.7438
 6421TIP3   OH240677   3.053   0.844   1.592 -0.0078  0.4099  0.5002
 6421TIP3    H140678   3.072   0.750   1.599  0.8272  0.4972 -0.3877
 6421TIP3    H240679   3.117   0.886   1.650  1.8835  0.6240 -1.6109
 6422TIP3   OH240680   0.387   4.621  13.857  0.3905 -0.4399 -0.4866
 6422TIP3    H140681   0.328   4.694  13.877 -0.7124 -0.9778 -1.6231
 6422TIP3    H240682   0.466   4.663  13.825  0.0610  0.2793 -0.3810
 6423TIP3   OH240683   0.106   5.280   4.296  0.3260 -0.3130  0.1453
 6423TIP3    H140684   0.181   5.220   4.295 -0.3940 -1.2601 -1.1685
 6423TIP3    H240685   0.123   5.340   4.224 -0.8093 -1.4247 -1.1061
 6424TIP3   OH240686   5.555   6.728   0.499  0.1805 -0.2290  0.4361
 6424TIP3    H140687   5.562   6.815   0.460  2.0092 -0.3383  0.4614
 6424TIP3    H240688   5.501   6.741   0.577 -0.5570  0.6406 -0.1926
 6425TIP3   OH240689   1.173   0.387   4.023 -0.2250 -0.8349  0.4987
 6425TIP3    H140690   1.109   0.452   4.053 -1.8908 -1.0352 -2.2812
 6425TIP3    H240691   1.159   0.311   4.080 -1.9504 -0.5977  0.4439
 6426TIP3   OH240692   4.979   2.375   3.823 -0.6133  0.0454 -0.3745
 6426TIP3    H140693   4.915   2.303   3.819 -0.5736  0.0077 -0.3334
 6426TIP3    H240694   4.937   2.447   3.777 -0.0366 -0.4756 -1.7864
 6427TIP3   OH240695   0.761   2.699   1.873 -0.5753  0.0085  0.5856
 6427TIP3    H140696   0.834   2.709   1.933  0.6361  0.3938 -0.8895
 6427TIP3    H240697   0.697   2.764   1.901  0.1975  0.5479  1.1244
 6428TIP3   OH240698   5.689   3.556  16.432 -0.3198 -0.0658  0.1314
 6428TIP3    H140699   5.729   3.505  16.362  0.1505  0.0709  0.2992
 6428TIP3    H240700   5.758   3.615  16.461 -0.8334  0.6206 -0.0117
 6429TIP3   OH240701   5.284   0.577   5.364 -0.0948  0.2652 -0.0300
 6429TIP3    H140702   5.350   0.641   5.390 -1.2064  1.4656 -0.0735
 6429TIP3    H240703   5.281   0.514   5.436 -1.4423  2.2208  1.7162
 6430TIP3   OH240704   1.189   4.466  14.033  0.7269 -0.1265  0.0868
 6430TIP3    H140705   1.157   4.492  14.119  0.7350  0.2741 -0.0300
 6430TIP3    H240706   1.170   4.372  14.027  0.6758 -0.1420  0.5011
 6431TIP3   OH240707   2.364   2.355   1.722 -0.9498 -0.9651 -0.1301
 6431TIP3    H140708   2.429   2.369   1.653  0.3007  0.5180  1.2827
 6431TIP3    H240709   2.381   2.266   1.753  1.5569 -0.1032  1.2648
 6432TIP3   OH240710   3.713   3.955  11.258  0.0460  0.1185  0.1975
 6432TIP3    H140711   3.703   4.014  11.183  2.0390  0.2407 -0.0262
 6432TIP3    H240712   3.808   3.947  11.270 -0.1129 -2.9671  0.2715
 6433TIP3   OH240713   2.642   4.699   0.677  0.0025  0.0401 -0.0804
 6433TIP3    H140714   2.555   4.694   0.717  0.2912 -3.0839  0.4228
 6433TIP3    H240715   2.664   4.608   0.658  1.5533  1.0093 -3.8312
 6434TIP3   OH240716   5.494   1.384  15.933  0.1814  0.1507 -0.0801
 6434TIP3    H140717   5.427   1.420  15.874  0.8367  0.8408 -0.4096
 6434TIP3    H240718   5.476   1.425  16.018  1.3076  1.7698 -0.5943
 6435TIP3   OH240719   2.411   2.631   4.863 -0.0108  0.1214  0.3142
 6435TIP3    H140720   2.403   2.699   4.796  1.7038 -0.1398 -0.1890
 6435TIP3    H240721   2.327   2.634   4.910 -0.0896  2.3969  0.1363
 6436TIP3   OH240722   0.789   2.128  14.367  0.2474  0.3643 -0.0358
 6436TIP3    H140723   0.854   2.187  14.329  0.1930  0.2568 -0.3038
 6436TIP3    H240724   0.840   2.059  14.408  0.3173  0.8103  0.6323
 6437TIP3   OH240725   6.423   2.868  15.713 -0.2626  0.0020 -0.0741
 6437TIP3    H140726   6.385   2.780  15.709  0.3284 -0.3199  0.9810
 6437TIP3    H240727   6.419   2.900  15.623 -2.5132 -0.2202 -0.1083
 6438TIP3   OH240728   3.576   0.100   6.607  0.0199  0.3681  0.8535
 6438TIP3    H140729   3.630   0.047   6.548  0.3049  0.0780  1.3770
 6438TIP3    H240730   3.493   0.110   6.560  0.3354  0.3700  0.2794
 6439TIP3   OH240731   6.512   3.439  16.903  0.4869  0.1139  0.2770
 6439TIP3    H140732   6.502   3.353  16.861  1.0313  0.4643 -0.6006
 6439TIP3    H240733   6.497   3.422  16.996  1.7764 -1.1700  0.2945
 6440TIP3   OH240734   0.550   5.330   2.036  0.2497  0.2233 -0.5015
 6440TIP3    H140735   0.575   5.261   2.097  0.5496  0.3068 -0.5280
 6440TIP3    H240736   0.616   5.327   1.967 -1.8882 -2.1193 -2.6836
 6441TIP3   OH240737   3.892   5.479  14.569  0.5057  0.2020 -0.1864
 6441TIP3    H140738   3.811   5.505  14.613 -0.2367 -2.8403  0.4983
 6441TIP3    H240739   3.939   5.427  14.633  2.3075  0.6486 -1.0899
 6442TIP3   OH240740   5.539   0.080   0.098  0.1502 -0.1247  0.5066
 6442TIP3    H140741   5.525   0.081   0.004  0.5334 -0.5560  0.4371
 6442TIP3    H240742   5.621   0.031   0.109  1.1278  1.5047  0.9341
 6443TIP3   OH240743   3.931   1.928  14.289 -0.3072 -0.2555  0.3467
 6443TIP3    H140744   3.978   1.889  14.215 -0.9825  0.5203 -0.5055
 6443TIP3    H240745   3.985   2.003  14.314 -1.4392  1.1368 -1.1670
 6444TIP3   OH240746   0.882   5.662   6.105 -0.2626  0.1433  1.0259
 6444TIP3    H140747   0.909   5.734   6.048 -1.1997  1.0710  1.7129
 6444TIP3    H240748   0.816   5.615   6.054 -1.4513  1.2547  1.4840
 6445TIP3   OH240749   0.609   5.663  14.633 -0.2800  0.0565 -0.6018
 6445TIP3    H140750   0.569   5.606  14.698  1.0568 -0.9727 -0.6574
 6445TIP3    H240751   0.535   5.706  14.590 -1.3552 -1.9539 -0.8623
 6446TIP3   OH240752   5.627   4.009  17.156 -0.0815 -0.0694  0.4052
 6446TIP3    H140753   5.583   3.953  17.093  0.6777 -1.8713  1.4139
 6446TIP3    H240754   5.556   4.046  17.209 -0.7038  1.2563 -1.2477
 6447TIP3   OH240755   5.518   5.525  13.648  0.1472 -0.7840 -0.0399
 6447TIP3    H140756   5.564   5.595  13.601 -1.8531  0.3907 -0.4050
 6447TIP3    H240757   5.557   5.526  13.736  1.4936 -0.5581 -0.6153
 6448TIP3   OH240758   2.014   4.528  16.866 -0.4198  0.1310 -0.1363
 6448TIP3    H140759   1.986   4.608  16.911  0.7623  0.9726 -0.8352
 6448TIP3    H240760   2.094   4.502  16.911 -0.7116 -0.5905 -0.0169
 6449TIP3   OH240761   1.858   4.415  14.046  0.4947  0.4891 -0.6975
 6449TIP3    H140762   1.791   4.408  13.978  0.2325 -1.6592 -0.2795
 6449TIP3    H240763   1.928   4.356  14.016  0.9794  0.5838  0.2163
 6450TIP3   OH240764   1.681   0.757  13.205 -0.2078 -0.0188  0.0641
 6450TIP3    H140765   1.732   0.837  13.207  1.4616 -0.9673 -1.4554
 6450TIP3    H240766   1.591   0.786  13.189  0.2997  1.5630 -0.0697
 6451TIP3   OH240767   5.453   4.288   4.429  0.3421 -0.0018  0.0064
 6451TIP3    H140768   5.395   4.216   4.454  1.5872 -0.4094  2.0068
 6451TIP3    H240769   5.395   4.364   4.422 -0.8966 -1.0393 -1.4903
 6452TIP3   OH240770   1.744   5.556  12.227  0.1691  0.2317  0.9722
 6452TIP3    H140771   1.822   5.520  12.269  0.8317  1.9692  1.3117
 6452TIP3    H240772   1.670   5.518  12.275  0.8312 -0.5390  1.3886
 6453TIP3   OH240773   5.046   3.569   0.719 -0.1700  0.0980 -0.2229
 6453TIP3    H140774   5.120   3.611   0.762  1.1515 -1.1033 -1.2227
 6453TIP3    H240775   5.072   3.478   0.710  0.1316  0.4002 -4.4017
 6454TIP3   OH240776   0.474   5.120   6.099  0.1034 -0.4323 -0.6232
 6454TIP3    H140777   0.413   5.094   6.030 -0.1194  0.6408 -0.8454
 6454TIP3    H240778   0.489   5.040   6.149 -0.1169 -1.1144 -1.6125
 6455TIP3   OH240779   4.031   4.774   4.558 -0.5654  0.5413  0.2719
 6455TIP3    H140780   3.998   4.861   4.581  1.4337  1.2084  0.8921
 6455TIP3    H240781   4.114   4.767   4.606 -0.0368 -1.1696 -0.8090
 6456TIP3   OH240782   6.044   4.052  12.476 -0.1166  0.1389  0.1454
 6456TIP3    H140783   6.099   4.010  12.410 -1.3843 -0.6841 -0.4160
 6456TIP3    H240784   5.994   4.118  12.427 -1.0385 -0.4527  0.2700
 6457TIP3   OH240785   1.951   5.603  11.596  0.7570  0.0993 -0.7474
 6457TIP3    H140786   1.978   5.572  11.509  2.8141 -1.7528  0.4286
 6457TIP3    H240787   1.903   5.529  11.633  1.7970 -0.0112  0.4559
 6458TIP3   OH240788   6.071   6.348  13.078 -0.5299 -0.4133  0.0705
 6458TIP3    H140789   6.157   6.382  13.101 -1.0985  0.5327  0.8805
 6458TIP3    H240790   6.048   6.393  12.997 -2.0298  2.6461  2.0258
 6459TIP3   OH240791   4.839   0.257   0.205 -0.3662  0.1990 -0.1782
 6459TIP3    H140792   4.892   0.191   0.161 -1.0436 -0.0652 -0.6143
 6459TIP3    H240793   4.901   0.305   0.260  0.1546 -0.6951  0.0253
 6460TIP3   OH240794   4.695   1.857  15.611 -0.2470  0.9641  0.3821
 6460TIP3    H140795   4.603   1.848  15.632 -0.0617  4.4386  3.9731
 6460TIP3    H240796   4.739   1.792  15.666 -0.4603  0.2435 -0.2886
 6461TIP3   OH240797   0.042   4.444  13.663  0.0509 -0.2751  0.3965
 6461TIP3    H140798   0.064   4.532  13.632 -1.5592 -0.1814 -0.5502
 6461TIP3    H240799   0.116   4.390  13.635 -0.4596  0.1638 -1.9761
 6462TIP3   OH240800   3.327   6.403   5.826 -0.5046  0.5882  0.5711
 6462TIP3    H140801   3.261   6.342   5.858  0.1878 -1.0615 -0.9835
 6462TIP3    H240802   3.379   6.352   5.764 -2.4945  3.7901 -4.3178
 6463TIP3   OH240803   5.789   6.444   3.310  0.6444  0.2502 -0.0867
 6463TIP3    H140804   5.728   6.416   3.242  0.9693  0.6180 -0.5425
 6463TIP3    H240805   5.844   6.510   3.266  1.1556  0.1544  0.4033
 6464TIP3   OH240806   1.354   1.967  14.576 -0.3014  0.0978 -0.5568
 6464TIP3    H140807   1.435   1.989  14.530 -0.4628 -0.0225 -0.8988
 6464TIP3    H240808   1.305   1.912  14.515 -1.2785  1.3301 -0.9305
 6465TIP3   OH240809   2.053   6.596   3.987  0.0372  0.2597  0.3267
 6465TIP3    H140810   2.047   6.540   3.909 -0.1835 -0.1334  0.6201
 6465TIP3    H240811   2.093   6.677   3.955 -0.5993  0.3345 -0.3168
 6466TIP3   OH240812   6.574   1.576  14.435 -0.0572  0.0077 -0.2143
 6466TIP3    H140813   6.586   1.670  14.448 -1.8698  0.6454 -2.4837
 6466TIP3    H240814   6.617   1.557  14.352 -1.4031 -0.7265 -0.7775
 6467TIP3   OH240815   0.396   0.026   1.082  0.2475 -0.2579 -0.5307
 6467TIP3    H140816   0.421   0.077   1.004  0.3698 -0.3924 -0.5805
 6467TIP3    H240817   0.429  -0.062   1.064 -0.6633 -0.5530 -0.7977
 6468TIP3   OH240818   0.372   5.780  12.016 -0.5754 -0.1444  0.2837
 6468TIP3    H140819   0.298   5.740  11.970 -0.9203  0.2960  0.4546
 6468TIP3    H240820   0.337   5.802  12.103 -1.2545  3.1645 -0.7219
 6469TIP3   OH240821   2.778   5.333  11.031  0.0226 -0.0563  0.2073
 6469TIP3    H140822   2.722   5.311  10.956  0.8143  1.7845 -1.0036
 6469TIP3    H240823   2.766   5.260  11.092 -3.1519 -0.0907 -0.2647
 6470TIP3   OH240824   1.062   5.744  15.902 -0.1882 -0.4786  0.3686
 6470TIP3    H140825   1.031   5.662  15.942 -1.8537  0.9691  2.2635
 6470TIP3    H240826   0.993   5.767  15.840  1.3794 -1.6103 -1.9230
 6471TIP3   OH240827   0.027   4.813  14.369 -0.1264 -0.5396 -0.0148
 6471TIP3    H140828   0.046   4.773  14.454 -0.5317  0.6365  0.6551
 6471TIP3    H240829   0.112   4.847  14.340 -0.2519  0.3629  0.6357
 6472TIP3   OH240830   4.285   2.725  12.735 -0.2325 -0.1588 -0.0424
 6472TIP3    H140831   4.220   2.728  12.666  0.3831 -1.4647 -0.7277
 6472TIP3    H240832   4.362   2.769  12.699 -0.1921 -0.0893  0.1252
 6473TIP3   OH240833   4.075   0.942  14.396  0.4891  0.5484  0.3628
 6473TIP3    H140834   3.997   0.888  14.393  1.4771 -0.8645 -1.5954
 6473TIP3    H240835   4.108   0.931  14.485  0.4632 -1.8621  0.1384
 6474TIP3   OH240836   4.449   3.465  17.025  0.0750 -0.0902  0.4662
 6474TIP3    H140837   4.371   3.489  16.975  1.1753  0.2062 -1.1917
 6474TIP3    H240838   4.445   3.518  17.105 -0.1155  1.8533 -0.7827
 6475TIP3   OH240839   1.019   5.312  11.849  0.4154  0.1748  0.8459
 6475TIP3    H140840   1.045   5.235  11.799 -2.4421 -0.5243  0.2594
 6475TIP3    H240841   0.969   5.277  11.923 -0.2393  1.4098  1.0162
 6476TIP3   OH240842   2.154   4.610   1.720  0.4537 -0.6457 -0.3809
 6476TIP3    H140843   2.201   4.527   1.731 -0.0277 -1.4621 -3.4611
 6476TIP3    H240844   2.062   4.586   1.725  0.2034  0.5283  3.0186
 6477TIP3   OH240845   1.877   3.573   0.022 -0.2800  0.0821 -0.1429
 6477TIP3    H140846   1.845   3.634  -0.044  0.7928  0.2947 -0.4863
 6477TIP3    H240847   1.972   3.574   0.012 -0.1048 -0.0861  1.2170
 6478TIP3   OH240848   3.253   2.554  13.222  0.5250  0.1962 -0.0420
 6478TIP3    H140849   3.235   2.591  13.308  1.1357  0.0283  0.1648
 6478TIP3    H240850   3.305   2.621  13.177  0.6535  0.0685 -0.0864
 6479TIP3   OH240851   1.718   4.298  13.835 -0.1943  0.0081  0.4605
 6479TIP3    H140852   1.761   4.214  13.846  0.2868  0.4050  1.7815
 6479TIP3    H240853   1.624   4.277  13.836 -0.0869 -0.4532  1.3481
 6480TIP3   OH240854   4.486   6.681   0.313  0.1076  0.2387  0.0607
 6480TIP3    H140855   4.420   6.750   0.314  0.3468  0.5229 -1.1599
 6480TIP3    H240856   4.566   6.726   0.285  0.3845 -0.4353 -0.2456
 6481TIP3   OH240857   2.927   2.044   0.521  0.6161  0.6299  0.1824
 6481TIP3    H140858   3.001   2.096   0.491 -0.6635  1.3300 -1.9941
 6481TIP3    H240859   2.886   2.096   0.589  2.0272  0.2691  1.3552
 6482TIP3   OH240860   6.493   1.900   1.405 -0.4888  0.4700  0.2679
 6482TIP3    H140861   6.531   1.981   1.372 -0.4976  0.6765  0.7568
 6482TIP3    H240862   6.520   1.833   1.342  0.6273  0.6228  0.5822
 6483TIP3   OH240863   0.861   4.622  13.173  0.0891  0.4381 -0.2157
 6483TIP3    H140864   0.794   4.690  13.176  0.4227  0.7217  1.0151
 6483TIP3    H240865   0.811   4.540  13.163 -0.3803  0.7270 -0.2588
 6484TIP3   OH240866   1.787   0.276  14.163 -0.4048 -0.5750 -0.0317
 6484TIP3    H140867   1.708   0.327  14.183 -0.1634 -0.5685  0.9516
 6484TIP3    H240868   1.817   0.311  14.079 -3.6297 -3.2760 -2.5506
 6485TIP3   OH240869   1.878   3.537  15.624  0.1624  0.4390  0.1892
 6485TIP3    H140870   1.969   3.564  15.611 -0.0787  0.2944 -2.3647
 6485TIP3    H240871   1.836   3.554  15.539 -1.8550 -0.7636  0.8875
 6486TIP3   OH240872   2.748   2.459   0.093  0.0601 -0.4922 -0.5139
 6486TIP3    H140873   2.660   2.475   0.060  0.5576  3.2252 -0.4604
 6486TIP3    H240874   2.736   2.394   0.162 -2.3005 -1.5458 -1.8005
 6487TIP3   OH240875   6.285   1.128  15.855 -0.5798  0.2582  0.3149
 6487TIP3    H140876   6.280   1.137  15.760  1.0445  1.9697  0.3323
 6487TIP3    H240877   6.268   1.035  15.871 -1.8061  0.1036 -1.5451
 6488TIP3   OH240878   4.046   5.870   3.863  0.0020  0.3739 -0.0737
 6488TIP3    H140879   4.031   5.846   3.954 -1.5188  0.3877 -0.2912
 6488TIP3    H240880   4.048   5.787   3.816  1.6371  0.3062  0.0478
 6489TIP3   OH240881   0.577   3.647   0.893 -0.1036 -0.2573  0.3435
 6489TIP3    H140882   0.576   3.552   0.879  0.3741 -0.1081 -0.8581
 6489TIP3    H240883   0.618   3.658   0.979 -0.2232 -1.1418  0.5248
 6490TIP3   OH240884   2.927   4.998   1.409 -0.2133 -0.0215  0.1716
 6490TIP3    H140885   2.874   5.070   1.373  0.8491  1.2678  1.0937
 6490TIP3    H240886   2.967   4.957   1.332  0.0941  1.1318 -0.3023
 6491TIP3   OH240887   4.014   2.443   2.926  0.4589  0.1671 -0.0509
 6491TIP3    H140888   4.058   2.471   3.006  0.7238 -0.0233 -0.1282
 6491TIP3    H240889   4.037   2.510   2.861  0.6460  0.0599 -0.0950
 6492TIP3   OH240890   3.519   1.173   4.942 -0.0999  0.2528 -0.3616
 6492TIP3    H140891   3.473   1.133   5.016 -1.7066  1.1800 -0.8322
 6492TIP3    H240892   3.520   1.266   4.962 -0.5901  0.5180 -1.5387
 6493TIP3   OH240893   4.527   2.823   4.949  0.8297 -0.2451 -0.4136
 6493TIP3    H140894   4.550   2.733   4.970 -0.2640 -1.3271 -3.3538
 6493TIP3    H240895   4.446   2.839   4.997  0.3442 -1.3103 -0.8406
 6494TIP3   OH240896   0.149   5.920   2.798  0.4366  0.2770 -0.0603
 6494TIP3    H140897   0.224   5.933   2.740  1.0473 -0.0252  0.6459
 6494TIP3    H240898   0.186   5.922   2.886 -0.4945  0.8731  0.3427
 6495TIP3   OH240899   0.160   3.048  16.030 -0.3828  0.6144 -0.0596
 6495TIP3    H140900   0.180   2.958  16.058 -2.8598  0.0275  0.0618
 6495TIP3    H240901   0.081   3.039  15.977  0.2729  2.5621 -1.4594
 6496TIP3   OH240902   1.436   0.624   5.829  0.0382 -0.1984  0.0942
 6496TIP3    H140903   1.367   0.628   5.895 -1.2172 -0.1263 -1.1689
 6496TIP3    H240904   1.442   0.531   5.807  1.7843 -0.5003  1.6018
 6497TIP3   OH240905   4.171   1.950  10.834 -0.2091  0.3421  0.5779
 6497TIP3    H140906   4.247   1.970  10.888  1.3231 -0.9217 -0.9798
 6497TIP3    H240907   4.208   1.914  10.753 -2.4815 -0.6783 -0.0921
 6498TIP3   OH240908   3.932   5.902  16.424 -0.2808  0.2315 -0.2441
 6498TIP3    H140909   4.017   5.939  16.400  0.3436  0.8691  2.6509
 6498TIP3    H240910   3.918   5.930  16.514 -1.6502 -3.2974  0.7986
 6499TIP3   OH240911   1.318   0.707   6.094 -0.5773 -0.2027 -0.1678
 6499TIP3    H140912   1.223   0.716   6.101 -0.3350  1.9612  1.6259
 6499TIP3    H240913   1.345   0.676   6.181  0.4831  1.0041 -0.0424
 6500TIP3   OH240914   4.122   5.240   2.281  0.2156  0.1971 -0.1720
 6500TIP3    H140915   4.183   5.176   2.244 -0.5986 -0.3182 -0.6783
 6500TIP3    H240916   4.161   5.266   2.364 -0.5257 -2.7854  1.2479
 6501TIP3   OH240917   3.113   6.402  12.759  0.4663 -0.1087  0.0522
 6501TIP3    H140918   3.200   6.441  12.769  0.1577  0.5727  0.0887
 6501TIP3    H240919   3.070   6.415  12.844 -0.2993  1.1251 -0.4997
 6502TIP3   OH240920   2.439   3.452   0.148 -0.3763  0.4393 -0.2797
 6502TIP3    H140921   2.465   3.429   0.238 -0.9565  1.3501  0.1271
 6502TIP3    H240922   2.507   3.411   0.093 -0.3241 -0.6100  0.5243
 6503TIP3   OH240923   1.725   6.078  12.935  0.1368 -0.8602 -0.3388
 6503TIP3    H140924   1.766   6.000  12.971 -0.2986  0.1821  2.6667
 6503TIP3    H240925   1.653   6.045  12.881 -1.1918 -2.6234  2.2764
 6504TIP3   OH240926   3.747   2.917  12.163 -0.3707  0.2651  0.6157
 6504TIP3    H140927   3.753   2.962  12.079  1.6151  0.2918  0.7155
 6504TIP3    H240928   3.808   2.843  12.155 -0.3038  0.1499  1.9516
 6505TIP3   OH240929   2.698   4.587   5.088 -0.4061  1.0383 -0.2137
 6505TIP3    H140930   2.688   4.504   5.135  2.2470  1.1321  0.6507
 6505TIP3    H240931   2.792   4.598   5.077 -0.7494  3.2087 -1.6959
 6506TIP3   OH240932   0.366   1.233  14.421  0.0063 -1.0203 -0.4143
 6506TIP3    H140933   0.354   1.328  14.426  0.0507 -0.9638 -1.2659
 6506TIP3    H240934   0.452   1.218  14.461  0.5147 -0.5653 -1.2921
 6507TIP3   OH240935   3.198   0.315   1.517  0.1154  0.0521  0.3473
 6507TIP3    H140936   3.275   0.310   1.573  0.0753 -0.5538  0.3479
 6507TIP3    H240937   3.227   0.365   1.440 -0.0890  1.7633  1.3155
 6508TIP3   OH240938   0.502   0.250  16.208  0.0971  0.0451 -0.0620
 6508TIP3    H140939   0.558   0.295  16.144 -0.1821  1.2904  0.5473
 6508TIP3    H240940   0.553   0.173  16.233  0.2871 -0.3978 -1.6487
 6509TIP3   OH240941   1.011   2.893   4.881 -0.0068 -0.1410 -0.6155
 6509TIP3    H140942   1.000   2.987   4.897  0.2175  0.1321 -1.9282
 6509TIP3    H240943   0.922   2.858   4.887 -0.0682  0.1177  0.0633
 6510TIP3   OH240944   2.897   5.586   1.050 -0.0502  0.0313  0.4273
 6510TIP3    H140945   2.881   5.668   1.003  1.2019 -0.0747 -0.2142
 6510TIP3    H240946   2.922   5.614   1.139 -0.3263  0.3091  0.4210
 6511TIP3   OH240947   6.606   2.732  16.592  0.3500  0.2914  0.1159
 6511TIP3    H140948   6.664   2.735  16.668  2.0153 -1.3251 -1.0095
 6511TIP3    H240949   6.565   2.645  16.597 -0.2239  0.5328 -0.3428
 6512TIP3   OH240950   2.409   6.649  15.926 -0.3227 -0.0793  0.2954
 6512TIP3    H140951   2.412   6.573  15.868 -0.7459  0.1843 -0.0743
 6512TIP3    H240952   2.387   6.613  16.012  4.1438 -1.0442  1.2767
 6513TIP3   OH240953   5.523   2.287   4.686  0.9621  0.3770  0.4339
 6513TIP3    H140954   5.534   2.225   4.758 -1.9666 -1.1564 -0.2932
 6513TIP3    H240955   5.434   2.271   4.654  1.6541  1.9780 -2.6365
 6514TIP3   OH240956   1.362   3.163  15.278 -0.0864  0.5572 -0.0759
 6514TIP3    H140957   1.320   3.245  15.305  0.7421  0.7871  0.5501
 6514TIP3    H240958   1.407   3.132  15.357 -0.4102 -0.5185 -0.2962
 6515TIP3   OH240959   5.952   4.442   1.764 -0.1846 -0.8149 -0.8400
 6515TIP3    H140960   5.888   4.466   1.697 -0.7693  0.1046  0.0171
 6515TIP3    H240961   6.014   4.514   1.765 -1.6704  0.5684  1.4091
 6516TIP3   OH240962   5.672   5.655   2.987  0.3796  0.3136 -0.2062
 6516TIP3    H140963   5.751   5.669   3.039  1.2606 -2.7400 -0.5412
 6516TIP3    H240964   5.603   5.638   3.051  0.3141  1.4464  0.0429
 6517TIP3   OH240965   3.690   2.612  14.571  0.2222  0.1269  0.3336
 6517TIP3    H140966   3.773   2.633  14.613  0.2046  0.7916  0.0408
 6517TIP3    H240967   3.640   2.567  14.639  0.4539  0.5780  0.8084
 6518TIP3   OH240968   1.726   2.379  16.568  0.1982  0.5969  0.2471
 6518TIP3    H140969   1.677   2.392  16.648  1.0872 -0.3173  0.9612
 6518TIP3    H240970   1.661   2.346  16.505 -0.5552  1.5702  0.4865
 6519TIP3   OH240971   4.246   6.529  16.335  0.0796 -0.1847 -0.4613
 6519TIP3    H140972   4.172   6.566  16.383  0.4419  0.8438 -0.6690
 6519TIP3    H240973   4.217   6.527  16.244  0.6841  1.3029 -0.7228
 6520TIP3   OH240974   4.619   5.840  12.472  0.0853 -0.4651 -0.5758
 6520TIP3    H140975   4.533   5.856  12.513 -1.0890 -0.5112 -2.8532
 6520TIP3    H240976   4.680   5.893  12.523 -1.0396 -1.4067  1.9178
 6521TIP3   OH240977   5.492   1.475   2.234 -0.5046 -0.3896 -0.2889
 6521TIP3    H140978   5.439   1.548   2.267 -0.6587 -0.3598 -0.5926
 6521TIP3    H240979   5.522   1.505   2.148 -0.3881 -0.5989 -0.3213
 6522TIP3   OH240980   3.823   3.088   1.517  0.4351 -0.3649 -0.4441
 6522TIP3    H140981   3.846   3.097   1.610 -1.1755  0.4493 -0.0839
 6522TIP3    H240982   3.738   3.131   1.510  1.0253  0.5885 -2.5350
 6523TIP3   OH240983   3.978   3.982   3.548 -0.2574 -0.6117  0.6453
 6523TIP3    H140984   4.061   4.029   3.548  0.6715 -2.1983  1.0200
 6523TIP3    H240985   3.963   3.960   3.456 -2.2416  2.8825 -0.0659
 6524TIP3   OH240986   1.915   5.967  17.087 -0.2500  0.4678  0.2274
 6524TIP3    H140987   1.889   5.978  16.996  0.7141  0.4735 -0.0639
 6524TIP3    H240988   1.949   6.053  17.113  0.7627  0.1123  0.1434
 6525TIP3   OH240989   3.255   2.863  12.763  0.2655 -0.4085 -0.0152
 6525TIP3    H140990   3.227   2.943  12.718 -2.0525 -1.0768  0.1187
 6525TIP3    H240991   3.317   2.822  12.703 -0.3205  0.3247 -1.1700
 6526TIP3   OH240992   2.054   1.368   4.292  0.1814 -0.7513  0.1690
 6526TIP3    H140993   2.072   1.350   4.385 -1.4546 -2.1589  0.2715
 6526TIP3    H240994   2.069   1.284   4.249  1.1875 -0.0409 -0.9329
 6527TIP3   OH240995   1.088   1.252   2.840 -0.2905  0.4239  0.0112
 6527TIP3    H140996   1.177   1.286   2.840 -0.0779 -0.0067  1.7613
 6527TIP3    H240997   1.098   1.159   2.819 -0.1246  0.0495  1.5939
 6528TIP3   OH240998   0.750   0.391  16.080 -0.0627  0.2358 -0.2469
 6528TIP3    H140999   0.741   0.449  16.155 -1.3252 -1.4261  0.9659
 6528TIP3    H241000   0.842   0.363  16.083  0.0547  0.6681  0.3081
 6529TIP3   OH241001   0.813   3.635  10.333 -0.1225  0.6892 -0.1153
 6529TIP3    H141002   0.735   3.580  10.321 -0.0294  0.7114 -0.9013
 6529TIP3    H241003   0.882   3.573  10.358 -0.6002  0.7946  1.6023
 6530TIP3   OH241004   4.455   4.310  13.524  0.0328 -0.2318  0.1362
 6530TIP3    H141005   4.420   4.225  13.495 -3.6095  1.2014 -0.2570
 6530TIP3    H241006   4.474   4.356  13.443 -2.4540  0.8727  0.0804
 6531TIP3   OH241007   4.400   3.041   3.241 -0.5796 -0.2218  0.0108
 6531TIP3    H141008   4.319   3.070   3.199 -0.9419 -1.7683 -0.4139
 6531TIP3    H241009   4.406   3.095   3.320 -0.7125  1.6382 -1.1823
 6532TIP3   OH241010   5.224   2.100  13.739  0.9302  0.3691  0.3981
 6532TIP3    H141011   5.223   2.122  13.832 -1.2944  1.3238  0.2170
 6532TIP3    H241012   5.131   2.102  13.713  1.5365  0.6850 -1.9735
 6533TIP3   OH241013   1.478   6.099   5.365  0.4476  0.2005 -0.1150
 6533TIP3    H141014   1.571   6.118   5.381  0.3829  2.5737 -1.9726
 6533TIP3    H241015   1.435   6.116   5.449  1.5516  0.0106  0.5084
 6534TIP3   OH241016   1.520   0.271   3.277 -0.1239 -0.1626  0.5364
 6534TIP3    H141017   1.441   0.307   3.236 -0.0571  0.5743  1.0297
 6534TIP3    H241018   1.512   0.297   3.369 -0.1286 -1.5300  0.9461
 6535TIP3   OH241019   0.474   2.412  11.049 -0.0644  0.2296  0.0002
 6535TIP3    H141020   0.436   2.499  11.044 -0.9615 -0.2254 -1.8636
 6535TIP3    H241021   0.518   2.410  11.134  1.3651  3.0451 -0.5488
 6536TIP3   OH241022   0.547   4.600   1.258 -0.2668  0.0059 -0.1467
 6536TIP3    H141023   0.520   4.544   1.186  1.4106 -0.1666 -0.7009
 6536TIP3    H241024   0.547   4.689   1.221  2.4976 -0.2772 -1.0631
 6537TIP3   OH241025   4.006   0.588  13.592  0.2733  0.1861 -0.6971
 6537TIP3    H141026   3.928   0.628  13.631 -0.4745 -1.5807 -0.2852
 6537TIP3    H241027   4.066   0.661  13.579 -0.7132  1.3149  0.7376
 6538TIP3   OH241028   0.852   5.996   1.123 -0.2633  0.0347  0.2571
 6538TIP3    H141029   0.863   6.010   1.217 -1.2689  2.6554  0.0618
 6538TIP3    H241030   0.933   6.028   1.085  0.7493 -2.3395  0.2364
 6539TIP3   OH241031   6.221   5.344  12.432 -0.3461  0.0629 -0.1966
 6539TIP3    H141032   6.127   5.330  12.442 -0.4912  1.0223 -0.2102
 6539TIP3    H241033   6.231   5.438  12.418  0.6418  0.0181  0.1237
 6540TIP3   OH241034   4.390   1.196  11.295  0.2847  0.3224 -0.1821
 6540TIP3    H141035   4.438   1.256  11.238  0.4775 -0.2911 -0.6672
 6540TIP3    H241036   4.322   1.158  11.240  1.4999 -1.5305 -0.4980
 6541TIP3   OH241037   6.043   5.542  17.018 -0.0875 -0.1144 -0.1535
 6541TIP3    H141038   6.042   5.590  16.935 -2.3794  0.9071  0.3879
 6541TIP3    H241039   6.116   5.580  17.067  1.4606 -0.9063 -1.7378
 6542TIP3   OH241040   0.083   6.729  15.449  0.3559 -0.1644 -0.2087
 6542TIP3    H141041   0.013   6.693  15.395 -0.5873 -0.7320  1.3627
 6542TIP3    H241042   0.074   6.686  15.533  0.6800  1.9972  0.9970
 6543TIP3   OH241043   0.430   1.867  13.809  0.8733 -0.0594 -0.5331
 6543TIP3    H141044   0.499   1.875  13.875 -0.8668  3.3382  1.1491
 6543TIP3    H241045   0.424   1.954  13.771 -2.1346 -0.3691 -0.9528
 6544TIP3   OH241046   5.282   6.613   4.914  0.3273  0.5962  0.5572
 6544TIP3    H141047   5.370   6.648   4.905  0.0005  1.6541  1.2860
 6544TIP3    H241048   5.277   6.542   4.850  1.0673  1.7735 -0.8456
 6545TIP3   OH241049   6.088   5.127   2.764  0.4919 -0.1781  0.1157
 6545TIP3    H141050   6.079   5.158   2.854 -0.3488  2.4384 -0.7545
 6545TIP3    H241051   6.006   5.153   2.721  1.2774 -0.4101 -1.6367
 6546TIP3   OH241052   2.129   5.759   4.821  0.8124 -0.3186 -0.0714
 6546TIP3    H141053   2.220   5.741   4.797  1.7282  2.0752  1.2343
 6546TIP3    H241054   2.106   5.836   4.769  0.1894  0.1972  0.9447
 6547TIP3   OH241055   0.248   5.882   3.099  0.4695 -0.2970 -0.1653
 6547TIP3    H141056   0.201   5.823   3.157  0.5260 -1.0296 -0.8551
 6547TIP3    H241057   0.337   5.845   3.093  1.5245  1.6487  1.9801
 6548TIP3   OH241058   3.039   5.896  10.948  0.3428 -0.7599 -0.4604
 6548TIP3    H141059   2.956   5.928  10.982  0.7272 -0.8346  0.5948
 6548TIP3    H241060   3.053   5.945  10.867  0.3652  0.9420  0.5235
 6549TIP3   OH241061   4.830   1.150   5.252 -0.4462 -0.3340  0.6169
 6549TIP3    H141062   4.902   1.089   5.235 -0.3785  0.4539 -2.6355
 6549TIP3    H241063   4.785   1.114   5.328  2.0650 -2.0677  1.3882
 6550TIP3   OH241064   0.121   2.652  15.152 -0.2364  0.0613 -0.0990
 6550TIP3    H141065   0.103   2.592  15.080 -1.2075 -0.8484  0.8704
 6550TIP3    H241066   0.206   2.624  15.187  1.2644  1.7769 -2.0939
 6551TIP3   OH241067   6.470   4.625  16.001 -0.1038 -0.0908  0.4788
 6551TIP3    H141068   6.426   4.662  16.078  0.1536 -1.0095  1.0811
 6551TIP3    H241069   6.535   4.691  15.976 -1.7871  1.3116 -0.4437
 6552TIP3   OH241070   2.608   3.441   0.657  0.0469  0.3350  0.0824
 6552TIP3    H141071   2.603   3.352   0.691 -0.6739  0.0239 -0.8175
 6552TIP3    H241072   2.665   3.487   0.719 -1.9697  0.0575  2.2932
 6553TIP3   OH241073   3.565   3.534  15.340 -0.7679  0.1645  0.4956
 6553TIP3    H141074   3.550   3.504  15.250 -0.3766 -0.0776  0.5076
 6553TIP3    H241075   3.496   3.490  15.391 -0.1516 -0.8031  0.5236
 6554TIP3   OH241076   2.821   3.222   0.237  0.5004  0.7297 -0.4757
 6554TIP3    H141077   2.807   3.218   0.142  2.3112 -0.6969 -0.7260
 6554TIP3    H241078   2.820   3.131   0.265  1.3550  1.0529  0.6607
 6555TIP3   OH241079   4.363   5.130   5.139 -0.1089 -0.0209  0.4184
 6555TIP3    H141080   4.436   5.133   5.077  0.1400 -0.6056  0.6773
 6555TIP3    H241081   4.380   5.053   5.193 -1.1660 -0.4497  0.1709
 6556TIP3   OH241082   2.142   3.232   3.084  0.3209 -0.3090 -0.4076
 6556TIP3    H141083   2.169   3.159   3.141 -0.2336  0.2947  0.6510
 6556TIP3    H241084   2.048   3.243   3.102 -0.1034 -0.7006 -2.1403
 6557TIP3   OH241085   6.166   0.872   5.322  0.9981 -0.6550 -0.1696
 6557TIP3    H141086   6.121   0.935   5.379  1.6942 -0.9495  0.7162
 6557TIP3    H241087   6.173   0.793   5.374  1.6967 -0.9158 -0.6439
 6558TIP3   OH241088   5.927   1.107  15.986  0.3617 -0.8618  0.4730
 6558TIP3    H141089   5.927   1.176  15.920 -1.5084  0.6916  1.9661
 6558TIP3    H241090   5.966   1.032  15.942 -1.1251 -0.0445 -2.5210
 6559TIP3   OH241091   1.593   4.319   4.531 -0.5093 -0.5842  0.3169
 6559TIP3    H141092   1.528   4.261   4.490  1.4375 -1.5747 -1.5791
 6559TIP3    H241093   1.607   4.281   4.617 -2.6426 -0.1312  0.9246
 6560TIP3   OH241094   6.410   5.513  14.582 -0.3866 -0.1859 -0.0034
 6560TIP3    H141095   6.345   5.579  14.560  0.1384  0.0292 -0.9497
 6560TIP3    H241096   6.370   5.463  14.653 -0.3020  1.8978  1.5924
 6561TIP3   OH241097   4.007   5.374   0.972  0.7707 -0.3160  0.4966
 6561TIP3    H141098   3.954   5.323   1.032 -0.4187  1.8897  1.4549
 6561TIP3    H241099   4.003   5.463   1.006 -0.7632  1.3060 -3.2601
 6562TIP3   OH241100   5.763   2.494  15.549 -1.1029 -0.9652 -0.4607
 6562TIP3    H141101   5.703   2.565  15.526 -0.6888 -0.4011  0.1912
 6562TIP3    H241102   5.813   2.478  15.469  0.3131  0.9692 -0.0194
 6563TIP3   OH241103   2.632   2.122  14.153 -0.0246  0.0489  0.7119
 6563TIP3    H141104   2.561   2.072  14.194  0.0975 -0.7173  0.0053
 6563TIP3    H241105   2.610   2.213  14.172 -0.1913 -0.2516  2.1181
 6564TIP3   OH241106   5.764   2.816   0.470  0.2982 -0.9284  0.5333
 6564TIP3    H141107   5.808   2.810   0.385  2.5094 -1.4322  1.6393
 6564TIP3    H241108   5.714   2.897   0.464  3.7305  1.4061  0.1231
 6565TIP3   OH241109   5.350   0.933  12.203 -0.3183 -0.0137 -0.2866
 6565TIP3    H141110   5.280   0.951  12.266 -0.6583 -1.9149 -0.0707
 6565TIP3    H241111   5.430   0.963  12.246 -0.5623 -1.1290  1.0163
 6566TIP3   OH241112   3.540   1.112  12.442 -0.0820 -0.2216 -0.3019
 6566TIP3    H141113   3.480   1.175  12.482 -0.9603  0.1003 -1.9967
 6566TIP3    H241114   3.605   1.093  12.510  0.3230  2.6526  0.2429
 6567TIP3   OH241115   5.930   0.815  14.570 -0.1893  0.0827 -0.3300
 6567TIP3    H141116   5.867   0.845  14.636 -0.3433 -1.8029  0.4436
 6567TIP3    H241117   5.883   0.822  14.487 -0.5327  1.0034 -0.0774
 6568TIP3   OH241118   4.904   2.746  11.644  0.2658 -0.0734 -0.2448
 6568TIP3    H141119   4.871   2.823  11.597 -0.4800 -0.2898 -0.0972
 6568TIP3    H241120   4.957   2.699  11.580  0.5218  0.4347 -0.4096
 6569TIP3   OH241121   0.417   3.887  14.755 -0.4476 -0.1353 -0.7182
 6569TIP3    H141122   0.323   3.892  14.775 -0.2566 -0.8672  0.4287
 6569TIP3    H241123   0.420   3.880  14.659 -1.6281 -1.1108 -0.7078
 6570TIP3   OH241124   4.997   4.088   6.248 -0.0031 -0.2527  0.0311
 6570TIP3    H141125   4.981   4.173   6.288  0.3424 -0.3048  0.2920
 6570TIP3    H241126   4.938   4.084   6.173 -0.7784 -0.2164  0.6277
 6571TIP3   OH241127   3.883   5.246  15.080 -0.0789 -0.3498  0.5985
 6571TIP3    H141128   3.927   5.209  15.003  1.9917  0.5287  1.2941
 6571TIP3    H241129   3.838   5.172  15.120  0.4582 -1.2187 -0.3657
 6572TIP3   OH241130   4.408   0.938   5.731 -0.1813 -0.3203 -0.1227
 6572TIP3    H141131   4.434   1.003   5.665 -0.4975 -0.1945 -0.1247
 6572TIP3    H241132   4.401   0.856   5.682  0.6934 -0.4581 -0.0307
 6573TIP3   OH241133   4.288   4.127  12.589  0.0463 -0.3347  0.3167
 6573TIP3    H141134   4.248   4.145  12.504  0.7247  0.8132  0.2191
 6573TIP3    H241135   4.338   4.046  12.575 -1.5070 -1.3275  0.2197
 6574TIP3   OH241136   5.923   0.653   2.532 -0.6663 -0.5780 -0.0652
 6574TIP3    H141137   6.017   0.635   2.523 -0.2533  0.9200  0.9447
 6574TIP3    H241138   5.916   0.701   2.615 -1.9252  1.9447 -1.5328
 6575TIP3   OH241139   2.692   0.041   5.874 -0.0783  0.2028 -0.5763
 6575TIP3    H141140   2.604   0.004   5.879  0.5201 -1.3179 -0.7350
 6575TIP3    H241141   2.750  -0.035   5.876  1.2645  1.1945  0.0598
 6576TIP3   OH241142   5.896   6.691   2.316  0.3659 -0.0044 -0.4243
 6576TIP3    H141143   5.903   6.784   2.336  1.6297  0.0825 -1.2003
 6576TIP3    H241144   5.801   6.675   2.311  0.1164  1.7457 -2.5531
 6577TIP3   OH241145   6.753   1.834   5.790  0.2065  0.4238 -0.1455
 6577TIP3    H141146   6.698   1.900   5.749  0.2254  1.4126  1.3330
 6577TIP3    H241147   6.697   1.795   5.858  0.6493 -0.0559 -0.0499
 6578TIP3   OH241148   3.887   4.692   2.702  0.2217  0.8145  0.2459
 6578TIP3    H141149   3.917   4.650   2.782 -2.7744 -0.6691  0.7175
 6578TIP3    H241150   3.805   4.735   2.726 -0.5981  0.5948 -1.9181
 6579TIP3   OH241151   5.427   6.367  10.389  0.3726  0.0122 -0.0373
 6579TIP3    H141152   5.456   6.453  10.422 -1.9583  0.5743  0.7006
 6579TIP3    H241153   5.332   6.367  10.400  0.0716 -1.8963 -1.9382
 6580TIP3   OH241154   3.218   2.450   1.989  0.3965 -0.5091  0.5034
 6580TIP3    H141155   3.134   2.471   2.031  0.7981  0.8278  0.6787
 6580TIP3    H241156   3.249   2.372   2.036 -1.0830 -1.4861 -0.0670
 6581TIP3   OH241157   5.001   6.209   3.995 -0.2696 -0.0838  0.0440
 6581TIP3    H141158   5.022   6.169   4.080 -1.8350 -2.1280 -0.4616
 6581TIP3    H241159   4.908   6.191   3.982 -0.1322  0.4510 -1.9974
 6582TIP3   OH241160   3.005   2.596   4.503  0.5128 -0.0763  0.4965
 6582TIP3    H141161   2.920   2.638   4.519  1.0918  1.3161  0.0403
 6582TIP3    H241162   3.066   2.640   4.561  1.1382 -0.2807  0.0112
 6583TIP3   OH241163   0.396   6.158  13.200  0.1963  0.5145  0.0829
 6583TIP3    H141164   0.327   6.194  13.145  0.0204  0.2115  0.1040
 6583TIP3    H241165   0.350   6.101  13.262  0.4716  0.2563  0.0506
 6584TIP3   OH241166   2.945   3.395   2.723  0.1395 -0.0452  0.0923
 6584TIP3    H141167   2.874   3.370   2.664  0.7274 -0.8354 -0.2981
 6584TIP3    H241168   2.972   3.482   2.694  0.6842 -0.5875 -1.0530
 6585TIP3   OH241169   1.394   5.674   6.710 -0.6061 -0.3364 -0.7011
 6585TIP3    H141170   1.316   5.639   6.753 -0.9694  1.2344 -0.0029
 6585TIP3    H241171   1.364   5.700   6.623 -0.9520  0.4788 -0.3545
 6586TIP3   OH241172   3.064   5.083  15.843 -0.5763 -0.2437 -0.1830
 6586TIP3    H141173   3.057   5.167  15.888  1.0174 -0.6260  0.8490
 6586TIP3    H241174   3.018   5.096  15.760  0.2189  1.8576 -0.3447
 6587TIP3   OH241175   5.157   2.340   3.591  0.1438  0.0939  0.1446
 6587TIP3    H141176   5.133   2.248   3.583 -2.3023  0.6985 -0.5689
 6587TIP3    H241177   5.115   2.369   3.672  0.2831  0.7447 -0.0074
 6588TIP3   OH241178   0.032   4.400   3.348 -0.0021  0.1632  0.5863
 6588TIP3    H141179  -0.062   4.395   3.329 -0.6286  1.0178  3.0845
 6588TIP3    H241180   0.063   4.474   3.296 -0.5160 -0.5793 -0.8363
 6589TIP3   OH241181   2.758   5.496  13.893  0.6839  0.0642  0.0345
 6589TIP3    H141182   2.813   5.562  13.851  1.5455 -1.0087 -0.5993
 6589TIP3    H241183   2.806   5.414  13.881 -0.2540 -0.6513  0.9737
 6590TIP3   OH241184   6.346   5.497   3.975  0.0019 -0.6522 -0.3710
 6590TIP3    H141185   6.259   5.457   3.975 -0.2065 -0.1974 -0.1834
 6590TIP3    H241186   6.347   5.553   4.053 -0.6908  1.8286 -2.0347
 6591TIP3   OH241187   2.578   5.688  14.014 -0.1922  0.0211  0.2184
 6591TIP3    H141188   2.571   5.695  13.919  1.2831  1.0178  0.1571
 6591TIP3    H241189   2.663   5.648  14.030 -1.7728 -3.4124  1.1011
 6592TIP3   OH241190   2.248   2.195   6.265  0.1342 -0.1134  0.4083
 6592TIP3    H141191   2.156   2.172   6.277  0.0529 -0.1450 -0.2302
 6592TIP3    H241192   2.294   2.149   6.335 -0.2927 -0.3760  0.5180
 6593TIP3   OH241193   4.209   0.509   0.944  0.3152  0.1569 -0.2370
 6593TIP3    H141194   4.249   0.531   0.860 -1.3189 -1.0314 -1.3894
 6593TIP3    H241195   4.267   0.442   0.981 -0.1169 -0.9854 -1.5145
 6594TIP3   OH241196   3.354   0.949   0.413  0.3182  0.1516 -0.5571
 6594TIP3    H141197   3.312   1.033   0.432  0.6098  0.1991 -0.0917
 6594TIP3    H241198   3.308   0.886   0.468  2.4826  0.6124  2.0326
 6595TIP3   OH241199   4.410   4.547   2.963 -0.3269  0.3300  0.2024
 6595TIP3    H141200   4.367   4.569   2.881 -0.3124 -0.9050 -0.1618
 6595TIP3    H241201   4.413   4.451   2.964  1.6049  0.3407  0.6330
 6596TIP3   OH241202   0.087   5.085   4.561 -0.2888 -0.2753 -0.2636
 6596TIP3    H141203   0.114   5.071   4.652 -1.5048  1.5315  0.4323
 6596TIP3    H241204   0.147   5.152   4.529 -0.2240 -0.5071 -0.6334
 6597TIP3   OH241205   0.045   3.589   2.567 -0.2817 -0.9152 -0.0257
 6597TIP3    H141206   0.139   3.571   2.562  0.3147  2.0452 -2.6933
 6597TIP3    H241207   0.039   3.675   2.609 -1.4923  0.2467 -2.3912
 6598TIP3   OH241208   4.593   0.602  14.834 -0.1783  0.1508  0.3028
 6598TIP3    H141209   4.679   0.639  14.815  0.0160  0.1918  1.2419
 6598TIP3    H241210   4.539   0.677  14.860 -0.8395  0.3028 -1.3199
 6599TIP3   OH241211   1.273   4.462   4.690 -0.6248  0.6215  0.2515
 6599TIP3    H141212   1.264   4.457   4.594  2.0554 -0.6349 -0.0251
 6599TIP3    H241213   1.261   4.371   4.719  0.7347  0.6072  0.8225
 6600TIP3   OH241214   3.822   3.817   4.085  0.3509 -0.6352  0.2848
 6600TIP3    H141215   3.731   3.789   4.096  0.8115 -1.6691  1.8733
 6600TIP3    H241216   3.838   3.811   3.991 -1.0350 -1.0247  0.0476
 6601TIP3   OH241217   0.767   1.106  16.670 -0.2193  0.6152 -0.4292
 6601TIP3    H141218   0.750   1.097  16.763  0.5245  1.3844 -0.2110
 6601TIP3    H241219   0.827   1.034  16.650  0.3014  0.9615 -0.1296
 6602TIP3   OH241220   4.422   3.713   2.772  0.2135 -0.9201 -0.4331
 6602TIP3    H141221   4.358   3.644   2.792  0.0973 -0.7463 -0.1811
 6602TIP3    H241222   4.456   3.738   2.858  0.8560 -1.2293 -0.5983
 6603TIP3   OH241223   3.041   3.553  11.331 -0.1620 -0.2042  0.1166
 6603TIP3    H141224   2.950   3.560  11.303  0.1580  1.8624 -0.5996
 6603TIP3    H241225   3.074   3.474  11.289 -0.9299  0.4289 -1.7803
 6604TIP3   OH241226   0.132   3.739   6.436 -0.3122 -0.2769 -0.3794
 6604TIP3    H141227   0.217   3.759   6.474 -0.4491 -1.0946  0.3851
 6604TIP3    H241228   0.090   3.682   6.499 -1.5336  0.2934 -0.6341
 6605TIP3   OH241229   2.445   5.644   3.943 -0.3399  0.0528 -0.0688
 6605TIP3    H141230   2.450   5.559   3.986 -1.2757 -0.2232 -0.4819
 6605TIP3    H241231   2.502   5.701   3.995  2.2295 -1.3583 -1.1314
 6606TIP3   OH241232   4.343   3.293  11.027 -0.1079  0.5237 -0.1664
 6606TIP3    H141233   4.297   3.246  11.096  2.7651 -0.0454  1.5438
 6606TIP3    H241234   4.371   3.375  11.067 -0.6806  1.4405 -1.5426
 6607TIP3   OH241235   1.680   3.928   2.408 -0.0751 -0.4964  0.4609
 6607TIP3    H141236   1.688   3.912   2.314 -1.0069 -0.4362  0.3569
 6607TIP3    H241237   1.589   3.957   2.419 -0.2084 -1.2504  1.4849
 6608TIP3   OH241238   6.585   1.703   1.255  0.3153 -0.2220  0.0473
 6608TIP3    H141239   6.553   1.663   1.175 -0.1560 -1.0708  0.6460
 6608TIP3    H241240   6.666   1.655   1.275  0.8657  0.5170 -0.3304
 6609TIP3   OH241241   0.377   2.229   2.575  0.0978 -0.1235 -0.2535
 6609TIP3    H141242   0.326   2.240   2.495  0.2569  0.6323 -0.2621
 6609TIP3    H241243   0.415   2.142   2.568  0.8439  0.2735 -1.4388
 6610TIP3   OH241244   1.435   4.267   6.572 -0.6209 -0.8714 -0.0644
 6610TIP3    H141245   1.400   4.197   6.627 -2.7074 -0.7365 -1.1415
 6610TIP3    H241246   1.389   4.346   6.601  0.3018 -0.2838 -0.1618
 6611TIP3   OH241247   4.592   1.284   3.004 -0.1797 -0.0149 -0.1436
 6611TIP3    H141248   4.564   1.207   2.956  0.7882  0.5848 -1.7275
 6611TIP3    H241249   4.667   1.318   2.956  0.2785  1.1434  1.2887
 6612TIP3   OH241250   6.617   4.767  12.852 -0.5046 -0.6424  0.1715
 6612TIP3    H141251   6.664   4.685  12.842 -0.1812 -0.3729 -0.6309
 6612TIP3    H241252   6.618   4.806  12.764 -1.2641 -0.1155  0.3818
 6613TIP3   OH241253   6.030   4.712   1.751 -0.0617  0.7028 -0.3568
 6613TIP3    H141254   5.964   4.768   1.792  0.6723  2.5109 -1.5626
 6613TIP3    H241255   6.016   4.724   1.657  1.5971  0.6370 -0.6283
 6614TIP3   OH241256   6.122   6.171  13.682 -0.7415  0.1488 -0.4975
 6614TIP3    H141257   6.192   6.198  13.622 -0.4657  1.3750  0.3223
 6614TIP3    H241258   6.044   6.168  13.627 -0.3294  0.3162 -1.1094
 6615TIP3   OH241259   2.006   6.628   1.312  0.0448  0.4113  0.2193
 6615TIP3    H141260   1.962   6.543   1.325 -0.6834  0.6692 -0.4909
 6615TIP3    H241261   2.075   6.609   1.248  1.1369 -0.0371  1.4807
 6616TIP3   OH241262   2.054   0.800   1.752 -0.4441 -0.0449 -0.3699
 6616TIP3    H141263   2.057   0.727   1.814 -0.3775 -1.2271 -1.7060
 6616TIP3    H241264   2.040   0.758   1.667 -2.7211  1.6567 -0.9222
 6617TIP3   OH241265   6.212   2.608   4.181 -0.1606 -0.4499  0.4056
 6617TIP3    H141266   6.160   2.659   4.244  0.4472 -0.1543  0.6751
 6617TIP3    H241267   6.298   2.649   4.183  0.2194 -1.2337  0.3110
 6618TIP3   OH241268   2.602   3.964   2.959  0.3092 -0.1435  0.1024
 6618TIP3    H141269   2.601   4.056   2.931  2.0727 -0.4058 -0.9365
 6618TIP3    H241270   2.668   3.962   3.028 -0.5096 -0.4555  0.8976
 6619TIP3   OH241271   1.420   5.885   2.561 -0.3905 -0.2002  0.5920
 6619TIP3    H141272   1.325   5.896   2.564 -0.3585  0.3947 -0.2474
 6619TIP3    H241273   1.445   5.871   2.653 -1.4764 -2.2361  0.6466
 6620TIP3   OH241274   2.297   1.707   3.041  0.1262 -0.2667  0.3935
 6620TIP3    H141275   2.292   1.680   3.133  2.3237 -1.1291  0.3237
 6620TIP3    H241276   2.206   1.712   3.012 -0.6347  0.2275  2.6571
 6621TIP3   OH241277   2.275   5.562  14.622 -0.2399  0.3312  0.2975
 6621TIP3    H141278   2.280   5.626  14.551 -1.0591 -0.3433 -0.3806
 6621TIP3    H241279   2.182   5.542  14.631 -0.3776  1.6310  2.6950
 6622TIP3   OH241280   6.481   3.325  13.067 -0.3061  0.2328 -0.3337
 6622TIP3    H141281   6.453   3.369  13.148  0.0062 -0.0184 -0.0821
 6622TIP3    H241282   6.403   3.277  13.038 -0.8359  1.4439 -0.9604
 6623TIP3   OH241283   5.976   6.605   3.187  0.1482 -0.0391 -0.2244
 6623TIP3    H141284   6.061   6.584   3.226  0.0272 -0.0738  0.0212
 6623TIP3    H241285   5.982   6.571   3.098 -0.0010 -1.0129  0.1263
 6624TIP3   OH241286   4.752   3.285   1.529  0.0433 -0.0693 -0.0480
 6624TIP3    H141287   4.844   3.266   1.549 -0.1896 -0.4329  0.7035
 6624TIP3    H241288   4.736   3.238   1.447  0.8700  1.0415 -0.8885
 6625TIP3   OH241289   3.427   0.921  12.266  0.1780  0.4514  0.2224
 6625TIP3    H141290   3.487   0.958  12.332 -0.5048  0.6002  0.7804
 6625TIP3    H241291   3.416   0.991  12.202  1.4202  0.0441 -0.4447
 6626TIP3   OH241292   1.729   0.168   4.939 -0.5228  1.3906 -0.2532
 6626TIP3    H141293   1.689   0.243   4.983  2.1520  3.4304 -1.0215
 6626TIP3    H241294   1.659   0.103   4.935 -3.0844  3.8966  0.2573
 6627TIP3   OH241295   3.997   2.030  12.745  0.6549 -0.2518  0.4052
 6627TIP3    H141296   4.050   2.020  12.666  0.7776  1.0231  0.3086
 6627TIP3    H241297   3.974   2.123  12.748 -1.3301 -0.6869  0.6150
 6628TIP3   OH241298   1.552   4.284  11.262  0.1174  0.2688 -0.8125
 6628TIP3    H141299   1.538   4.347  11.191  3.3284 -0.5196 -2.3826
 6628TIP3    H241300   1.621   4.324  11.316  0.7764 -0.9738 -0.6891
 6629TIP3   OH241301   4.025   2.831  12.604  0.0279 -0.3117  0.0312
 6629TIP3    H141302   3.981   2.889  12.667 -0.7320 -0.1595 -0.6183
 6629TIP3    H241303   3.971   2.752  12.604  0.6428 -0.7320  0.3674
 6630TIP3   OH241304   1.880   5.055  13.373  0.5852  0.2872 -0.1877
 6630TIP3    H141305   1.863   4.962  13.390  0.1199  0.6069  1.1677
 6630TIP3    H241306   1.957   5.075  13.425 -0.7286  1.2292  1.4985
 6631TIP3   OH241307   4.025   1.377  14.660  0.0939 -0.4406 -0.0454
 6631TIP3    H141308   4.078   1.337  14.728 -0.7495  0.7785  1.3994
 6631TIP3    H241309   3.978   1.448  14.704 -0.6809  0.2506 -1.8437
 6632TIP3   OH241310   3.065   4.563  14.432 -0.4756 -0.0517  0.2452
 6632TIP3    H141311   3.089   4.532  14.519 -0.3389 -0.6456  0.0020
 6632TIP3    H241312   3.066   4.484  14.377  1.0918  0.5357 -0.6455
 6633TIP3   OH241313   0.181   2.494   5.008  0.0612  0.1512  0.0286
 6633TIP3    H141314   0.184   2.439   4.929 -1.8738 -1.4193  0.9601
 6633TIP3    H241315   0.209   2.580   4.978  0.1678 -0.5905 -2.1879
 6634TIP3   OH241316   1.329   0.637   0.956  0.5447 -0.2486 -0.2508
 6634TIP3    H141317   1.340   0.587   0.876  1.4529 -2.1107  0.9624
 6634TIP3    H241318   1.265   0.588   1.007 -1.5118  1.9503 -0.5707
 6635TIP3   OH241319   4.792   5.045   2.598 -0.2702  0.5169 -0.0146
 6635TIP3    H141320   4.852   4.979   2.564 -1.0603 -0.1248 -0.2168
 6635TIP3    H241321   4.753   5.004   2.676 -0.6225  0.8214 -0.0253
 6636TIP3   OH241322   5.091   5.205   2.889 -0.4292  0.1333 -0.3310
 6636TIP3    H141323   5.112   5.271   2.956  1.2529  0.0082 -0.7026
 6636TIP3    H241324   5.151   5.133   2.906 -1.7216 -1.0060 -0.4226
 6637TIP3   OH241325   6.189   2.514   0.941 -0.2997  0.6170  0.1726
 6637TIP3    H141326   6.116   2.575   0.936  0.0571  1.3361  2.6734
 6637TIP3    H241327   6.169   2.458   1.016 -0.1092 -1.7281 -1.4208
 6638TIP3   OH241328   2.921   1.709   2.471  0.2446  0.2938  0.3287
 6638TIP3    H141329   2.940   1.692   2.563 -0.3180  0.7321  0.5301
 6638TIP3    H241330   2.961   1.636   2.424  2.8072  1.3849  0.6748
 6639TIP3   OH241331   1.964   0.404   4.700 -0.7563 -0.1731 -0.1477
 6639TIP3    H141332   1.966   0.452   4.782 -1.2991  0.4876 -0.5038
 6639TIP3    H241333   1.957   0.312   4.725 -2.0580  0.0931  0.5522
 6640TIP3   OH241334   1.600   6.593  13.996 -0.0123 -0.4834 -0.3150
 6640TIP3    H141335   1.558   6.675  14.025  0.1922 -0.8465  1.0951
 6640TIP3    H241336   1.527   6.535  13.976 -0.2056 -0.7648  1.1127
 6641TIP3   OH241337   5.072   2.405  14.196  0.4765 -0.4696 -0.5299
 6641TIP3    H141338   5.012   2.391  14.123 -0.5536 -0.7160  0.3362
 6641TIP3    H241339   5.021   2.456  14.260  1.7608  0.8450 -0.4959
 6642TIP3   OH241340   2.097   2.816   1.419 -0.1215  0.5089  0.7071
 6642TIP3    H141341   2.163   2.760   1.458  0.1112 -1.4162 -2.1656
 6642TIP3    H241342   2.014   2.778   1.445  0.0266 -1.7554 -1.6945
 6643TIP3   OH241343   4.770   5.757  16.468  0.4665 -0.0068 -0.1878
 6643TIP3    H141344   4.837   5.696  16.439  0.2944  0.1367 -0.9092
 6643TIP3    H241345   4.734   5.719  16.549  2.8312  0.9246  1.4095
 6644TIP3   OH241346   4.956   0.615  17.172 -0.2063 -0.7316  0.4933
 6644TIP3    H141347   4.987   0.545  17.229 -2.3439 -1.8600  0.3793
 6644TIP3    H241348   4.860   0.607  17.174 -0.4702  1.4083 -0.5112
 6645TIP3   OH241349   6.028   6.223   0.828 -0.7315  0.5412  0.1491
 6645TIP3    H141350   6.091   6.211   0.900  0.8960  0.7006 -1.1740
 6645TIP3    H241351   5.956   6.273   0.867  0.3050  0.9964  1.5725
 6646TIP3   OH241352   2.791   2.952   3.047  0.1353  0.1073  0.1751
 6646TIP3    H141353   2.722   2.997   3.096 -1.8909  0.2551 -2.5905
 6646TIP3    H241354   2.857   3.019   3.033 -0.5564  0.8450  0.3329
 6647TIP3   OH241355   2.401   1.320  12.260  0.1696  0.3750  0.0348
 6647TIP3    H141356   2.317   1.282  12.233  0.3007 -1.0730  1.4740
 6647TIP3    H241357   2.414   1.288  12.349  2.1947  0.6631 -0.1065
 6648TIP3   OH241358   4.505   0.895  13.215  0.0890  0.0110  0.6816
 6648TIP3    H141359   4.539   0.984  13.209 -0.2425  0.0745 -0.2947
 6648TIP3    H241360   4.432   0.892  13.154 -0.6290 -0.6109  1.5399
 6649TIP3   OH241361   4.055   4.943  15.223  0.1258 -0.0256 -0.0864
 6649TIP3    H141362   4.107   4.874  15.262  2.3339  0.7851 -1.3829
 6649TIP3    H241363   4.113   5.019  15.222 -1.0853  0.9537 -1.5734
 6650TIP3   OH241364   1.556   2.713   1.219 -0.8917  0.2915  0.0769
 6650TIP3    H141365   1.522   2.801   1.236  0.2700  0.3604  2.3444
 6650TIP3    H241366   1.588   2.717   1.128 -1.8948  1.8425 -0.2391
 6651TIP3   OH241367   0.793   5.301  15.830  0.5078  0.3580  0.3623
 6651TIP3    H141368   0.751   5.233  15.776  0.2734  1.5079 -0.9904
 6651TIP3    H241369   0.877   5.317  15.787  0.2927  1.3395  0.2886
 6652TIP3   OH241370   2.957   1.620  11.427 -0.2258 -0.1304 -1.3364
 6652TIP3    H141371   2.979   1.591  11.515 -3.0783  0.2084 -0.4066
 6652TIP3    H241372   2.891   1.557  11.396  0.3603  0.0364 -3.0496
 6653TIP3   OH241373   6.409   1.034   1.690 -0.2066  0.9769 -0.2597
 6653TIP3    H141374   6.479   1.096   1.709  0.3862  0.6944 -1.4307
 6653TIP3    H241375   6.339   1.057   1.752  0.8849  1.2938  0.9053
 6654TIP3   OH241376   4.234   4.445  13.679  0.3068  0.2112  0.5236
 6654TIP3    H141377   4.329   4.441  13.665  0.0808 -0.2915 -1.1228
 6654TIP3    H241378   4.201   4.496  13.605 -0.8171 -0.6990  0.3554
 6655TIP3   OH241379   2.435   0.278  14.908  0.3356  0.7420 -0.3151
 6655TIP3    H141380   2.339   0.279  14.913  0.3857  0.4342  1.6526
 6655TIP3    H241381   2.461   0.213  14.973  1.8980  1.5784 -0.0635
 6656TIP3   OH241382   5.861   4.433  17.049  0.0058  0.4886 -0.1410
 6656TIP3    H141383   5.872   4.505  17.111 -2.1519 -0.2460  1.1803
 6656TIP3    H241384   5.779   4.453  17.003 -0.9114 -1.3040  0.5970
 6657TIP3   OH241385   3.581   6.367   0.953  0.2221 -0.1256  0.5708
 6657TIP3    H141386   3.557   6.298   0.891  0.8368 -1.0440  1.3266
 6657TIP3    H241387   3.500   6.386   0.999  0.2341 -1.0034  0.9804
 6658TIP3   OH241388   1.646   3.768   2.957  0.3717 -0.0213 -0.0629
 6658TIP3    H141389   1.686   3.729   3.034 -0.4574  0.0975  0.4370
 6658TIP3    H241390   1.554   3.741   2.961  0.5939 -1.1604 -1.7526
 6659TIP3   OH241391   1.847   1.089  15.196 -0.0662  0.3805  0.2789
 6659TIP3    H141392   1.791   1.089  15.118  0.2106 -1.3271  0.0626
 6659TIP3    H241393   1.829   1.006  15.239  0.4788  0.8976  1.5609
 6660TIP3   OH241394   6.045   1.814   1.574  0.1026  0.5282  0.8562
 6660TIP3    H141395   6.139   1.806   1.593  0.5942  2.7990 -0.2686
 6660TIP3    H241396   6.042   1.863   1.491 -2.0806 -0.4361  0.3094
 6661TIP3   OH241397   2.550   3.393  15.227  0.4518 -0.0585  0.2892
 6661TIP3    H141398   2.546   3.460  15.295  0.6307 -0.0586  0.2995
 6661TIP3    H241399   2.533   3.311  15.273 -1.0754  0.1127  0.0657
 6662TIP3   OH241400   2.610   3.132   2.646  0.2387 -0.2079  0.0575
 6662TIP3    H141401   2.692   3.133   2.596  0.6602 -1.4870  0.6569
 6662TIP3    H241402   2.629   3.182   2.725 -0.0428  0.7630 -0.4728
 6663TIP3   OH241403   0.466   4.599  15.937  0.2526 -0.1488  0.5777
 6663TIP3    H141404   0.549   4.568  15.902 -0.9211 -1.5094 -1.1960
 6663TIP3    H241405   0.472   4.695  15.932  0.5893 -0.2508 -2.4456
 6664TIP3   OH241406   2.968   3.808  13.538  0.6449 -0.5280  0.0378
 6664TIP3    H141407   2.917   3.823  13.459  0.2861 -2.1190 -0.0626
 6664TIP3    H241408   3.035   3.876  13.537 -0.4238  0.5521 -0.7042
 6665TIP3   OH241409   0.446   4.868   3.750  0.8507 -0.1147  0.0696
 6665TIP3    H141410   0.406   4.906   3.672 -0.3945  0.1156  0.7990
 6665TIP3    H241411   0.422   4.927   3.821 -0.3713 -1.7239  1.0773
 6666TIP3   OH241412   2.412   0.086   1.441 -0.4514 -0.3029  0.3351
 6666TIP3    H141413   2.354   0.011   1.450 -0.8186  0.0351  0.8116
 6666TIP3    H241414   2.409   0.131   1.525 -1.6343  1.2430 -0.4755
 6667TIP3   OH241415   1.270   3.321   6.528  0.1706 -0.5901 -0.0507
 6667TIP3    H141416   1.320   3.374   6.466 -2.2647  1.2066 -0.6265
 6667TIP3    H241417   1.180   3.354   6.522 -1.3885 -4.1989  0.2384
 6668TIP3   OH241418   0.400   1.427   5.352  0.1144 -0.0307 -0.0184
 6668TIP3    H141419   0.325   1.458   5.302  0.0552  0.3946  0.3259
 6668TIP3    H241420   0.476   1.446   5.296  0.1127  1.0600  0.3145
 6669TIP3   OH241421   3.890   2.426   1.033  0.8183 -0.2929 -0.8743
 6669TIP3    H141422   3.932   2.356   0.984  1.5404 -0.0474 -0.6203
 6669TIP3    H241423   3.956   2.495   1.038  0.0769  0.4533 -1.2218
 6670TIP3   OH241424   3.595   6.320   4.595  0.4125  0.0310  0.5822
 6670TIP3    H141425   3.620   6.281   4.511 -1.0050 -0.5357  0.3891
 6670TIP3    H241426   3.623   6.412   4.588 -2.5248  0.9211 -1.9016
 6671TIP3   OH241427   4.626   1.347   1.350  0.0796 -0.5313 -0.4910
 6671TIP3    H141428   4.613   1.430   1.396 -2.0955 -0.6193 -0.8412
 6671TIP3    H241429   4.683   1.296   1.408  0.2536  0.6636  0.4186
 6672TIP3   OH241430   5.292   1.838   1.295 -0.2412  0.5753 -0.3335
 6672TIP3    H141431   5.319   1.782   1.222 -0.7327  0.8035 -0.6930
 6672TIP3    H241432   5.374   1.878   1.326  0.0335  0.1031 -0.4434
 6673TIP3   OH241433   6.435   5.202  13.847  0.1118 -0.1499 -0.2530
 6673TIP3    H141434   6.357   5.148  13.844 -1.7556  2.3432 -0.2249
 6673TIP3    H241435   6.489   5.164  13.916 -1.9331 -0.8870  1.0219
 6674TIP3   OH241436   0.849   5.068   3.465 -0.3956  0.0138  0.0751
 6674TIP3    H141437   0.790   5.027   3.528 -1.0353 -0.6008 -0.8897
 6674TIP3    H241438   0.798   5.075   3.385  0.5199  0.4222 -0.4961
 6675TIP3   OH241439   1.313   2.797  14.166 -0.2831  0.9838 -0.1297
 6675TIP3    H141440   1.402   2.825  14.189  0.7209 -1.1611 -1.1689
 6675TIP3    H241441   1.321   2.759  14.079 -1.2725 -3.2217  1.4015
 6676TIP3   OH241442   2.451   0.718  17.152 -0.1470 -0.3663 -0.1201
 6676TIP3    H141443   2.417   0.632  17.126 -2.2670 -0.3600  2.2683
 6676TIP3    H241444   2.544   0.701  17.171 -0.2264 -1.8326 -0.8613
 6677TIP3   OH241445   3.047   0.445  10.733 -0.2598  0.2540 -0.0973
 6677TIP3    H141446   3.024   0.369  10.787  0.3845  0.0321 -0.1217
 6677TIP3    H241447   3.026   0.418  10.644 -0.7503  0.3910 -0.0222
 6678TIP3   OH241448   3.863   5.304  11.347 -0.0287  0.0220  0.9354
 6678TIP3    H141449   3.785   5.336  11.301  0.2766  1.0024  1.0878
 6678TIP3    H241450   3.927   5.288  11.277 -0.2923 -0.5825  0.8302
 6679TIP3   OH241451   2.017   1.634   4.569 -0.0885  0.4113 -0.0184
 6679TIP3    H141452   2.060   1.712   4.606  2.3714 -1.3508  1.1782
 6679TIP3    H241453   2.026   1.645   4.474 -0.6234  1.9650  0.0689
 6680TIP3   OH241454   0.148   1.481  16.455  0.3450  0.0031 -0.3473
 6680TIP3    H141455   0.148   1.421  16.529  2.9269 -0.7959 -0.8952
 6680TIP3    H241456   0.215   1.446  16.395  0.0981  1.9789 -1.8990
 6681TIP3   OH241457   5.210   2.762  14.587 -0.3200 -0.5470  0.4025
 6681TIP3    H141458   5.148   2.721  14.527  0.1921 -0.0263 -0.4991
 6681TIP3    H241459   5.295   2.728  14.560 -0.0871 -0.3450  0.8751
 6682TIP3   OH241460   3.730   4.318  12.615 -0.4369  0.4244  0.2472
 6682TIP3    H141461   3.705   4.236  12.657  0.6937 -0.3458 -0.5169
 6682TIP3    H241462   3.660   4.335  12.552  1.7723 -3.1124 -3.8087
 6683TIP3   OH241463   3.032   4.748  15.222 -0.5853  0.0372 -0.2132
 6683TIP3    H141464   3.082   4.742  15.141 -1.1333 -0.5438 -0.5123
 6683TIP3    H241465   2.991   4.662  15.232 -1.6123  0.5259 -0.0381
 6684TIP3   OH241466   3.081   3.206   4.736 -0.1931 -0.0647  0.3116
 6684TIP3    H141467   3.030   3.125   4.739  0.9407 -0.8355 -0.3812
 6684TIP3    H241468   3.088   3.226   4.643  0.4749  0.2154  0.4184
 6685TIP3   OH241469   5.308   5.122   0.572 -0.2720  0.0169 -0.4760
 6685TIP3    H141470   5.216   5.148   0.567 -0.6417 -0.1982  2.9187
 6685TIP3    H241471   5.355   5.192   0.527 -2.0051  0.4252 -1.7834
 6686TIP3   OH241472   5.171   1.708   0.672 -0.2443  0.2718 -0.4010
 6686TIP3    H141473   5.212   1.630   0.709 -0.7956  1.7471  3.8610
 6686TIP3    H241474   5.079   1.684   0.662 -0.2844  0.1598  0.2203
 6687TIP3   OH241475   6.222   1.231   3.107 -0.3706 -0.0442 -0.1229
 6687TIP3    H141476   6.303   1.186   3.083  0.0159 -0.5305  1.8975
 6687TIP3    H241477   6.179   1.250   3.023  1.8605  0.3386 -1.2532
 6688TIP3   OH241478   3.036   3.119  13.303  0.0717  0.4158 -0.2109
 6688TIP3    H141479   3.092   3.193  13.279 -1.3617  2.0471  1.2218
 6688TIP3    H241480   3.020   3.130  13.396 -2.6462  0.0535 -0.5465
 6689TIP3   OH241481   4.335   3.179   1.973 -0.3712  0.1562  0.3698
 6689TIP3    H141482   4.376   3.164   2.058  1.2888 -1.1264 -0.6156
 6689TIP3    H241483   4.395   3.141   1.909 -3.4439 -2.7366 -1.1413
 6690TIP3   OH241484   2.311   5.103   3.881  0.2263 -0.2112  0.5450
 6690TIP3    H141485   2.271   5.033   3.933  0.7938  0.6103  2.1700
 6690TIP3    H241486   2.262   5.181   3.906 -0.9158 -0.0940 -1.8242
 6691TIP3   OH241487   2.314   5.416   1.053  0.1522 -0.0993  0.5463
 6691TIP3    H141488   2.364   5.352   1.103  2.0283  1.2609  0.5066
 6691TIP3    H241489   2.348   5.408   0.964 -1.2767 -0.6406  0.0124
 6692TIP3   OH241490   5.640   6.564  13.871 -0.0766  0.5488 -0.5514
 6692TIP3    H141491   5.673   6.479  13.843 -1.1882 -0.3498  0.7466
 6692TIP3    H241492   5.605   6.603  13.791  2.1320  0.6302 -1.5312
 6693TIP3   OH241493   2.092   1.729  15.612 -0.1000 -0.3433 -0.0276
 6693TIP3    H141494   2.030   1.795  15.642 -0.4770 -0.2742 -0.9174
 6693TIP3    H241495   2.039   1.649  15.604  0.5178 -0.9960  1.8286
 6694TIP3   OH241496   2.935   2.710  16.690  0.1762 -0.2777  0.3570
 6694TIP3    H141497   2.986   2.789  16.709  1.9007 -1.3518  0.4176
 6694TIP3    H241498   2.924   2.668  16.776  1.5593 -1.4113  0.0015
 6695TIP3   OH241499   5.188   2.631  14.834  0.2065  0.4734  0.0975
 6695TIP3    H141500   5.191   2.685  14.755 -0.2752 -0.8660 -0.8726
 6695TIP3    H241501   5.273   2.645  14.876  0.7001  0.7335 -0.9689
 6696TIP3   OH241502   2.303   4.357  16.648 -0.3847  0.2048 -0.1510
 6696TIP3    H141503   2.245   4.343  16.573 -0.5713  1.1697 -0.1971
 6696TIP3    H241504   2.267   4.300  16.717 -1.6519  1.0866 -0.0457
 6697TIP3   OH241505   4.132   4.623  16.713 -0.0131  0.2417 -0.2348
 6697TIP3    H141506   4.177   4.566  16.651 -1.6313 -0.8771 -0.4364
 6697TIP3    H241507   4.059   4.571  16.745  0.2460  1.1290  1.9480
 6698TIP3   OH241508   3.275   2.411  14.320 -0.8232  0.6211 -0.1842
 6698TIP3    H141509   3.222   2.397  14.242  0.0606  0.3422 -0.7445
 6698TIP3    H241510   3.289   2.505  14.324  0.1753  0.5189 -1.0711
 6699TIP3   OH241511   2.869   4.875   5.866  0.0985  0.4425  0.5452
 6699TIP3    H141512   2.919   4.936   5.812 -0.9954  0.2504 -0.7483
 6699TIP3    H241513   2.866   4.794   5.815 -1.9261  0.6136  0.3073
 6700TIP3   OH241514   6.275   5.419  14.821  0.1393 -0.4053  0.1036
 6700TIP3    H141515   6.211   5.468  14.769  0.2634 -1.7819 -1.4487
 6700TIP3    H241516   6.228   5.394  14.900 -0.3371  1.0025  0.2966
 6701TIP3   OH241517   3.772   3.190  16.894  0.0453  0.3142  0.1407
 6701TIP3    H141518   3.820   3.255  16.843 -0.8632  0.3062 -0.7588
 6701TIP3    H241519   3.777   3.110  16.842 -0.3902  0.1470  0.3505
 6702TIP3   OH241520   0.617   3.281   5.078 -0.7401 -0.4820  0.3709
 6702TIP3    H141521   0.534   3.311   5.117 -0.5221 -0.7058  1.0135
 6702TIP3    H241522   0.598   3.193   5.047 -0.2775 -1.2130  2.0745
 6703TIP3   OH241523   2.061   3.294  16.603  0.0856  0.0534 -0.6233
 6703TIP3    H141524   2.105   3.313  16.686 -0.1672 -0.1691 -0.4395
 6703TIP3    H241525   2.089   3.365  16.545 -2.2851  2.1028  0.5744
 6704TIP3   OH241526   4.926   5.236  15.789  0.1233 -0.4043 -0.6714
 6704TIP3    H141527   4.850   5.253  15.733 -0.3489 -0.8972 -0.1917
 6704TIP3    H241528   4.912   5.147  15.822  1.0046 -0.5756 -0.7215
 6705TIP3   OH241529   5.874   0.273   6.113 -0.1961 -0.4594  0.2412
 6705TIP3    H141530   5.902   0.184   6.135 -0.5343 -1.1520 -1.9523
 6705TIP3    H241531   5.955   0.320   6.093 -0.0964 -0.5409  0.4529
 6706TIP3   OH241532   3.082   2.689  11.862  0.7917  0.1871 -0.1911
 6706TIP3    H141533   3.008   2.727  11.909  2.2112  1.2887  1.2567
 6706TIP3    H241534   3.089   2.740  11.781 -0.2202 -0.1595 -0.5082
 6707TIP3   OH241535   3.787   5.972  11.487 -0.6790  0.3019 -0.4941
 6707TIP3    H141536   3.788   5.932  11.574  0.7729  0.6307 -0.3287
 6707TIP3    H241537   3.790   5.898  11.426  1.8999  0.0756 -0.1948
 6708TIP3   OH241538   4.669   5.836   3.924 -0.2348 -0.4039 -0.0750
 6708TIP3    H141539   4.743   5.818   3.866  0.4229  0.6118  0.4274
 6708TIP3    H241540   4.606   5.766   3.905  0.2154 -0.4254 -1.5845
 6709TIP3   OH241541   5.243   3.552  12.800 -0.0196 -0.5360 -0.0953
 6709TIP3    H141542   5.172   3.488  12.806 -1.5379  0.8566 -1.9358
 6709TIP3    H241543   5.258   3.579  12.891 -2.2585 -0.4835  0.3249
 6710TIP3   OH241544   5.614   4.420   4.607  0.6584 -0.1629 -0.0273
 6710TIP3    H141545   5.595   4.335   4.647  1.5369  0.5657  2.1142
 6710TIP3    H241546   5.562   4.421   4.527  2.2585 -3.5951 -1.3203
 6711TIP3   OH241547   0.829   2.281   3.000  0.1785  0.6427 -0.5289
 6711TIP3    H141548   0.861   2.354   3.052 -1.6976  1.6934 -0.7466
 6711TIP3    H241549   0.808   2.319   2.914 -0.0018 -0.3277 -0.9320
 6712TIP3   OH241550   4.965   2.749   3.043 -0.1770 -0.2836 -0.1992
 6712TIP3    H141551   5.030   2.689   3.006  1.3821  0.6203  0.9316
 6712TIP3    H241552   4.912   2.694   3.101  1.0827 -0.6395  0.6564
 6713TIP3   OH241553   4.328   1.279  15.700  0.0541 -0.1085  0.0817
 6713TIP3    H141554   4.344   1.354  15.643 -2.0056 -0.5965 -1.2273
 6713TIP3    H241555   4.395   1.215  15.675  0.8269  0.6589  0.1070
 6714TIP3   OH241556   4.412   4.390  16.064 -0.0215 -0.3134 -0.0788
 6714TIP3    H141557   4.397   4.296  16.067  0.1897 -0.3529 -0.2291
 6714TIP3    H241558   4.334   4.425  16.020  0.1818 -0.4861 -0.5896
 6715TIP3   OH241559   0.291   0.288   4.639  0.3192 -0.6520 -0.1365
 6715TIP3    H141560   0.287   0.381   4.618 -0.5587 -0.7318 -0.3942
 6715TIP3    H241561   0.320   0.246   4.558 -0.2144 -0.6823 -0.3195
 6716TIP3   OH241562   1.397   5.088   1.451 -0.2109 -0.1283 -0.0559
 6716TIP3    H141563   1.416   5.064   1.360 -0.5295  0.0712 -0.1770
 6716TIP3    H241564   1.482   5.114   1.487 -0.2764  1.0126 -0.6700
 6717TIP3   OH241565   5.954   0.512  15.700  0.4573 -0.4847 -0.2344
 6717TIP3    H141566   6.026   0.457  15.730  0.7005 -0.2947 -0.4557
 6717TIP3    H241567   5.979   0.601  15.727  1.3439 -0.0989 -2.1154
 6718TIP3   OH241568   2.932   1.781   5.333  0.4784  0.5647 -0.0700
 6718TIP3    H141569   2.968   1.864   5.304  0.9532  0.4454  0.1725
 6718TIP3    H241570   2.943   1.781   5.428 -0.7250  0.7888  0.0911
 6719TIP3   OH241571   4.334   3.134   0.569 -0.1459  0.1299  0.2398
 6719TIP3    H141572   4.334   3.217   0.521 -0.7532  0.0225  0.0396
 6719TIP3    H241573   4.262   3.143   0.632 -0.1004 -0.1744  0.3360
 6720TIP3   OH241574   3.065   4.596  12.008 -0.2086  0.0609 -0.0116
 6720TIP3    H141575   3.026   4.653  12.075 -0.8734 -2.1479  1.6271
 6720TIP3    H241576   3.067   4.649  11.929  0.1501  2.6591  1.6125
 6721TIP3   OH241577   0.778   2.553   3.117 -0.5887  0.5430  0.0316
 6721TIP3    H141578   0.864   2.530   3.153 -0.6314  0.5297  0.1242
 6721TIP3    H241579   0.722   2.565   3.194 -1.9710 -4.1252  0.0111
 6722TIP3   OH241580   0.777   4.325  17.071 -0.1263  0.3399 -0.4807
 6722TIP3    H141581   0.745   4.243  17.036 -2.4136  0.4847  1.0742
 6722TIP3    H241582   0.806   4.375  16.994  0.3375 -1.4752 -1.5283
 6723TIP3   OH241583   3.752   5.329  11.928  0.1099 -0.4515 -0.3808
 6723TIP3    H141584   3.700   5.367  11.858  1.4008 -0.1895 -1.2289
 6723TIP3    H241585   3.718   5.369  12.008 -2.0968 -1.5475 -0.6959
 6724TIP3   OH241586   0.384   2.614  11.730  0.1130  0.1669  0.3805
 6724TIP3    H141587   0.440   2.612  11.807  1.5406 -3.3816 -0.5726
 6724TIP3    H241588   0.432   2.564  11.663 -2.7803 -0.3351 -1.5196
 6725TIP3   OH241589   3.326   2.292  11.808 -0.4350  0.1619  0.5788
 6725TIP3    H141590   3.395   2.227  11.802 -1.9772 -1.5014 -0.1885
 6725TIP3    H241591   3.256   2.258  11.751 -1.6769  2.0228  0.8921
 6726TIP3   OH241592   4.224   5.454  12.884 -0.4923 -0.0632 -0.0253
 6726TIP3    H141593   4.144   5.430  12.838 -1.0860  0.8589  0.4818
 6726TIP3    H241594   4.293   5.448  12.818 -0.7298 -2.1726 -0.1557
 6727TIP3   OH241595   5.247   4.662   0.383 -0.1248 -0.7776 -0.2951
 6727TIP3    H141596   5.338   4.653   0.412 -0.4578 -0.9239  0.7217
 6727TIP3    H241597   5.196   4.615   0.448 -0.9230 -0.8313 -0.9507
 6728TIP3   OH241598   0.866   6.119   2.131 -0.0901  0.1258  0.5781
 6728TIP3    H141599   0.849   6.055   2.062 -1.9477 -1.1537  2.1401
 6728TIP3    H241600   0.945   6.086   2.174  0.0315 -0.0724  0.2140
 6729TIP3   OH241601   3.532   5.316   1.874  0.3732 -0.2832 -0.1982
 6729TIP3    H141602   3.438   5.335   1.875  0.4937  0.3526 -0.4855
 6729TIP3    H241603   3.547   5.267   1.955  0.0599  0.9495  0.6371
 6730TIP3   OH241604   0.372   0.422  14.487  0.2869  0.4461 -0.9180
 6730TIP3    H141605   0.287   0.386  14.511  0.8823 -1.1854 -1.1653
 6730TIP3    H241606   0.382   0.403  14.394  1.1428  0.1484 -0.7765
 6731TIP3   OH241607   5.156   6.584  16.402 -0.8610 -0.2193  0.1671
 6731TIP3    H141608   5.218   6.516  16.375 -0.0523  0.0067  1.3846
 6731TIP3    H241609   5.093   6.588  16.330  0.0935 -0.9915 -0.7561
 6732TIP3   OH241610   5.523   0.928  14.176 -0.1106  0.5199 -0.0994
 6732TIP3    H141611   5.428   0.922  14.190 -0.0826 -2.6926 -0.6222
 6732TIP3    H241612   5.547   1.012  14.216 -2.6712 -0.0413  3.0716
 6733TIP3   OH241613   5.935   1.034   0.147 -0.2625 -0.0936  0.1437
 6733TIP3    H141614   5.928   1.065   0.237  0.2633  1.7103 -0.4063
 6733TIP3    H241615   5.845   1.017   0.120 -0.8526  3.1694 -0.2347
 6734TIP3   OH241616   4.168   0.532   5.390  0.4357  0.0726  0.5558
 6734TIP3    H141617   4.110   0.599   5.426 -0.1617  0.5640 -1.2406
 6734TIP3    H241618   4.223   0.578   5.327 -1.2105 -1.3351 -2.0946
 6735TIP3   OH241619   1.498   5.103  14.464 -0.1960  0.1445 -0.2682
 6735TIP3    H141620   1.455   5.075  14.383  0.6889  2.9474 -1.8310
 6735TIP3    H241621   1.514   5.021  14.511 -0.1031 -1.7224 -3.2391
 6736TIP3   OH241622   6.212   6.636  14.650  0.1310  0.2405  0.5648
 6736TIP3    H141623   6.222   6.726  14.618  0.5489  0.9202  2.5107
 6736TIP3    H241624   6.124   6.633  14.688  0.0833 -0.2078  0.4268
 6737TIP3   OH241625   1.784   2.977   2.226  0.2471  0.3259  0.1832
 6737TIP3    H141626   1.709   3.032   2.247  0.6490  0.4706  1.3040
 6737TIP3    H241627   1.790   2.916   2.300 -0.2295 -1.2865 -1.0457
 6738TIP3   OH241628   2.895   1.485  10.331  0.2473 -0.6156  0.0710
 6738TIP3    H141629   2.916   1.405  10.378 -1.3818 -1.5675 -0.7387
 6738TIP3    H241630   2.847   1.538  10.395  1.1777 -0.3288  0.5532
 6739TIP3   OH241631   5.178   3.131   5.892 -0.1634  0.9711 -0.5810
 6739TIP3    H141632   5.086   3.156   5.887 -0.5630 -0.0911  0.8734
 6739TIP3    H241633   5.177   3.036   5.880  0.5337  0.7011  1.2788
 6740TIP3   OH241634   0.818   1.089  10.942 -0.1971 -0.1549  0.1689
 6740TIP3    H141635   0.768   1.063  10.865 -0.8978  1.3552  0.0843
 6740TIP3    H241636   0.909   1.087  10.913 -0.3989 -0.3689 -0.4571
 6741TIP3   OH241637   4.468   0.865  12.678  0.3355 -0.0599  0.7240
 6741TIP3    H141638   4.524   0.877  12.602 -0.1574  2.4388  0.6585
 6741TIP3    H241639   4.518   0.902  12.751  0.5801 -1.9405  1.5703
 6742TIP3   OH241640   2.133   3.703  14.679 -0.6196  0.1820 -0.1724
 6742TIP3    H141641   2.092   3.619  14.660  0.6961 -0.2910 -1.0934
 6742TIP3    H241642   2.073   3.768  14.643 -1.1325 -0.4205 -0.4225
 6743TIP3   OH241643   4.082   5.811  12.495 -0.0413 -0.2761 -0.5214
 6743TIP3    H141644   4.035   5.869  12.554  0.3772 -0.0346 -0.4228
 6743TIP3    H241645   4.014   5.754  12.459 -0.3902 -0.0151 -0.2870
 6744TIP3   OH241646   5.958   4.985   0.909 -0.0159  0.3341 -0.3103
 6744TIP3    H141647   5.986   5.044   0.979 -2.0030  2.2676 -1.0360
 6744TIP3    H241648   5.918   4.910   0.955 -0.2954  1.0434  0.6351
 6745TIP3   OH241649   6.015   4.551  11.187 -0.1771  1.0191  0.3582
 6745TIP3    H141650   6.082   4.601  11.234  0.1409 -0.0944  1.1504
 6745TIP3    H241651   6.065   4.484  11.140 -0.7885 -1.2246  2.6749
 6746TIP3   OH241652   6.546   5.703   0.428  0.2066 -0.5409  0.1257
 6746TIP3    H141653   6.595   5.690   0.509  1.7462 -0.6972 -0.7764
 6746TIP3    H241654   6.569   5.627   0.374 -2.0647 -1.2742  0.1114
 6747TIP3   OH241655   5.516   2.987  15.586 -0.2160 -0.3996  0.2902
 6747TIP3    H141656   5.499   2.979  15.492  2.4399 -0.9609 -0.2171
 6747TIP3    H241657   5.447   2.935  15.627 -0.9292 -0.8510 -1.4010
 6748TIP3   OH241658   6.520   3.621   2.253  0.4174  0.5255 -0.4116
 6748TIP3    H141659   6.587   3.642   2.188  0.7047 -0.4423 -0.4410
 6748TIP3    H241660   6.448   3.583   2.202  0.4225  0.2648 -0.2270
 6749TIP3   OH241661   1.593   6.686   3.827 -0.3840  0.4405 -0.2090
 6749TIP3    H141662   1.581   6.781   3.831 -0.1262  0.5188 -1.1356
 6749TIP3    H241663   1.680   6.674   3.791  0.2384 -0.1630  1.3837
 6750TIP3   OH241664   0.371   1.070  14.127 -0.6289  0.2361  0.0146
 6750TIP3    H141665   0.315   1.063  14.050  1.4236 -0.5279 -1.5165
 6750TIP3    H241666   0.371   1.164  14.148 -0.0373  0.7403 -1.9482
 6751TIP3   OH241667   3.590   0.237  16.151  0.4276  0.1480  0.0483
 6751TIP3    H141668   3.506   0.210  16.114  1.1415 -0.5783 -1.1256
 6751TIP3    H241669   3.652   0.172  16.117  1.0336 -1.2024  3.3719
 6752TIP3   OH241670   4.813   0.155   5.521  0.0881 -0.3448  0.0619
 6752TIP3    H141671   4.794   0.162   5.615  1.3298  1.8094  0.2258
 6752TIP3    H241672   4.908   0.161   5.515 -0.0522  1.9632 -1.3905
 6753TIP3   OH241673   1.970   5.601   1.588 -0.3117 -0.2744  0.3326
 6753TIP3    H141674   2.066   5.602   1.584 -0.2274  0.4615  1.9328
 6753TIP3    H241675   1.949   5.631   1.676 -1.9978 -1.9960  0.5795
 6754TIP3   OH241676   0.742   1.838   3.817 -0.2337  0.1741 -0.0491
 6754TIP3    H141677   0.774   1.791   3.740  3.2709  3.1866 -0.7157
 6754TIP3    H241678   0.744   1.930   3.791  0.4944  1.2720  3.4078
 6755TIP3   OH241679   3.447   3.056  13.103 -0.6384 -0.1283 -0.0618
 6755TIP3    H141680   3.529   3.006  13.097 -1.2445 -1.0325 -0.9771
 6755TIP3    H241681   3.389   3.015  13.039 -1.3998  1.3053 -0.3176
 6756TIP3   OH241682   2.412   2.118   2.568  0.5738 -0.1054  0.5326
 6756TIP3    H141683   2.507   2.110   2.561  0.6543 -1.1788  2.1298
 6756TIP3    H241684   2.398   2.168   2.649 -0.2016 -1.8324  1.5193
 6757TIP3   OH241685   5.468   0.416  15.209  0.1326 -0.2262  0.6862
 6757TIP3    H141686   5.443   0.508  15.208 -0.1593 -0.2537 -2.3188
 6757TIP3    H241687   5.384   0.369  15.208  0.2867 -0.5051  0.8660
 6758TIP3   OH241688   2.825   2.605  12.786 -0.6522  0.3233  0.3760
 6758TIP3    H141689   2.852   2.696  12.778  1.2319 -0.3409 -1.8526
 6758TIP3    H241690   2.883   2.569  12.853  1.0891 -0.0015 -1.2164
 6759TIP3   OH241691   4.265   0.538  15.881 -0.3483 -0.3589  0.0321
 6759TIP3    H141692   4.214   0.513  15.804  0.5985  1.0903 -1.1157
 6759TIP3    H241693   4.210   0.513  15.956 -1.8700 -0.5820 -1.1183
 6760TIP3   OH241694   6.500   2.697   4.205 -0.2438 -0.5679 -0.1440
 6760TIP3    H141695   6.537   2.609   4.207 -2.4706 -1.5520  1.7333
 6760TIP3    H241696   6.572   2.754   4.233  1.4407 -1.6266 -2.0765
 6761TIP3   OH241697   4.598   3.079   3.750 -0.1238  0.4677  0.0162
 6761TIP3    H141698   4.656   3.061   3.676 -1.1314 -0.2459 -0.6312
 6761TIP3    H241699   4.644   3.043   3.826  0.5277  0.3985 -0.4025
 6762TIP3   OH241700   0.292   0.373   1.737 -0.0639 -0.5464  0.0488
 6762TIP3    H141701   0.323   0.385   1.827 -0.2131 -1.0171  0.1686
 6762TIP3    H241702   0.371   0.364   1.685  0.0198 -0.4812  0.1641
 6763TIP3   OH241703   1.578   4.542  15.910  0.3055  0.2711  0.3015
 6763TIP3    H141704   1.671   4.564  15.908  0.0297  1.6377  1.2316
 6763TIP3    H241705   1.536   4.616  15.953 -0.9150 -1.3311  2.0813
 6764TIP3   OH241706   2.665   2.444  14.457  0.4779 -0.1428  0.1010
 6764TIP3    H141707   2.754   2.468  14.484  1.1692 -1.6161 -0.7043
 6764TIP3    H241708   2.620   2.423  14.539  1.2033 -0.3984  0.4430
 6765TIP3   OH241709   4.385   6.300   2.311 -0.2931 -0.4272  0.4139
 6765TIP3    H141710   4.397   6.347   2.229 -1.6714  0.3996  0.6562
 6765TIP3    H241711   4.332   6.359   2.365 -1.7579 -2.0887  0.8722
 6766TIP3   OH241712   2.134   3.702  17.254  0.0152  0.2565 -0.9073
 6766TIP3    H141713   2.170   3.733  17.171  0.1895  0.1591 -0.8675
 6766TIP3    H241714   2.098   3.781  17.296  2.0862  0.7538  0.0299
 6767TIP3   OH241715   2.722   4.739   1.876  0.4824 -0.0312 -0.0288
 6767TIP3    H141716   2.638   4.719   1.836 -0.2071  3.1222 -0.4506
 6767TIP3    H241717   2.784   4.740   1.802  0.2876  0.4161 -0.1948
 6768TIP3   OH241718   3.458   3.446  14.660  0.2540  0.2134  0.2984
 6768TIP3    H141719   3.403   3.433  14.582  1.1622  0.8826 -0.4871
 6768TIP3    H241720   3.465   3.359  14.699 -1.1621  0.0733  0.2979
 6769TIP3   OH241721   3.340   1.074  14.505 -0.0831  0.6557 -0.0968
 6769TIP3    H141722   3.363   1.088  14.413  1.8479  0.2612  0.2765
 6769TIP3    H241723   3.342   0.979  14.516  0.7352  0.7316  0.5581
 6770TIP3   OH241724   3.036   2.594  10.638  0.0880  0.0784  0.3191
 6770TIP3    H141725   3.041   2.687  10.662 -2.4827  0.6405 -0.9787
 6770TIP3    H241726   2.958   2.561  10.682  0.1826 -1.1070 -0.3444
 6771TIP3   OH241727   6.067   0.257  11.709  0.1622 -0.5141 -0.0021
 6771TIP3    H141728   6.138   0.192  11.708 -1.7951 -2.8983  1.6699
 6771TIP3    H241729   6.093   0.320  11.776  1.1269 -0.8297 -0.0589
 6772TIP3   OH241730   4.457   1.917   6.161  0.6186  0.5444 -0.0099
 6772TIP3    H141731   4.450   2.013   6.162  0.3497  0.5371 -0.4475
 6772TIP3    H241732   4.550   1.899   6.172  0.6237  0.8436  0.4649
 6773TIP3   OH241733   2.380   1.429  13.851  0.3799  0.3605  0.5554
 6773TIP3    H141734   2.331   1.500  13.810 -0.2211 -1.1156 -1.4344
 6773TIP3    H241735   2.469   1.440  13.818  1.0382  1.8676  2.6101
 6774TIP3   OH241736   0.673   3.663   4.452  1.2172 -0.2150 -0.4642
 6774TIP3    H141737   0.595   3.625   4.410 -0.8280  1.7971  1.2689
 6774TIP3    H241738   0.690   3.606   4.527  1.2747 -0.5233 -0.7095
 6775TIP3   OH241739   4.771   0.958   4.737  0.3962 -0.1301  0.0315
 6775TIP3    H141740   4.825   1.001   4.803 -1.4941  0.4721  1.2661
 6775TIP3    H241741   4.759   1.023   4.668  1.4437 -0.3754 -0.4066
 6776TIP3   OH241742   2.917   2.027  12.130 -0.3774 -0.1234  0.3459
 6776TIP3    H141743   2.933   2.104  12.185  1.0754  0.5960 -0.9739
 6776TIP3    H241744   2.898   2.064  12.043 -0.4763 -1.2478 -0.1212
 6777TIP3   OH241745   2.943   3.536  15.764  0.0525 -0.1169 -0.9297
 6777TIP3    H141746   2.944   3.588  15.683  0.7938  1.9402  0.3325
 6777TIP3    H241747   2.850   3.520  15.781 -0.2447  1.3668 -1.0344
 6778TIP3   OH241748   0.703   4.864  12.531 -0.8245  0.5545  0.2949
 6778TIP3    H141749   0.694   4.774  12.560  2.6347  0.6055  2.0233
 6778TIP3    H241750   0.653   4.915  12.595  0.8820  0.1118  2.0680
 6779TIP3   OH241751   6.141   2.865   6.194 -0.4395  0.0968 -0.0219
 6779TIP3    H141752   6.148   2.831   6.283  1.5315 -1.5117 -0.7126
 6779TIP3    H241753   6.067   2.819   6.155  0.4440 -1.3720 -0.0499
 6780TIP3   OH241754   3.579   4.279  16.971  0.2030 -0.1942  0.2076
 6780TIP3    H141755   3.640   4.213  17.005  0.3609 -1.0011 -1.5079
 6780TIP3    H241756   3.499   4.266  17.022  0.8134 -0.4688  1.1324
 6781TIP3   OH241757   0.607   4.733   0.871 -0.0475 -0.0728 -0.2937
 6781TIP3    H141758   0.554   4.787   0.812 -0.5332  0.7322  0.8526
 6781TIP3    H241759   0.634   4.659   0.817 -1.5703 -0.0364 -1.1607
 6782TIP3   OH241760   3.596   5.626  13.554  0.7138 -0.2119  0.2950
 6782TIP3    H141761   3.664   5.688  13.527  0.3293  1.7658  3.4347
 6782TIP3    H241762   3.528   5.680  13.594 -0.7315 -2.4957  1.1504
 6783TIP3   OH241763   1.691   5.050  16.776 -0.2929 -0.3869  0.0237
 6783TIP3    H141764   1.685   4.997  16.856 -0.7811  0.4380  0.5526
 6783TIP3    H241765   1.749   5.122  16.799  0.3030 -0.6371 -0.6652
 6784TIP3   OH241766   2.360   2.929  12.437  0.0979 -0.3566 -0.2662
 6784TIP3    H141767   2.398   2.935  12.525  1.8751 -0.0503 -1.0069
 6784TIP3    H241768   2.381   2.840  12.407  1.0565  0.1020 -1.0200
 6785TIP3   OH241769   1.280   4.896   2.702  0.0503  0.2090 -0.2364
 6785TIP3    H141770   1.346   4.930   2.763 -1.5008 -0.2613  1.8110
 6785TIP3    H241771   1.258   4.970   2.646  1.0392  0.8391  0.1828
 6786TIP3   OH241772   6.192   5.986   3.337  0.0132 -0.3046 -0.5924
 6786TIP3    H141773   6.109   5.986   3.290 -0.4620  0.6593  0.1937
 6786TIP3    H241774   6.179   5.923   3.408  0.1588 -0.5836 -0.8145
 6787TIP3   OH241775   0.701   0.419  14.943 -0.3191  0.2259  0.6039
 6787TIP3    H141776   0.682   0.512  14.929  0.6318  0.5943  1.6243
 6787TIP3    H241777   0.629   0.374  14.899 -1.5921  1.4686  1.2909
 6788TIP3   OH241778   4.990   2.095  13.985 -0.4329 -0.1495  0.2061
 6788TIP3    H141779   4.897   2.073  13.980 -0.6186  0.1374  1.7178
 6788TIP3    H241780   5.006   2.151  13.909 -1.4616 -0.3072 -0.1456
 6789TIP3   OH241781   3.128   4.032   3.783 -1.0369 -0.0052 -0.8801
 6789TIP3    H141782   3.223   4.021   3.784 -1.1203 -1.0816  1.1936
 6789TIP3    H241783   3.097   3.965   3.723 -0.5371 -0.6253 -0.4678
 6790TIP3   OH241784   1.301   6.511  14.003 -0.6354  0.1377  0.1717
 6790TIP3    H141785   1.237   6.439  14.002 -2.0602  1.2968  1.7100
 6790TIP3    H241786   1.323   6.524  13.911 -1.8649 -0.9613 -0.3192
 6791TIP3   OH241787   2.148   4.069  13.837  0.3160 -0.1970  0.5689
 6791TIP3    H141788   2.225   4.112  13.802 -0.6271  0.3816 -0.9103
 6791TIP3    H241789   2.150   3.981  13.800 -0.4288  0.2607 -0.6084
 6792TIP3   OH241790   4.425   0.706   1.437 -0.3336 -0.1708  0.5188
 6792TIP3    H141791   4.449   0.633   1.494  1.0909 -1.6101 -1.7719
 6792TIP3    H241792   4.361   0.670   1.376 -0.2661  0.7114 -0.0941
 6793TIP3   OH241793   6.618   3.946  15.449 -0.0824  0.1942 -0.4037
 6793TIP3    H141794   6.672   3.892  15.391  0.7045  1.6981 -1.1224
 6793TIP3    H241795   6.553   3.885  15.484 -1.5213 -0.6299 -3.9607
 6794TIP3   OH241796   5.850   3.736  17.094 -0.1388  0.3808 -0.2798
 6794TIP3    H141797   5.780   3.732  17.159 -0.3395  0.8651 -0.4681
 6794TIP3    H241798   5.809   3.771  17.016 -0.2064 -1.3563 -1.0814
 6795TIP3   OH241799   1.008   6.722  13.820  0.0912  0.3989  0.6334
 6795TIP3    H141800   0.961   6.806  13.820 -1.0930 -0.2424  0.1838
 6795TIP3    H241801   1.008   6.694  13.912  0.5610  0.9218  0.7970
 6796TIP3   OH241802   6.231   4.337  12.982 -0.0283 -0.2848  0.3876
 6796TIP3    H141803   6.179   4.414  13.002 -1.1901 -1.2001  1.0265
 6796TIP3    H241804   6.241   4.292  13.066  1.0256 -0.6031  0.1143
 6797TIP3   OH241805   2.538   6.207  13.810  0.3488  0.2371 -0.2205
 6797TIP3    H141806   2.604   6.149  13.848  1.0962 -0.1235 -1.9663
 6797TIP3    H241807   2.550   6.199  13.716  0.7686  3.5641 -0.5654
 6798TIP3   OH241808   1.397   6.692  12.604 -0.2398  0.2074 -0.0773
 6798TIP3    H141809   1.480   6.723  12.570  1.4083 -1.7475  1.8411
 6798TIP3    H241810   1.376   6.615  12.551  2.2953 -2.8000  2.8357
 6799TIP3   OH241811   4.878   1.170  12.866 -0.2338 -0.2451  0.4653
 6799TIP3    H141812   4.851   1.136  12.780  0.4172  0.3714  0.0080
 6799TIP3    H241813   4.834   1.255  12.873 -2.1613 -1.2637  1.7702
 6800TIP3   OH241814   3.543   4.449  16.419 -0.6672  0.4977 -0.0785
 6800TIP3    H141815   3.473   4.402  16.464  0.0455 -1.0994 -0.5400
 6800TIP3    H241816   3.512   4.459  16.329  0.7731 -2.9788 -1.1550
 6801TIP3   OH241817   5.361   4.033  12.404  0.2258  0.4243  0.2809
 6801TIP3    H141818   5.406   3.975  12.466  0.0214 -0.2130 -0.1596
 6801TIP3    H241819   5.333   3.975  12.333 -1.4229  0.7810  0.5993
 6802TIP3   OH241820   5.815   0.130  13.550  0.0063  0.1777 -0.1763
 6802TIP3    H141821   5.803   0.147  13.456 -0.3906  0.3972 -0.0904
 6802TIP3    H241822   5.764   0.199  13.593  0.1840  0.0738  0.2011
 6803TIP3   OH241823   1.089   0.537   3.046  0.3722  0.4530  0.2904
 6803TIP3    H141824   1.087   0.472   2.976  1.1888  1.4378 -0.6705
 6803TIP3    H241825   1.003   0.529   3.088  0.4864 -1.2959  0.2812
 6804TIP3   OH241826   3.629   6.498   3.403 -0.3969  0.1000 -0.5643
 6804TIP3    H141827   3.659   6.407   3.404  0.1996  0.2964  0.5816
 6804TIP3    H241828   3.701   6.546   3.363 -0.8614  0.0476 -1.5148
 6805TIP3   OH241829   3.564   4.142  12.305  0.1248 -0.6882  1.0095
 6805TIP3    H141830   3.576   4.092  12.386 -1.7324  0.3208  1.9803
 6805TIP3    H241831   3.543   4.076  12.239 -0.6383 -1.3513  1.8849
 6806TIP3   OH241832   4.321   6.030  15.327 -0.7900  0.2103 -0.3524
 6806TIP3    H141833   4.397   6.060  15.277 -1.1896  0.1285 -1.0199
 6806TIP3    H241834   4.325   5.935  15.321 -0.1316  0.1448  0.8517
 6807TIP3   OH241835   4.605   5.925  11.604 -0.6466 -0.1418 -0.1985
 6807TIP3    H141836   4.692   5.916  11.564 -0.5002  0.9556 -0.1567
 6807TIP3    H241837   4.557   5.847  11.575  0.4415 -0.9226  0.0321
 6808TIP3   OH241838   0.923   6.059   5.757 -0.1192  0.3742 -0.4442
 6808TIP3    H141839   0.848   6.098   5.713 -0.2333  1.1705  0.4221
 6808TIP3    H241840   0.996   6.118   5.738  0.0317  0.2249 -0.3352
 6809TIP3   OH241841   2.340   5.497  13.800  0.3123  0.2249 -0.1441
 6809TIP3    H141842   2.372   5.424  13.854 -1.9592  0.2363  1.3893
 6809TIP3    H241843   2.405   5.507  13.731  3.0001 -0.3534  2.1235
 6810TIP3   OH241844   5.698   0.594   0.393  0.3939 -0.0064 -0.1347
 6810TIP3    H141845   5.705   0.517   0.336 -0.3633 -0.4347  0.3364
 6810TIP3    H241846   5.683   0.667   0.333 -3.4878 -0.8606 -0.4164
 6811TIP3   OH241847   1.546   3.990   0.984 -0.1543  0.6532 -0.1200
 6811TIP3    H141848   1.568   4.081   0.964 -1.0688  1.2750  1.4961
 6811TIP3    H241849   1.517   3.953   0.901 -0.7776  2.1517 -0.6038
 6812TIP3   OH241850   3.744   5.508   4.434  0.2894  0.0564  0.0660
 6812TIP3    H141851   3.712   5.592   4.468  0.0873  0.3267 -0.7756
 6812TIP3    H241852   3.697   5.496   4.351  0.3175 -0.8908  0.1816
 6813TIP3   OH241853   0.020   5.903   5.613  0.0417 -0.2240 -0.4011
 6813TIP3    H141854  -0.043   5.835   5.590 -0.3506  0.0222 -0.0577
 6813TIP3    H241855   0.044   5.943   5.530 -1.5861  0.8558 -0.3903
 6814TIP3   OH241856   1.943   1.684  14.321 -0.0510  0.1421  0.6627
 6814TIP3    H141857   1.902   1.618  14.266 -0.0944 -0.7532  1.7339
 6814TIP3    H241858   1.931   1.652  14.410  0.6056  1.2162  1.1619
 6815TIP3   OH241859   1.954   4.420  11.768  0.1008  0.0662 -0.0817
 6815TIP3    H141860   1.895   4.346  11.784  0.9204 -0.7359 -0.6682
 6815TIP3    H241861   2.010   4.391  11.696  0.9593  0.9621  0.2025
 6816TIP3   OH241862   0.108   0.348  15.896  0.0933 -0.5030 -0.0018
 6816TIP3    H141863   0.076   0.299  15.820 -0.5243  0.4724 -0.3793
 6816TIP3    H241864   0.032   0.356  15.953  0.1789  0.0650  0.0305
 6817TIP3   OH241865   3.467   4.474   0.743  0.3068  0.0165  0.9019
 6817TIP3    H141866   3.376   4.450   0.729  0.0426  1.0115  0.8987
 6817TIP3    H241867   3.514   4.390   0.742 -0.6984 -0.5731  1.7098
 6818TIP3   OH241868   6.666   0.831  14.335  0.0938  0.2967  0.1570
 6818TIP3    H141869   6.694   0.903  14.392  0.5077  0.7269 -0.5549
 6818TIP3    H241870   6.747   0.784  14.315  0.1742  0.9130 -1.0717
 6819TIP3   OH241871   4.158   5.725   0.082  0.3588 -0.6401 -0.2453
 6819TIP3    H141872   4.173   5.672   0.160  1.0414 -0.1627 -0.0429
 6819TIP3    H241873   4.230   5.703   0.023  1.4891  1.0895  0.4156
 6820TIP3   OH241874   6.169   5.712  17.224 -0.5578  0.4685  0.0369
 6820TIP3    H141875   6.149   5.723  17.317 -1.3404 -1.1380  0.1021
 6820TIP3    H241876   6.088   5.738  17.179 -0.5031  0.3649 -0.1229
 6821TIP3   OH241877   1.651   4.077  13.605  0.3675  0.3242 -0.2365
 6821TIP3    H141878   1.559   4.060  13.583 -0.2712  3.6998 -0.8414
 6821TIP3    H241879   1.654   4.073  13.700 -0.7845  1.5019 -0.1196
 6822TIP3   OH241880   6.076   1.521   5.293  0.3166  0.0595 -0.0273
 6822TIP3    H141881   6.083   1.588   5.361  1.7768  0.7541 -0.8013
 6822TIP3    H241882   6.130   1.555   5.221 -0.2554 -1.1838 -1.0844
 6823TIP3   OH241883   6.270   3.575   4.661 -0.1830 -0.3503 -0.0662
 6823TIP3    H141884   6.307   3.663   4.657  1.5516 -0.9594  1.3248
 6823TIP3    H241885   6.195   3.577   4.601 -1.0986  2.4792  1.0344
 6824TIP3   OH241886   1.461   3.899   0.642 -0.0095 -0.1049 -0.5584
 6824TIP3    H141887   1.474   3.840   0.716 -0.3281  1.2678  0.6462
 6824TIP3    H241888   1.438   3.842   0.569 -0.7991 -1.4163  0.6728
 6825TIP3   OH241889   2.669   0.052   0.472 -0.0664  0.2332  0.3241
 6825TIP3    H141890   2.742  -0.002   0.502 -0.0002  0.2087  0.1204
 6825TIP3    H241891   2.638   0.009   0.392 -0.5806  0.0030  0.6441
 6826TIP3   OH241892   6.622   2.386   5.122  0.0274  0.2303 -0.4645
 6826TIP3    H141893   6.636   2.360   5.031  2.2648  0.7385 -0.3074
 6826TIP3    H241894   6.595   2.305   5.167  2.9127 -1.0099 -0.7903
 6827TIP3   OH241895   1.221   2.854   5.330  0.2352  0.1323  0.5536
 6827TIP3    H141896   1.227   2.758   5.320  1.5311  0.2818 -0.3877
 6827TIP3    H241897   1.127   2.871   5.331 -0.0608 -1.0106 -1.1598
 6828TIP3   OH241898   3.633   1.649   4.447 -0.0149 -0.4280 -0.8641
 6828TIP3    H141899   3.657   1.686   4.362 -2.6501 -2.4133 -2.6422
 6828TIP3    H241900   3.663   1.558   4.442 -1.5351 -0.9897 -0.3265
 6829TIP3   OH241901   3.204   4.319   2.546  0.1860 -0.6967  0.2500
 6829TIP3    H141902   3.216   4.321   2.641 -1.7793  0.0685  0.5374
 6829TIP3    H241903   3.138   4.252   2.532  0.3639 -0.7049 -0.5725
 6830TIP3   OH241904   3.603   0.373   6.352  0.2880  0.4432  0.0970
 6830TIP3    H141905   3.546   0.300   6.326 -0.5620  1.7421 -1.9705
 6830TIP3    H241906   3.690   0.346   6.324  0.2170 -0.3467  0.6044
 6831TIP3   OH241907   4.292   0.397  11.124  0.1321 -0.2541 -0.2887
 6831TIP3    H141908   4.283   0.383  11.030  1.5579 -1.1869 -0.3097
 6831TIP3    H241909   4.288   0.492  11.134 -1.9002 -0.2039 -1.0451
 6832TIP3   OH241910   5.895   6.481  16.221  0.7407 -0.2469 -0.2116
 6832TIP3    H141911   5.966   6.426  16.254 -0.1120 -0.6031  1.1459
 6832TIP3    H241912   5.932   6.569  16.217  1.6856 -0.6659 -0.9661
 6833TIP3   OH241913   2.615   0.135   1.260 -0.0175  0.3926  0.0896
 6833TIP3    H141914   2.538   0.122   1.315 -0.6060  1.2620 -0.4999
 6833TIP3    H241915   2.678   0.070   1.290 -0.6990  0.1896  1.1033
 6834TIP3   OH241916   2.452   3.253  12.962 -0.4609 -0.2795 -0.2727
 6834TIP3    H141917   2.520   3.308  12.999 -0.3599 -0.5770 -0.0089
 6834TIP3    H241918   2.372   3.305  12.969 -0.4701 -0.3888  0.5057
 6835TIP3   OH241919   6.514   4.891   0.492 -0.1154 -0.0754  0.0309
 6835TIP3    H141920   6.430   4.864   0.531  0.0789  0.5779  0.9606
 6835TIP3    H241921   6.508   4.987   0.487  0.3818 -0.0613 -0.3669
 6836TIP3   OH241922   3.481   0.475   0.111  0.0183 -0.4268  0.1026
 6836TIP3    H141923   3.477   0.392   0.063  0.9694  0.7348 -2.1626
 6836TIP3    H241924   3.573   0.483   0.136 -0.4711 -1.0487  2.3619
 6837TIP3   OH241925   3.889   6.398  12.791 -0.1423 -0.2326  0.3309
 6837TIP3    H141926   3.882   6.306  12.769  0.3312 -0.4607  1.0962
 6837TIP3    H241927   3.873   6.444  12.709  0.5290 -1.0152 -0.2542
 6838TIP3   OH241928   1.971   0.583  11.403  0.1532 -0.1214 -0.5558
 6838TIP3    H141929   1.968   0.679  11.397  2.9934  0.1319  0.4849
 6838TIP3    H241930   1.956   0.564  11.495  2.4723 -0.3956 -0.1847
 6839TIP3   OH241931   0.277   2.827  10.611  0.0986 -0.3588 -0.0898
 6839TIP3    H141932   0.195   2.826  10.661  0.9078  0.2878  1.2864
 6839TIP3    H241933   0.339   2.779  10.666  0.1487 -2.7803 -2.0833
 6840TIP3   OH241934   6.098   3.432  13.926 -0.2173  0.3182 -0.1346
 6840TIP3    H141935   6.099   3.428  14.021  2.1799  1.1633 -0.0589
 6840TIP3    H241936   6.131   3.346  13.898 -0.8284  0.1047 -0.2110
 6841TIP3   OH241937   1.081   6.511  15.794  0.4286  0.4211 -0.4480
 6841TIP3    H141938   1.119   6.496  15.881  0.1360  2.5608  0.0949
 6841TIP3    H241939   1.124   6.446  15.738  1.5049 -0.2188  1.0542
 6842TIP3   OH241940   5.737   0.992   4.378  0.1183  0.0362  0.2590
 6842TIP3    H141941   5.791   0.984   4.457  2.1135  3.2962 -0.5968
 6842TIP3    H241942   5.683   1.070   4.394 -1.3313 -0.7526 -0.6072
 6843TIP3   OH241943   4.023   0.744  14.027  0.7399  0.6225  0.0186
 6843TIP3    H141944   3.930   0.727  14.018  0.6575  1.0039  0.1111
 6843TIP3    H241945   4.042   0.730  14.120  1.0276 -0.6343 -0.2172
 6844TIP3   OH241946   1.984   5.088   3.113 -0.1205 -0.4039  0.2034
 6844TIP3    H141947   1.946   5.005   3.084  0.8320 -1.6747  2.3137
 6844TIP3    H241948   2.079   5.075   3.101 -0.0068  0.7721 -0.3067
 6845TIP3   OH241949   5.905   2.646   3.141 -0.0488  0.0707 -0.3279
 6845TIP3    H141950   5.818   2.668   3.173 -0.2755 -0.4988 -0.5444
 6845TIP3    H241951   5.956   2.726   3.154 -0.2321 -0.0222  1.0572
 6846TIP3   OH241952   2.559   0.968  15.590  0.0576  0.3234 -0.0056
 6846TIP3    H141953   2.650   0.981  15.615 -0.1660  2.2635 -0.0842
 6846TIP3    H241954   2.560   0.964  15.494  0.1888 -0.9819  0.0323
 6847TIP3   OH241955   2.818   3.030   5.765  0.0016  0.5838  0.0978
 6847TIP3    H141956   2.884   2.962   5.771  2.0219  2.3915 -0.3668
 6847TIP3    H241957   2.793   3.031   5.672 -1.8178 -1.0109  0.4929
 6848TIP3   OH241958   5.222   5.550  17.003 -0.2778 -0.0242 -0.3168
 6848TIP3    H141959   5.149   5.513  16.954  1.0286 -2.5581 -0.5134
 6848TIP3    H241960   5.198   5.538  17.095 -0.5820  0.1745 -0.3693
 6849TIP3   OH241961   5.584   5.405   5.460 -0.2784  0.0007  0.9480
 6849TIP3    H141962   5.507   5.462   5.457  0.3725  0.8876  0.0247
 6849TIP3    H241963   5.643   5.447   5.523  0.0395  0.1418  0.5639
 6850TIP3   OH241964   0.923   2.386   4.377 -0.4192  0.0737 -0.1961
 6850TIP3    H141965   0.951   2.440   4.303 -1.1775  0.5153 -0.1645
 6850TIP3    H241966   0.953   2.433   4.455  0.3567 -0.3786 -0.2099
 6851TIP3   OH241967   4.604   6.507   0.503  0.6626 -0.8619 -0.3561
 6851TIP3    H141968   4.556   6.582   0.467  1.5339  0.8189  1.7904
 6851TIP3    H241969   4.541   6.463   0.559  0.9019 -0.0720  0.5602
 6852TIP3   OH241970   4.571   4.702   6.242 -0.2870  0.1605 -0.1728
 6852TIP3    H141971   4.634   4.751   6.295 -0.1875  0.9951 -1.0254
 6852TIP3    H241972   4.498   4.762   6.230 -2.0092 -1.3419  2.1074
 6853TIP3   OH241973   3.289   4.441  15.730 -0.2767 -0.0087  0.0926
 6853TIP3    H141974   3.228   4.369  15.713 -0.9220  0.1724  1.4877
 6853TIP3    H241975   3.250   4.488  15.804  1.3648  0.3267  0.7837
 6854TIP3   OH241976   0.383   1.930  10.715 -0.7169  0.5494  0.1416
 6854TIP3    H141977   0.340   1.845  10.720 -0.3891  0.4526  1.4359
 6854TIP3    H241978   0.379   1.953  10.622 -2.3940 -0.0597  0.0267
 6855TIP3   OH241979   1.155   2.712  16.128 -0.2223  0.8872  1.0822
 6855TIP3    H141980   1.121   2.764  16.054  0.8082  0.0665 -0.0069
 6855TIP3    H241981   1.089   2.722  16.196 -1.4382  1.3034 -0.1058
 6856TIP3   OH241982   3.442   4.205  11.558 -0.0824 -0.0347  0.1010
 6856TIP3    H141983   3.515   4.247  11.512  1.3298  0.7837  2.8818
 6856TIP3    H241984   3.376   4.273  11.565 -0.6611 -0.4077 -1.3264
 6857TIP3   OH241985   1.598   1.181   1.655  0.2193  0.0846  0.1006
 6857TIP3    H141986   1.524   1.205   1.710  1.1202  0.2411  1.2867
 6857TIP3    H241987   1.658   1.255   1.661  1.0853 -0.6072  0.2953
 6858TIP3   OH241988   2.571   1.659  10.338 -0.2906 -0.0139 -0.1264
 6858TIP3    H141989   2.577   1.641  10.244 -1.1663 -1.5993  0.0871
 6858TIP3    H241990   2.657   1.695  10.361  0.0344  0.1258 -1.4694
 6859TIP3   OH241991   2.048   0.681   1.516  0.2295 -0.4988  0.4774
 6859TIP3    H141992   2.016   0.720   1.435  0.4557 -0.2571  0.5023
 6859TIP3    H241993   2.062   0.588   1.495 -1.5017 -0.8619  0.7614
 6860TIP3   OH241994   2.891   5.271  14.026  0.1144  0.1583  0.1183
 6860TIP3    H141995   2.932   5.343  14.075 -0.0658  0.5408 -0.2806
 6860TIP3    H241996   2.933   5.192  14.060  2.9905  0.6403 -1.9013
 6861TIP3   OH241997   5.378   0.792  17.137  0.1839  0.0607  0.1874
 6861TIP3    H141998   5.425   0.812  17.056 -1.9173 -0.5168 -1.2516
 6861TIP3    H241999   5.289   0.823  17.121 -0.0891  0.7386  2.6472
 6862TIP3   OH242000   3.497   4.389   2.912  0.4847 -0.4852 -0.6990
 6862TIP3    H142001   3.590   4.391   2.936  0.8652 -0.6742 -2.0879
 6862TIP3    H242002   3.492   4.433   2.827 -0.4471 -1.8519 -1.3936
 6863TIP3   OH242003   1.634   1.387   0.276 -0.2997  0.0583 -0.2307
 6863TIP3    H142004   1.585   1.445   0.218  0.1031 -1.0318 -1.7148
 6863TIP3    H242005   1.720   1.379   0.235  0.9125  1.2595  1.8694
 6864TIP3   OH242006   3.065   0.563   4.128 -0.4080 -0.2461 -0.5319
 6864TIP3    H142007   2.982   0.612   4.129 -0.7216 -0.7553 -1.0646
 6864TIP3    H242008   3.076   0.534   4.218  0.4188  1.8338  0.0930
 6865TIP3   OH242009   6.222   4.351   4.845 -0.0693 -0.0303  0.0949
 6865TIP3    H142010   6.152   4.411   4.820  0.0977  1.6016  3.1254
 6865TIP3    H242011   6.180   4.265   4.848 -1.1705  0.4350 -1.0033
 6866TIP3   OH242012   1.392   3.145  15.009 -0.0729 -0.4937 -0.1903
 6866TIP3    H142013   1.481   3.112  15.023 -0.6407 -1.7254  0.6638
 6866TIP3    H242014   1.356   3.154  15.098 -1.4144 -1.7989 -0.5618
 6867TIP3   OH242015   0.983   1.686  17.104  0.3681  0.3412  0.1128
 6867TIP3    H142016   0.961   1.779  17.108  1.0557  0.5088  0.1867
 6867TIP3    H242017   1.067   1.684  17.059 -0.5357 -0.4103 -1.6334
 6868TIP3   OH242018   0.508   1.731   1.165  0.3043  0.3415  0.1344
 6868TIP3    H142019   0.466   1.675   1.100  0.6145  0.2452  0.0157
 6868TIP3    H242020   0.552   1.798   1.113 -0.6947  1.1539  0.2928
 6869TIP3   OH242021   0.390   5.807  16.992 -0.7109 -0.6027 -0.4999
 6869TIP3    H142022   0.349   5.884  16.953  1.9833  1.1579 -0.0975
 6869TIP3    H242023   0.376   5.737  16.928 -1.9361  0.5719 -1.5640
 6870TIP3   OH242024   4.284   1.548  14.627 -0.0982  0.4845  0.2106
 6870TIP3    H142025   4.278   1.453  14.615  0.7475  0.4757 -0.2565
 6870TIP3    H242026   4.194   1.578  14.633 -0.4675 -0.1395 -1.5075
 6871TIP3   OH242027   2.451   2.108   5.462  0.4550 -0.4851 -0.5486
 6871TIP3    H142028   2.433   2.094   5.555 -0.0020  1.7550 -0.2352
 6871TIP3    H242029   2.473   2.021   5.428 -2.1272 -1.8727  1.0246
 6872TIP3   OH242030   3.923   1.404  12.996 -0.0314 -0.3928 -0.1457
 6872TIP3    H142031   3.946   1.351  13.073  0.9220 -0.3503 -0.3901
 6872TIP3    H242032   3.881   1.343  12.936  0.1176 -0.6391  0.0008
 6873TIP3   OH242033   1.123   5.797   1.720  0.2323 -0.1650  0.2164
 6873TIP3    H142034   1.079   5.767   1.800 -0.0426 -0.4665 -0.0417
 6873TIP3    H242035   1.203   5.746   1.716  1.4337  1.5096  1.5311
 6874TIP3   OH242036   5.524   0.501   0.761 -0.2371 -0.0481 -0.0943
 6874TIP3    H142037   5.599   0.536   0.811 -1.5182  1.8944  0.5881
 6874TIP3    H242038   5.501   0.572   0.701 -0.1875 -1.4806 -1.8713
 6875TIP3   OH242039   3.492   2.076  14.586 -0.3836 -0.1328  0.2918
 6875TIP3    H142040   3.518   2.165  14.561 -2.1516  1.0570  2.2901
 6875TIP3    H242041   3.413   2.059  14.535 -1.0723  0.2192  1.2093
 6876TIP3   OH242042   5.735   3.614   5.840 -0.2188 -0.1063  0.7653
 6876TIP3    H142043   5.660   3.641   5.787  0.5767  0.7177  0.0405
 6876TIP3    H242044   5.760   3.692   5.888  1.8370  0.4503 -1.0301
 6877TIP3   OH242045   1.871   2.581  16.420  0.2952 -0.1492  0.0727
 6877TIP3    H142046   1.945   2.600  16.478 -1.0380 -1.5674  2.3607
 6877TIP3    H242047   1.828   2.505  16.459 -1.7538 -0.0553 -1.7920
 6878TIP3   OH242048   1.541   6.024  14.989 -0.2276  0.1213 -0.0029
 6878TIP3    H142049   1.469   6.042  14.928  0.0330  0.2547 -0.2777
 6878TIP3    H242050   1.573   6.111  15.014 -1.3213  0.1238  1.5420
 6879TIP3   OH242051   5.067   6.626   2.848  0.3232  0.3530  0.2646
 6879TIP3    H142052   5.161   6.617   2.837  0.3120  1.3417 -0.8910
 6879TIP3    H242053   5.031   6.606   2.761 -0.8344 -3.0367  1.3405
 6880TIP3   OH242054   0.552   1.478   6.549 -0.2099 -0.4655 -0.0587
 6880TIP3    H142055   0.607   1.453   6.474 -0.5938  0.5014 -0.6701
 6880TIP3    H242056   0.611   1.526   6.607 -0.3264  0.2820 -0.5570
 6881TIP3   OH242057   4.271   0.340   4.819 -0.4893  0.2047 -0.4200
 6881TIP3    H142058   4.195   0.294   4.786 -0.3803  0.2583 -0.7426
 6881TIP3    H242059   4.341   0.276   4.818 -0.4252  0.2763 -0.5310
 6882TIP3   OH242060   0.939   6.381  13.491  0.1587 -0.2719 -0.0775
 6882TIP3    H142061   0.905   6.398  13.403  0.8889 -0.1441 -0.3418
 6882TIP3    H242062   0.863   6.353  13.541 -0.3446  0.0738 -0.6385
 6883TIP3   OH242063   1.602   0.925  16.657  0.0666 -0.5735  0.1968
 6883TIP3    H142064   1.607   1.021  16.662 -0.6599 -0.3952 -1.6223
 6883TIP3    H242065   1.673   0.894  16.714  0.1964  1.0265  0.9697
 6884TIP3   OH242066   0.003   0.885   4.716  0.0737  0.0469  0.3091
 6884TIP3    H142067   0.024   0.801   4.674  1.4255  0.5071  0.0259
 6884TIP3    H242068  -0.052   0.861   4.790  0.3662 -1.0873  0.1863
 6885TIP3   OH242069   5.886   3.062   6.274  0.1004 -0.7332  0.2094
 6885TIP3    H142070   5.843   3.125   6.333 -0.7391 -0.0717 -1.0393
 6885TIP3    H242071   5.883   2.979   6.321 -0.9329 -0.3162  0.9276
 6886TIP3   OH242072   0.728   6.165  15.243 -0.4571  0.2224  0.6032
 6886TIP3    H142073   0.731   6.260  15.259  2.3443  0.0556  1.5140
 6886TIP3    H242074   0.793   6.150  15.175 -1.8482 -0.9338 -0.5374
 6887TIP3   OH242075   6.643   4.833  16.756  0.7334  0.0967  0.6959
 6887TIP3    H142076   6.629   4.897  16.826  0.7695  0.6512  0.2020
 6887TIP3    H242077   6.589   4.758  16.782 -3.1934  2.0218 -0.9744
 6888TIP3   OH242078   3.415   1.980   4.340  0.1697  0.2576  0.1281
 6888TIP3    H142079   3.455   1.963   4.426  0.6042 -1.1911 -0.3451
 6888TIP3    H242080   3.460   2.059   4.308  2.2668 -0.9770 -0.1252
 6889TIP3   OH242081   5.239   5.204   2.571  0.6837 -0.5993 -0.7252
 6889TIP3    H142082   5.205   5.178   2.485  0.0017 -0.7975 -0.3961
 6889TIP3    H242083   5.209   5.294   2.582 -0.8928 -1.1915  0.1319
 6890TIP3   OH242084   5.664   2.122   5.858 -0.0133 -0.3614 -0.0813
 6890TIP3    H142085   5.743   2.138   5.909 -0.4094 -0.8192  0.6956
 6890TIP3    H242086   5.596   2.105   5.923 -1.4360  2.7559 -0.5563
 6891TIP3   OH242087   0.692   0.893   1.922 -0.0779 -0.2164  0.3097
 6891TIP3    H142088   0.757   0.854   1.980 -0.2580 -1.5442 -0.3528
 6891TIP3    H242089   0.700   0.987   1.938  2.2023 -0.2927  0.0514
 6892TIP3   OH242090   5.500   1.162  11.843  0.0488  0.6180  0.3434
 6892TIP3    H142091   5.587   1.186  11.876  1.5591 -2.5253 -0.8307
 6892TIP3    H242092   5.510   1.069  11.819 -4.1203 -0.3474  1.6457
 6893TIP3   OH242093   0.699   6.190   5.640  0.4893  0.1998  0.0687
 6893TIP3    H142094   0.674   6.195   5.732  0.2484  1.6842 -0.0531
 6893TIP3    H242095   0.627   6.232   5.593  1.2179  0.6578 -0.6699
 6894TIP3   OH242096   6.537   2.459   3.507 -0.1468 -0.4954 -0.0481
 6894TIP3    H142097   6.567   2.368   3.514  1.8341  0.1273  0.3479
 6894TIP3    H242098   6.543   2.479   3.414  1.2273 -0.2416  0.0744
 6895TIP3   OH242099   3.562   1.802  10.125 -0.4064 -0.1890  0.2389
 6895TIP3    H142100   3.506   1.834  10.054  0.8189  1.6151  0.0013
 6895TIP3    H242101   3.588   1.882  10.172 -0.9001 -1.2922  2.5432
 6896TIP3   OH242102   0.316   1.636   0.569 -0.5324 -0.2176  0.5267
 6896TIP3    H142103   0.250   1.609   0.632  0.0619 -1.3656  0.6955
 6896TIP3    H242104   0.320   1.564   0.506 -3.2023  2.0689 -2.6357
 6897TIP3   OH242105   2.194   4.247   4.437  0.8002  0.0027 -0.0926
 6897TIP3    H142106   2.128   4.221   4.501  0.4655  0.5949 -0.1903
 6897TIP3    H242107   2.146   4.257   4.355  0.5949  2.3632  0.2355
 6898TIP3   OH242108   5.390   5.651   1.724  0.2426 -0.1098  0.5793
 6898TIP3    H142109   5.381   5.705   1.802 -1.3171 -0.8596  0.9501
 6898TIP3    H242110   5.309   5.665   1.675  1.1403  0.2534 -0.8751
 6899TIP3   OH242111   3.693   2.009  14.215  0.2245 -0.0543 -0.5900
 6899TIP3    H142112   3.760   1.961  14.263 -0.4828 -0.3332  0.1430
 6899TIP3    H242113   3.720   2.101  14.220  0.8819 -0.2291 -0.8525
 6900TIP3   OH242114   5.342   6.396  16.294  0.3367 -0.7928  0.1312
 6900TIP3    H142115   5.342   6.327  16.229  0.7208 -0.4548 -0.2336
 6900TIP3    H242116   5.425   6.443  16.280  1.2587 -1.7512  1.9635
 6901TIP3   OH242117   6.245   5.401   1.750  0.0687  0.0149  0.0165
 6901TIP3    H142118   6.335   5.431   1.741 -0.2751  1.1573  0.3114
 6901TIP3    H242119   6.248   5.338   1.822  0.6894 -0.2574 -0.2396
 6902TIP3   OH242120   4.439   6.374   4.149  0.2999 -0.2530 -0.5660
 6902TIP3    H142121   4.519   6.320   4.151  0.7331  0.3756 -0.6452
 6902TIP3    H242122   4.431   6.407   4.238 -0.3062 -0.9268 -0.3625
 6903TIP3   OH242123   0.575   3.982   3.722 -0.0945  0.9045 -0.3268
 6903TIP3    H142124   0.498   4.034   3.697 -0.2646  0.0661 -1.6519
 6903TIP3    H242125   0.544   3.923   3.790 -0.0394  2.1017  0.7838
 6904TIP3   OH242126   3.828   1.892  13.440  0.3954 -0.2574 -0.6405
 6904TIP3    H142127   3.821   1.979  13.400  0.2693 -0.9556 -2.1941
 6904TIP3    H242128   3.858   1.909  13.529 -0.9327  1.4680 -0.4654
 6905TIP3   OH242129   3.425   2.747  12.579 -0.8651  0.5524 -0.6332
 6905TIP3    H142130   3.507   2.779  12.541 -1.1265  1.3569 -0.5402
 6905TIP3    H242131   3.372   2.722  12.504 -0.6848  0.4188 -0.7151
 6906TIP3   OH242132   5.721   6.460  12.324 -0.6155  0.0770 -0.2203
 6906TIP3    H142133   5.659   6.388  12.327  0.1378 -0.5871 -0.3910
 6906TIP3    H242134   5.766   6.450  12.241  0.7735 -0.3561  0.5534
 6907TIP3   OH242135   2.023   2.414  11.884 -0.7147 -0.2357  0.0962
 6907TIP3    H142136   1.961   2.396  11.814  1.8032 -1.8499 -1.8957
 6907TIP3    H242137   2.078   2.485  11.850 -0.9396  0.6640  1.5093
 6908TIP3   OH242138   1.212   2.712  16.443 -0.1135  0.1610 -0.0484
 6908TIP3    H142139   1.174   2.686  16.359  2.5425 -0.4513 -1.1754
 6908TIP3    H242140   1.178   2.648  16.506 -1.1308 -0.1665 -0.9183
 6909TIP3   OH242141   0.369   5.343  16.487  0.4242 -0.3500  0.1587
 6909TIP3    H142142   0.413   5.424  16.512  1.1689 -0.8515  0.4782
 6909TIP3    H242143   0.400   5.278  16.549  1.4377 -1.3615 -1.3398
 6910TIP3   OH242144   1.321   0.484   4.932  0.2566  0.1974  0.0066
 6910TIP3    H142145   1.283   0.407   4.974  2.5099 -0.4595  0.9762
 6910TIP3    H242146   1.352   0.538   5.004 -0.0827  1.3786 -0.7104
 6911TIP3   OH242147   1.127   3.805   5.414 -0.5574 -0.2946  0.5967
 6911TIP3    H142148   1.120   3.900   5.413  2.1325 -0.0129  0.0046
 6911TIP3    H242149   1.071   3.777   5.486 -0.7482  1.8174  1.3292
 6912TIP3   OH242150   3.037   1.841   1.462  0.6155  0.0058 -0.0653
 6912TIP3    H142151   3.110   1.838   1.400  0.2823  1.4721 -0.5858
 6912TIP3    H242152   2.966   1.796   1.417  1.1938 -1.4937  0.4731
 6913TIP3   OH242153   2.904   6.539  14.326  0.3611 -0.1178  0.6881
 6913TIP3    H142154   2.937   6.457  14.290 -1.5248 -0.7805  0.3167
 6913TIP3    H242155   2.812   6.521  14.344 -0.0769  1.8880  0.7018
 6914TIP3   OH242156   4.619   3.049   4.797  0.0500  0.0924 -0.5817
 6914TIP3    H142157   4.616   3.029   4.703  0.4910 -1.5903 -0.2658
 6914TIP3    H242158   4.595   2.967   4.840 -0.1771  0.8457  0.7941
 6915TIP3   OH242159   6.690   3.066  16.824 -0.1571 -0.3024  0.2948
 6915TIP3    H142160   6.596   3.080  16.810 -0.2649 -0.8733  0.4271
 6915TIP3    H242161   6.727   3.065  16.735 -0.4266 -1.0545  0.1786
 6916TIP3   OH242162   4.296   5.523   0.612  0.0813 -0.0968  0.1037
 6916TIP3    H142163   4.327   5.519   0.702  0.9795  0.4399 -0.1728
 6916TIP3    H242164   4.276   5.432   0.590  1.2207 -0.4321  0.3819
 6917TIP3   OH242165   3.009   6.476   3.491 -0.5439  0.0566  0.8334
 6917TIP3    H142166   2.918   6.477   3.461 -0.3121 -1.5058 -0.0109
 6917TIP3    H242167   3.039   6.387   3.473  0.7215  0.1096  2.4332
 6918TIP3   OH242168   6.410   5.659   3.065 -0.3170 -0.4512  0.3331
 6918TIP3    H142169   6.405   5.750   3.094  0.5414 -0.5559  0.8226
 6918TIP3    H242170   6.393   5.664   2.971  0.9407  0.3758  0.1225
 6919TIP3   OH242171   2.984   4.703  12.618 -0.0168  0.1188  0.7502
 6919TIP3    H142172   2.891   4.707  12.639 -0.1741 -1.4382  0.4482
 6919TIP3    H242173   2.988   4.673  12.528  0.7776 -1.6289  1.3169
 6920TIP3   OH242174   1.263   6.236   0.686 -0.1444  0.9565 -0.3074
 6920TIP3    H142175   1.306   6.280   0.613  1.0947  0.8088  0.3094
 6920TIP3    H242176   1.185   6.196   0.647  0.6926  0.5515 -1.6314
 6921TIP3   OH242177   4.625   3.577  11.526  0.1409  0.3615 -0.8213
 6921TIP3    H142178   4.716   3.592  11.498  1.9321 -1.8329  2.9986
 6921TIP3    H242179   4.626   3.597  11.620 -3.5230  0.7133 -0.7416
 6922TIP3   OH242180   5.309   6.179   0.793  0.0033  0.2253 -0.0662
 6922TIP3    H142181   5.259   6.171   0.874  0.0837  0.6359  0.0246
 6922TIP3    H242182   5.243   6.175   0.723 -0.0271 -0.5483 -0.0066
 6923TIP3   OH242183   0.294   3.361  11.963 -0.5329 -0.4863  0.0126
 6923TIP3    H142184   0.341   3.442  11.942 -1.4869 -0.1590 -0.9553
 6923TIP3    H242185   0.261   3.374  12.051 -2.9949  1.3664 -1.0758
 6924TIP3   OH242186   3.046   2.293  11.116  0.5137 -0.1610  0.1421
 6924TIP3    H142187   2.962   2.319  11.153  1.1789  1.4698  0.5617
 6924TIP3    H242188   3.072   2.216  11.167 -0.6948 -0.6559  0.0237
 6925TIP3   OH242189   5.764   1.084  15.340 -0.3212  0.7066  0.5687
 6925TIP3    H142190   5.680   1.131  15.339 -0.1317  1.0896 -1.3520
 6925TIP3    H242191   5.749   1.010  15.399 -1.6405  1.4116  1.1728
 6926TIP3   OH242192   6.562   6.066   1.067  0.1812 -0.1810  0.3633
 6926TIP3    H142193   6.523   6.090   0.983  1.3555 -0.8966 -0.4035
 6926TIP3    H242194   6.594   5.977   1.054 -0.5400 -0.7035  1.9117
 6927TIP3   OH242195   6.658   3.068   1.264  0.0056 -0.3505 -0.3099
 6927TIP3    H142196   6.672   3.057   1.170  0.1423 -1.5356 -0.1763
 6927TIP3    H242197   6.715   3.141   1.289  0.9808 -0.8710 -0.9252
 6928TIP3   OH242198   4.508   3.779   3.381  0.0192 -0.4447 -0.2897
 6928TIP3    H142199   4.494   3.686   3.397  1.1683 -0.4195  1.0684
 6928TIP3    H242200   4.435   3.823   3.424 -0.3366 -0.6914 -0.6376
 6929TIP3   OH242201   6.320   0.354  12.812  1.1813  0.4354 -0.2409
 6929TIP3    H142202   6.240   0.403  12.834  1.3361  0.3030  0.6719
 6929TIP3    H242203   6.342   0.382  12.724  1.2702  2.0300  0.2591
 6930TIP3   OH242204   1.230   2.624  13.572  0.2525  0.1398 -0.2636
 6930TIP3    H142205   1.186   2.616  13.656  0.2550  0.7809 -0.1941
 6930TIP3    H242206   1.319   2.594  13.588 -0.0772 -0.9346 -0.3465
 6931TIP3   OH242207   3.842   0.581  12.171  0.0047 -0.0098  0.4906
 6931TIP3    H142208   3.834   0.624  12.255  0.2562 -1.2102  1.1606
 6931TIP3    H242209   3.936   0.565  12.161 -0.2000 -1.7343  0.9913
 6932TIP3   OH242210   5.366   4.755   2.421  0.3114 -0.0368  0.7787
 6932TIP3    H142211   5.426   4.826   2.445 -1.3780  1.1050  1.8610
 6932TIP3    H242212   5.423   4.682   2.400  2.1026  1.3512  0.5829
 6933TIP3   OH242213   5.394   2.625  16.300 -0.3825  0.0046  0.2708
 6933TIP3    H142214   5.420   2.534  16.293 -0.6122 -0.1727  1.4594
 6933TIP3    H242215   5.476   2.673  16.310 -0.2839 -0.1154  0.0320
 6934TIP3   OH242216   4.455   1.409   6.547  0.1081  0.4278  0.1627
 6934TIP3    H142217   4.502   1.328   6.529 -0.9724 -0.6284  1.8111
 6934TIP3    H242218   4.524   1.476   6.548  1.0874 -0.5132 -0.8159
 6935TIP3   OH242219   3.560   5.052  13.549  0.0511 -0.0174 -0.2993
 6935TIP3    H142220   3.491   5.038  13.484  2.7158 -2.9937 -2.8053
 6935TIP3    H242221   3.631   5.095  13.500  2.1126 -2.2433  0.5493
 6936TIP3   OH242222   5.523   2.172  11.881  0.3274  0.1509  0.4952
 6936TIP3    H142223   5.468   2.172  11.959  0.0385 -0.3347  0.2952
 6936TIP3    H242224   5.612   2.166  11.914  0.5621  4.0723  1.0120
 6937TIP3   OH242225   4.379   6.266  15.536 -0.3753  0.5849  0.7128
 6937TIP3    H142226   4.289   6.235  15.524 -0.0606  0.8249 -3.5881
 6937TIP3    H242227   4.432   6.187  15.526  0.0184  0.9430 -0.0323
 6938TIP3   OH242228   2.472   3.714   1.056  0.2130 -0.0604 -0.0382
 6938TIP3    H142229   2.449   3.657   0.983  0.9865 -1.1175  0.5102
 6938TIP3    H242230   2.407   3.695   1.123  0.3609 -0.1684  0.0764
 6939TIP3   OH242231   4.755   1.563  14.025 -0.5970  0.4260 -0.0044
 6939TIP3    H142232   4.717   1.637  14.072 -2.2372  0.3676 -1.1342
 6939TIP3    H242233   4.849   1.570  14.041 -0.8235  2.0883  0.8366
 6940TIP3   OH242234   3.375   1.606  16.978  0.1703 -0.0197  0.0875
 6940TIP3    H142235   3.292   1.561  16.988 -0.5147  1.3831  1.0996
 6940TIP3    H242236   3.439   1.547  17.017 -0.4607 -0.7583  0.0327
 6941TIP3   OH242237   3.663   5.441   4.754  0.2676  0.2080  0.4995
 6941TIP3    H142238   3.700   5.477   4.673  0.2274  1.3634  0.9770
 6941TIP3    H242239   3.568   5.447   4.741  0.1867 -2.1232 -0.4455
 6942TIP3   OH242240   2.481   2.589   2.725  0.3235  0.4917 -0.6617
 6942TIP3    H142241   2.551   2.560   2.667  0.7271 -0.4079  0.2542
 6942TIP3    H242242   2.451   2.509   2.769 -0.5956  1.0164 -0.3010
 6943TIP3   OH242243   6.616   2.805   3.783 -0.3354  0.5602  0.5222
 6943TIP3    H142244   6.697   2.847   3.814  0.8552 -0.7355 -0.6601
 6943TIP3    H242245   6.616   2.822   3.689 -1.3635  0.3878  0.4867
 6944TIP3   OH242246   5.843   0.865  13.671  0.6767  0.0479 -0.1230
 6944TIP3    H142247   5.749   0.859  13.655  0.7420  0.2104 -0.5905
 6944TIP3    H242248   5.881   0.793  13.620  0.5459 -2.0989  2.5931
 6945TIP3   OH242249   5.215   1.883   2.191 -0.6517 -0.6833  0.9627
 6945TIP3    H142250   5.132   1.866   2.235 -0.0603 -2.1108  1.5873
 6945TIP3    H242251   5.201   1.855   2.101 -1.0731 -0.1600  0.8563
 6946TIP3   OH242252   1.439   2.285   1.876 -0.3081  0.4203  0.4484
 6946TIP3    H142253   1.432   2.380   1.870 -1.4931  0.2599 -2.8367
 6946TIP3    H242254   1.516   2.263   1.824  0.4682 -0.4126  1.8956
 6947TIP3   OH242255   6.358   3.319  12.708  0.4932  0.6511 -0.1540
 6947TIP3    H142256   6.429   3.360  12.659  1.9147  2.0739  2.8039
 6947TIP3    H242257   6.280   3.366  12.681  1.4294  2.3060 -0.1330
 6948TIP3   OH242258   3.991   0.189   0.999 -0.6235 -0.2288  0.5405
 6948TIP3    H142259   4.010   0.275   1.038 -1.7081 -0.1967  1.0372
 6948TIP3    H242260   3.915   0.205   0.943  0.1617 -0.5400 -0.6433
 6949TIP3   OH242261   3.486   1.281  14.316 -0.4761  0.3259  0.5457
 6949TIP3    H142262   3.489   1.290  14.221 -0.1327  1.4986  0.6609
 6949TIP3    H242263   3.426   1.350  14.346  1.1551  1.4680  1.3466
 6950TIP3   OH242264   5.894   3.721  14.912  0.6589 -0.6217  0.0695
 6950TIP3    H142265   5.845   3.707  14.830  0.8883  1.1121 -0.3954
 6950TIP3    H242266   5.890   3.636  14.956 -1.0263 -1.1026 -0.8974
 6951TIP3   OH242267   3.830   5.128  13.224  0.1317  0.2740  0.3104
 6951TIP3    H142268   3.851   5.149  13.315  2.4872  0.2924 -0.1774
 6951TIP3    H242269   3.914   5.132  13.178 -0.7725 -1.0631 -1.6120
 6952TIP3   OH242270   4.250   3.832   2.583  0.0826 -0.2181  0.1541
 6952TIP3    H142271   4.201   3.886   2.646  2.7094  1.0504  1.2340
 6952TIP3    H242272   4.295   3.767   2.637  0.5844 -0.5671 -0.6709
 6953TIP3   OH242273   1.478   5.355  14.935 -0.6573 -0.4414 -0.2976
 6953TIP3    H142274   1.407   5.305  14.973 -1.0613  0.7906  0.6538
 6953TIP3    H242275   1.463   5.445  14.966  1.2723 -0.1363 -0.1089
 6954TIP3   OH242276   4.811   2.455  10.742 -0.3447  0.4243 -0.0210
 6954TIP3    H142277   4.814   2.389  10.673  2.1239 -0.4937  0.8627
 6954TIP3    H242278   4.818   2.539  10.695  0.9270 -0.1701 -0.9432
 6955TIP3   OH242279   4.585   0.982  12.914  0.2203  0.2310  0.0256
 6955TIP3    H142280   4.652   0.932  12.869  0.9133 -0.3438  1.6406
 6955TIP3    H242281   4.632   1.037  12.976 -0.7823 -0.2262  1.2400
 6956TIP3   OH242282   3.533   2.586   4.116  0.2928 -0.4260  0.1009
 6956TIP3    H142283   3.544   2.608   4.209  0.3162 -0.2224  0.0522
 6956TIP3    H242284   3.567   2.663   4.070 -1.9559  0.5283 -0.0638
 6957TIP3   OH242285   6.263   4.567   1.065 -0.0001 -0.0519 -0.2153
 6957TIP3    H142286   6.257   4.662   1.049 -1.6104 -0.3077 -1.2869
 6957TIP3    H242287   6.205   4.551   1.139  1.5692  0.0040  1.0789
 6958TIP3   OH242288   2.133   1.435   4.793  0.2247 -0.3811 -0.0807
 6958TIP3    H142289   2.132   1.524   4.828  3.0962 -0.2717 -0.0611
 6958TIP3    H242290   2.122   1.446   4.698 -0.4272 -0.0958  0.0280
 6959TIP3   OH242291   6.730   2.835   4.251 -0.0262 -0.2141 -0.5624
 6959TIP3    H142292   6.777   2.916   4.272 -1.6933  0.6408  0.0083
 6959TIP3    H242293   6.785   2.793   4.185  2.5505 -0.2587  1.4383
 6960TIP3   OH242294   3.180   5.877  11.983 -0.5155  0.1562 -0.0590
 6960TIP3    H142295   3.241   5.950  11.975  0.5280 -0.7957 -1.1246
 6960TIP3    H242296   3.096   5.913  11.956 -0.5025  1.5394  1.6158
 6961TIP3   OH242297   4.748   2.454   4.481  0.3952  0.2149  0.1253
 6961TIP3    H142298   4.726   2.371   4.440  0.4665  1.3251 -2.4269
 6961TIP3    H242299   4.676   2.512   4.458  0.6432  1.0254  1.3141
 6962TIP3   OH242300   6.638   3.701   1.337  0.1457 -0.1870 -0.0487
 6962TIP3    H142301   6.624   3.653   1.419 -1.0569  0.0002 -0.1172
 6962TIP3    H242302   6.730   3.687   1.315 -0.0270 -1.9372  0.2625
 6963TIP3   OH242303   3.180   4.609   5.898  0.1442  0.2918 -0.4600
 6963TIP3    H142304   3.243   4.540   5.920  0.1960  0.7769  0.9937
 6963TIP3    H242305   3.148   4.585   5.811  2.2661 -0.0135 -1.2154
 6964TIP3   OH242306   1.967   3.151   1.989  0.3403 -0.4055  0.3686
 6964TIP3    H142307   1.932   3.228   2.033  0.6388  0.7599 -1.3321
 6964TIP3    H242308   1.987   3.090   2.060  0.2139  1.1170  1.7756
 6965TIP3   OH242309   0.344   4.335   1.906  0.0337  0.3295 -0.1842
 6965TIP3    H142310   0.350   4.243   1.932 -0.9431  0.5193  0.7950
 6965TIP3    H242311   0.312   4.333   1.816 -0.1501 -0.2895 -0.1077
 6966TIP3   OH242312   2.450   5.223   3.015 -0.2622  0.3757  0.6311
 6966TIP3    H142313   2.410   5.303   3.048 -2.8796 -0.6339  0.1491
 6966TIP3    H242314   2.468   5.241   2.923  0.2692  0.7628  0.8008
 6967TIP3   OH242315   0.866   2.907  11.823 -0.4583  0.3146  0.0630
 6967TIP3    H142316   0.863   2.913  11.918  0.7552  1.3888  0.0571
 6967TIP3    H242317   0.852   2.996  11.792  0.6633  0.2505 -0.7088
 6968TIP3   OH242318   4.246   0.499  16.711 -0.2107 -0.0445  0.2890
 6968TIP3    H142319   4.332   0.503  16.670 -0.7550 -2.5156 -1.2791
 6968TIP3    H242320   4.198   0.572  16.674  0.6203  0.2378 -0.2537
 6969TIP3   OH242321   1.035   6.063  13.785  0.1258  0.4377  0.2841
 6969TIP3    H142322   0.943   6.090  13.776 -0.2608 -1.4890 -3.3399
 6969TIP3    H242323   1.078   6.099  13.708  1.2971 -2.5417 -0.5744
 6970TIP3   OH242324   5.019   0.170  14.287 -0.1277  0.1043 -0.3027
 6970TIP3    H142325   5.082   0.194  14.219  0.1033  1.0645  0.2430
 6970TIP3    H242326   5.009   0.249  14.340  0.1743 -0.8094  1.1603
 6971TIP3   OH242327   5.990   1.367  14.528  0.3497 -0.3603 -0.1194
 6971TIP3    H142328   6.016   1.393  14.439  1.3549  0.5179  0.4165
 6971TIP3    H242329   5.902   1.331  14.517  0.1351  0.4762 -1.3614
 6972TIP3   OH242330   3.713   4.996   6.055 -0.2856 -0.1623 -0.1081
 6972TIP3    H142331   3.755   5.065   6.107 -1.5135 -0.1487  0.9368
 6972TIP3    H242332   3.758   4.916   6.080  2.0618  0.3298 -2.3159
 6973TIP3   OH242333   0.998   2.670  16.958  0.2520 -0.3668  0.0002
 6973TIP3    H142334   1.039   2.596  17.002 -1.5865 -0.9609  0.8199
 6973TIP3    H242335   0.912   2.677  16.998 -0.0607  1.4987 -0.8815
 6974TIP3   OH242336   2.656   2.300   5.137  0.0587  0.1150  0.1114
 6974TIP3    H142337   2.581   2.268   5.087  0.6206 -0.6963 -0.2349
 6974TIP3    H242338   2.618   2.334   5.218 -0.7045 -0.0739 -0.1564
 6975TIP3   OH242339   2.226   1.018  12.073  0.3785  0.0134 -0.1690
 6975TIP3    H142340   2.149   1.024  12.017 -0.1387 -0.5621  0.4582
 6975TIP3    H242341   2.198   1.055  12.157 -0.1155 -2.6569  0.9431
 6976TIP3   OH242342   3.530   5.686   0.136 -0.1683  0.0810 -0.3103
 6976TIP3    H142343   3.576   5.746   0.195 -0.7731  0.4909 -0.2535
 6976TIP3    H242344   3.445   5.671   0.177 -0.6551  0.4813 -1.1351
 6977TIP3   OH242345   4.934   2.026  13.708 -0.2927  0.0698 -0.0447
 6977TIP3    H142346   4.923   1.956  13.773 -3.2121  0.2530 -0.2153
 6977TIP3    H242347   4.974   1.983  13.633 -1.5822 -1.3504  0.0303
 6978TIP3   OH242348   0.314   0.722   1.365 -0.1814  0.0529  1.1276
 6978TIP3    H142349   0.383   0.664   1.335 -0.0559 -0.7795  2.9019
 6978TIP3    H242350   0.234   0.688   1.325  0.2369  0.1808  0.1762
 6979TIP3   OH242351   5.536   4.056  15.303  0.0274 -0.4986  0.6419
 6979TIP3    H142352   5.603   4.101  15.251 -1.0379  0.0497 -0.3013
 6979TIP3    H242353   5.554   3.963  15.291  0.5692 -0.3556  0.3380
 6980TIP3   OH242354   3.609   5.261  16.635 -0.2698  0.2587  0.4184
 6980TIP3    H142355   3.642   5.248  16.724 -3.4174 -3.3706  1.3349
 6980TIP3    H242356   3.522   5.301  16.648 -1.0882 -0.9947 -0.8845
 6981TIP3   OH242357   1.487   2.709  16.492  0.1152 -0.1605 -0.0717
 6981TIP3    H142358   1.549   2.780  16.476 -1.4459  0.9352 -1.5806
 6981TIP3    H242359   1.405   2.738  16.452 -0.3920 -3.1373 -1.5639
 6982TIP3   OH242360   1.883   4.756   6.137 -0.2030 -0.7872  0.4467
 6982TIP3    H142361   1.924   4.783   6.219  1.6540 -0.4687 -0.5180
 6982TIP3    H242362   1.790   4.775   6.149  0.2818  1.0708  1.7592
 6983TIP3   OH242363   5.071   5.266  13.441 -0.2303  0.4822  0.1469
 6983TIP3    H142364   5.046   5.211  13.367  0.0248  0.5315  0.0240
 6983TIP3    H242365   5.021   5.347  13.429 -0.1437  0.5124 -0.0001
 6984TIP3   OH242366   4.309   3.214   3.699 -0.1411 -0.7032  0.1638
 6984TIP3    H142367   4.274   3.246   3.782 -0.0859 -0.7491  0.2053
 6984TIP3    H242368   4.396   3.181   3.721  0.7731  1.2424 -0.2943
 6985TIP3   OH242369   6.507   3.505   0.070 -0.4630 -0.3869 -0.2108
 6985TIP3    H142370   6.518   3.412   0.091  1.0155 -0.2114 -0.0330
 6985TIP3    H242371   6.591   3.545   0.097 -1.7246  1.3216  1.5053
 6986TIP3   OH242372   6.449   5.713  13.136 -0.2118 -0.1014 -0.0334
 6986TIP3    H142373   6.362   5.751  13.143 -0.0737  0.6818 -1.9417
 6986TIP3    H242374   6.505   5.786  13.111  0.3296 -1.2199 -2.3528
 6987TIP3   OH242375   5.540   1.063  17.009 -0.2033 -0.0798  0.0470
 6987TIP3    H142376   5.630   1.050  16.979  0.5740  1.9753  1.2941
 6987TIP3    H242377   5.486   1.042  16.933  1.3135 -1.0520 -0.8298
 6988TIP3   OH242378   1.089   2.492  16.581 -0.2878  0.2020  0.4156
 6988TIP3    H142379   1.123   2.429  16.518  1.1042 -1.5170  2.6833
 6988TIP3    H242380   0.995   2.493  16.567 -0.1616 -1.2257 -0.7270
 6989TIP3   OH242381   3.210   2.285  13.228 -0.2615  0.6278 -0.1721
 6989TIP3    H142382   3.229   2.379  13.233  0.8584  0.3500  1.4895
 6989TIP3    H242383   3.293   2.242  13.248 -1.0999 -0.7005  0.6322
 6990TIP3   OH242384   5.814   3.264   3.826  0.2631 -0.1772 -0.4224
 6990TIP3    H142385   5.760   3.296   3.754 -0.2638 -0.1515 -0.0131
 6990TIP3    H242386   5.757   3.207   3.877  0.0974  1.1767  0.9890
 6991TIP3   OH242387   0.604   0.545  12.952  0.5315 -0.1246  0.2573
 6991TIP3    H142388   0.509   0.533  12.944  0.2050  0.7808  2.2284
 6991TIP3    H242389   0.641   0.459  12.934 -0.6275 -0.4132 -0.8624
 6992TIP3   OH242390   1.873   5.001   2.104 -0.4084  0.2895  0.1933
 6992TIP3    H142391   1.853   4.934   2.040 -2.8667  1.1074  0.0042
 6992TIP3    H242392   1.933   4.959   2.166  0.1269 -1.2332 -1.3032
 6993TIP3   OH242393   6.408   4.763  13.706 -0.5308 -0.2254  0.0706
 6993TIP3    H142394   6.322   4.796  13.680  0.3352  1.9137 -0.2383
 6993TIP3    H242395   6.388   4.693  13.769 -2.4716  0.2924  0.1138
 6994TIP3   OH242396   0.463   5.504   4.843  0.0997  0.1464  0.2684
 6994TIP3    H142397   0.410   5.437   4.800 -0.1908  0.0163  0.8142
 6994TIP3    H242398   0.410   5.531   4.918  1.1863 -0.6433  1.3549
 6995TIP3   OH242399   5.166   6.022  16.837 -0.2848 -0.5270 -0.8282
 6995TIP3    H142400   5.081   5.979  16.829 -1.4653  1.5341 -0.2266
 6995TIP3    H242401   5.223   5.957  16.879 -1.1221 -2.4430 -2.5293
 6996TIP3   OH242402   0.019   1.409   2.602  0.6048 -0.0698  0.4540
 6996TIP3    H142403   0.114   1.420   2.596  0.3359  4.0372  1.1423
 6996TIP3    H242404   0.004   1.383   2.693  1.0147 -0.2730  0.4677
 6997TIP3   OH242405   0.706   2.637   1.131 -0.5112 -1.0951  0.4195
 6997TIP3    H142406   0.767   2.564   1.128  1.0371  0.1557 -2.0423
 6997TIP3    H242407   0.753   2.707   1.176 -0.9924 -0.8306  0.5218
 6998TIP3   OH242408   5.390   5.389   5.713  0.3638 -0.8613 -0.1455
 6998TIP3    H142409   5.464   5.442   5.742 -1.9357  1.1617  2.5840
 6998TIP3    H242410   5.329   5.452   5.676  0.1302 -2.5566 -2.9590
 6999TIP3   OH242411   1.436   5.603   5.776 -0.2402 -0.1658 -0.2498
 6999TIP3    H142412   1.383   5.580   5.700  1.0161 -0.6470 -1.0051
 6999TIP3    H242413   1.524   5.616   5.741  0.5214 -1.1456  1.2347
 7000TIP3   OH242414   0.489   0.922  12.214  0.2455  0.2494 -0.2969
 7000TIP3    H142415   0.466   0.895  12.303 -0.7253 -0.2549 -0.6919
 7000TIP3    H242416   0.545   0.999  12.227  1.3692 -0.7064  0.7832
 7001TIP3   OH242417   4.085   1.693   0.409 -0.2954 -0.5117 -0.2550
 7001TIP3    H142418   4.008   1.748   0.394  1.9288  2.6998 -0.8620
 7001TIP3    H242419   4.109   1.711   0.500  1.2605  0.7973 -0.8640
 7002TIP3   OH242420   5.238   5.851   3.567 -0.2437  0.1664 -0.2159
 7002TIP3    H142421   5.257   5.931   3.617  2.5263 -0.5999  0.1293
 7002TIP3    H242422   5.218   5.882   3.479  0.9533  1.2603 -0.1369
 7003TIP3   OH242423   0.479   5.033   2.692 -0.2115  0.2516 -0.2643
 7003TIP3    H142424   0.428   5.106   2.728  0.5402  0.7118 -0.1036
 7003TIP3    H242425   0.491   5.055   2.600  0.0079  0.3402 -0.2174
 7004TIP3   OH242426   2.925   4.633   4.007  0.5650  0.2243  0.3966
 7004TIP3    H142427   2.837   4.641   4.043 -0.2623 -1.8982 -0.9191
 7004TIP3    H242428   2.956   4.723   3.998 -2.3243  1.2113 -1.0224
 7005TIP3   OH242429   1.397   0.645  12.513  0.3646 -0.1480 -0.3220
 7005TIP3    H142430   1.412   0.693  12.432  1.5273 -0.9614 -0.6250
 7005TIP3    H242431   1.469   0.672  12.570 -1.2693  1.5571  1.0364
 7006TIP3   OH242432   2.279   6.374   1.020 -0.2812 -0.0814  0.6870
 7006TIP3    H142433   2.350   6.319   0.986 -0.3003  0.9677 -1.1880
 7006TIP3    H242434   2.324   6.447   1.062 -0.2568 -1.3670  3.1535
 7007TIP3   OH242435   6.399   3.270   4.575  0.3967  0.9241 -0.0412
 7007TIP3    H142436   6.456   3.313   4.639  0.1093  1.8286 -0.3745
 7007TIP3    H242437   6.358   3.198   4.623  1.1505  0.8076  0.4387
 7008TIP3   OH242438   5.725   4.437  12.705 -0.4840 -0.3397  0.0319
 7008TIP3    H142439   5.745   4.414  12.614 -1.8072 -2.7531  0.2740
 7008TIP3    H242440   5.640   4.480  12.700 -0.6504 -0.6554  0.1455
 7009TIP3   OH242441   1.419   6.042   1.295 -0.0286  0.8541  0.6840
 7009TIP3    H142442   1.475   5.966   1.279 -1.4577 -0.3760  1.2281
 7009TIP3    H242443   1.443   6.072   1.382  0.4705  0.9612  0.5112
 7010TIP3   OH242444   5.079   0.602  12.560  0.2098  0.2720 -0.1155
 7010TIP3    H142445   5.026   0.668  12.515 -0.7186 -0.7129 -0.5063
 7010TIP3    H242446   5.087   0.531  12.497 -0.4352 -0.7947  0.9736
 7011TIP3   OH242447   6.095   3.720   0.092 -0.5805  0.0524 -0.4476
 7011TIP3    H142448   6.069   3.643   0.041 -0.6635 -0.8317  0.8875
 7011TIP3    H242449   6.156   3.686   0.158 -1.3860  0.9398  0.8072
 7012TIP3   OH242450   1.988   6.607   2.783 -0.0271  0.6302 -0.8147
 7012TIP3    H142451   1.954   6.630   2.697 -1.4165  0.4362 -0.3455
 7012TIP3    H242452   2.032   6.524   2.770 -3.1694 -1.2031 -0.7651
 7013TIP3   OH242453   4.390   4.830  15.881  0.1762 -0.1116 -0.0410
 7013TIP3    H142454   4.485   4.825  15.886  0.0537 -1.7983  1.4894
 7013TIP3    H242455   4.359   4.785  15.959 -1.8987  1.0638 -0.1021
 7014TIP3   OH242456   2.662   3.889  13.618 -0.1052 -0.3154  0.9414
 7014TIP3    H142457   2.628   3.895  13.708 -0.8566  0.2048  0.6349
 7014TIP3    H242458   2.729   3.956  13.613 -0.8662  0.4530  0.7841
 7015TIP3   OH242459   1.305   5.639  16.007  0.3305 -0.3673 -0.0206
 7015TIP3    H142460   1.269   5.678  15.928 -0.9241  0.4416  0.9148
 7015TIP3    H242461   1.352   5.562  15.976  0.6055  0.3967 -1.6334
 7016TIP3   OH242462   1.839   0.534   4.933  0.6434 -0.0879 -0.6693
 7016TIP3    H142463   1.780   0.609   4.936 -0.5216 -0.8195 -2.8158
 7016TIP3    H242464   1.791   0.464   4.978  1.0946  0.0505  0.0363
 7017TIP3   OH242465   1.558   5.331   2.055 -0.4108 -0.0127 -0.0406
 7017TIP3    H142466   1.521   5.288   1.978 -0.4475 -0.8180  0.4143
 7017TIP3    H242467   1.482   5.365   2.102 -0.4842 -0.5630  0.2459
 7018TIP3   OH242468   1.370   2.590  16.749 -0.3063 -0.6976 -0.0085
 7018TIP3    H142469   1.293   2.639  16.779 -1.1992 -1.8214 -0.3855
 7018TIP3    H242470   1.380   2.616  16.657 -1.1913 -1.6843 -0.4050
 7019TIP3   OH242471   6.053   5.094   3.749 -0.3181  0.1309 -0.0891
 7019TIP3    H142472   5.986   5.152   3.786 -0.5365 -0.7017  0.8776
 7019TIP3    H242473   6.124   5.095   3.814  0.2772  0.3865 -0.7289
 7020TIP3   OH242474   0.665   4.902  13.186  0.2762 -0.3163 -0.0190
 7020TIP3    H142475   0.591   4.847  13.213  0.9653 -0.3510  1.9383
 7020TIP3    H242476   0.632   4.991  13.191  0.2058 -0.3610  0.3102
 7021TIP3   OH242477   1.402   0.678  17.012 -0.7310 -0.0651  0.2965
 7021TIP3    H142478   1.331   0.734  17.044  1.1217  2.2430  0.6779
 7021TIP3    H242479   1.402   0.693  16.917 -1.0653 -0.4777  0.2287
 7022TIP3   OH242480   2.168   4.864   3.896 -0.6825 -0.3514  0.0306
 7022TIP3    H142481   2.201   4.775   3.884  0.7285  0.3746 -2.0174
 7022TIP3    H242482   2.159   4.899   3.807 -2.2328  1.2224  0.7280
 7023TIP3   OH242483   5.774   4.033  15.513  0.2823  0.0500 -0.5037
 7023TIP3    H142484   5.754   4.119  15.552  1.5410 -0.3583  1.1929
 7023TIP3    H242485   5.776   4.049  15.419 -1.0708  1.5304 -0.3184
 7024TIP3   OH242486   3.510   2.103  11.920  0.3301  0.3576  0.0761
 7024TIP3    H142487   3.563   2.064  11.850  0.7633 -0.9842  1.0806
 7024TIP3    H242488   3.562   2.088  11.999 -0.3246  1.4738  0.7408
 7025TIP3   OH242489   3.053   0.738  17.226 -0.8854 -0.2922 -0.3142
 7025TIP3    H142490   3.028   0.672  17.291  0.1158 -0.4545 -0.0824
 7025TIP3    H242491   3.132   0.704  17.185 -1.4092 -0.1110 -1.5219
 7026TIP3   OH242492   2.372   0.267  15.773  0.3676 -0.1092  1.1450
 7026TIP3    H142493   2.311   0.231  15.838  0.3893 -2.1091  0.1391
 7026TIP3    H242494   2.420   0.190  15.741  2.7425  1.2560  1.1812
 7027TIP3   OH242495   0.703   4.766  17.051 -0.3118  0.2608 -0.5723
 7027TIP3    H142496   0.738   4.697  16.995 -0.2987 -0.0237 -0.2196
 7027TIP3    H242497   0.709   4.730  17.140 -1.2643  0.2960 -0.4753
 7028TIP3   OH242498   1.947   0.688   5.198 -0.2365  0.3181  0.2435
 7028TIP3    H142499   2.039   0.714   5.196  0.3069 -1.4635  0.5044
 7028TIP3    H242500   1.933   0.657   5.288 -1.2252  1.0139  0.3386
 7029TIP3   OH242501   4.843   1.999  11.636 -0.0318  0.2556  0.1641
 7029TIP3    H142502   4.834   2.003  11.731 -0.0475  0.1947  0.1646
 7029TIP3    H242503   4.758   1.967  11.605 -0.8519  2.4079 -0.0292
 7030TIP3   OH242504   1.692   2.468   3.107 -0.3786  0.3332  0.9124
 7030TIP3    H142505   1.667   2.484   3.016  2.1289 -2.0852 -0.3734
 7030TIP3    H242506   1.744   2.544   3.131  0.4578  0.2043 -0.3690
 7031TIP3   OH242507   4.463   6.517   4.387  0.2096  0.9993 -0.1557
 7031TIP3    H142508   4.440   6.548   4.474  0.8975 -0.0751  0.4341
 7031TIP3    H242509   4.558   6.530   4.382  0.0573  1.9433 -1.1326
 7032TIP3   OH242510   2.819   5.677  13.582 -0.4117 -0.2605 -0.1867
 7032TIP3    H142511   2.911   5.660  13.602 -0.2658 -0.1168 -0.7287
 7032TIP3    H242512   2.801   5.626  13.503 -0.6322  0.1774 -0.4244
 7033TIP3   OH242513   2.128   5.239  16.159 -0.0436 -0.4774 -0.1060
 7033TIP3    H142514   2.040   5.277  16.162 -0.6124 -1.6156 -1.0978
 7033TIP3    H242515   2.167   5.262  16.243 -0.6735  1.4426 -0.2893
 7034TIP3   OH242516   2.739   4.940  15.626  0.6986 -0.2570 -0.5651
 7034TIP3    H142517   2.809   4.973  15.570  0.3387 -0.2952 -1.0428
 7034TIP3    H242518   2.695   4.873  15.573  0.2526 -0.1798 -0.2985
 7035TIP3   OH242519   3.388   1.154  11.845 -0.1993 -0.2617  0.3099
 7035TIP3    H142520   3.460   1.204  11.807  0.5361 -1.1182  0.5315
 7035TIP3    H242521   3.368   1.087  11.779 -1.3956  0.4934 -0.1301
 7036TIP3   OH242522   6.606   5.555  13.492  0.2982  0.4045 -0.0302
 7036TIP3    H142523   6.615   5.502  13.413  1.4398  0.7954 -0.1842
 7036TIP3    H242524   6.628   5.495  13.564  1.0930  0.5320 -0.1631
 7037TIP3   OH242525   6.055   5.769   2.925 -0.2109  0.2078  0.3461
 7037TIP3    H142526   6.073   5.860   2.950 -0.0326  0.7422 -1.5559
 7037TIP3    H242527   6.131   5.744   2.872 -0.7834 -0.6670 -0.0813
 7038TIP3   OH242528   5.919   3.507   3.629 -0.5743 -0.1469  0.1553
 7038TIP3    H142529   5.832   3.469   3.641 -0.4086  0.0808  2.4581
 7038TIP3    H242530   5.902   3.600   3.613 -0.7776 -0.3516 -0.9429
 7039TIP3   OH242531   5.499   0.217  16.407 -0.3481  0.0964 -0.5200
 7039TIP3    H142532   5.499   0.125  16.433 -1.8796  0.2233  0.0186
 7039TIP3    H242533   5.452   0.219  16.324  0.8578  0.2477 -1.2307
 7040TIP3   OH242534   5.915   6.086  14.965  0.3033 -0.1654  0.3716
 7040TIP3    H142535   5.989   6.026  14.975  1.0838  1.0902  3.5144
 7040TIP3    H242536   5.955   6.172  14.958 -0.8646  0.2916 -1.3950
 7041TIP3   OH242537   1.584   1.675   5.275 -0.2765 -0.3392 -0.3066
 7041TIP3    H142538   1.586   1.670   5.371  1.7220 -0.7493 -0.3196
 7041TIP3    H242539   1.572   1.768   5.256  0.8344 -0.0339  0.3771
 7042TIP3   OH242540   4.359   3.961   0.065  0.2772 -0.5924 -0.0661
 7042TIP3    H142541   4.336   3.976  -0.027 -0.4001  1.9153  0.4358
 7042TIP3    H242542   4.453   3.978   0.069  0.3771 -1.0594 -0.3417
 7043TIP3   OH242543   2.041   2.318  12.859  0.4667  0.0481  0.9120
 7043TIP3    H142544   2.036   2.237  12.809 -1.9188  1.5648 -1.6624
 7043TIP3    H242545   2.105   2.371  12.812  0.1809  0.5407  1.0702
 7044TIP3   OH242546   1.502   6.773   1.758 -0.2549  0.5625 -0.1157
 7044TIP3    H142547   1.560   6.850   1.763  0.0797  0.2389  2.1432
 7044TIP3    H242548   1.532   6.716   1.828 -0.2368 -1.8901 -1.9839
 7045TIP3   OH242549   5.641   2.610  13.822  0.6485  0.1142  0.0673
 7045TIP3    H142550   5.655   2.535  13.879 -3.3551  0.3560  1.6460
 7045TIP3    H242551   5.613   2.572  13.739  2.4611 -0.1308 -0.4769
 7046TIP3   OH242552   2.938   1.748  12.565  0.4742 -0.4709 -0.3187
 7046TIP3    H142553   2.917   1.716  12.477 -1.3032 -1.3807  0.3787
 7046TIP3    H242554   2.983   1.674  12.607  1.1829 -0.0934 -0.3999
 7047TIP3   OH242555   2.011   3.632  10.981  0.0132 -0.4986  0.4403
 7047TIP3    H142556   2.018   3.558  11.042 -1.6814 -1.2562 -0.2381
 7047TIP3    H242557   2.075   3.614  10.913  0.5462 -0.6432  0.9724
 7048TIP3   OH242558   0.578   2.326  14.703  0.0380  0.0119  0.5298
 7048TIP3    H142559   0.575   2.232  14.720 -1.2897  0.2002  1.5357
 7048TIP3    H242560   0.490   2.357  14.724  0.9507  1.7749  2.0031
 7049TIP3   OH242561   2.594   6.001   1.686  0.8816  0.5548 -0.0026
 7049TIP3    H142562   2.677   5.956   1.669 -0.7296 -2.0072 -1.8180
 7049TIP3    H242563   2.574   5.980   1.778  1.0873 -0.8984 -0.2697
 7050TIP3   OH242564   4.288   2.842   5.061 -0.3175  0.8080 -0.2604
 7050TIP3    H142565   4.321   2.752   5.053  0.7898  0.8957  2.3663
 7050TIP3    H242566   4.209   2.843   5.007 -0.0892 -1.5920 -0.7749
 7051TIP3   OH242567   1.519   2.435  11.187  0.5548  0.0630  0.0713
 7051TIP3    H142568   1.607   2.470  11.172  0.6720 -0.3166 -0.1365
 7051TIP3    H242569   1.476   2.440  11.101 -0.4988  2.5881  0.6567
 7052TIP3   OH242570   4.139   5.238   5.254  0.0144  0.3752  0.4068
 7052TIP3    H142571   4.198   5.205   5.186  0.2871 -0.4445  1.0317
 7052TIP3    H242572   4.181   5.214   5.336  0.4733  2.6835  0.9269
 7053TIP3   OH242573   6.284   4.553  16.730  0.6429 -0.2875 -0.7164
 7053TIP3    H142574   6.207   4.560  16.786  0.5251  0.6785 -0.9800
 7053TIP3    H242575   6.250   4.525  16.645  0.7407 -1.1003 -0.4915
 7054TIP3   OH242576   1.556   1.946  11.692  0.6495  0.4452 -0.3558
 7054TIP3    H142577   1.633   1.905  11.733  0.9380 -0.0436 -1.3641
 7054TIP3    H242578   1.502   1.873  11.663  1.0623  0.7508 -1.9736
 7055TIP3   OH242579   1.625   5.250  17.159 -0.6210  0.4636 -0.4946
 7055TIP3    H142580   1.612   5.156  17.165  0.0747  0.3143 -1.1303
 7055TIP3    H242581   1.567   5.277  17.087 -1.5907  0.6934  0.3548
 7056TIP3   OH242582   0.694   5.962   5.484 -0.1658 -0.4695  0.2347
 7056TIP3    H142583   0.675   6.053   5.504  1.8747 -0.2363  1.4013
 7056TIP3    H242584   0.653   5.912   5.554 -0.6595 -0.4108 -0.0056
 7057TIP3   OH242585   1.157   6.613   2.358 -0.0271  0.5414 -0.2086
 7057TIP3    H142586   1.195   6.560   2.287  0.0742 -0.3651  0.4961
 7057TIP3    H242587   1.071   6.639   2.325  0.3735  0.8699 -1.0084
 7058TIP3   OH242588   6.616   2.136   3.915 -0.4210 -0.0172 -0.4716
 7058TIP3    H142589   6.635   2.138   4.008  0.5458 -0.8417 -0.6274
 7058TIP3    H242590   6.594   2.226   3.892 -0.4705  0.2241  0.5043
 7059TIP3   OH242591   6.094   0.474   4.381 -0.3776  0.2813 -0.1589
 7059TIP3    H142592   6.156   0.530   4.427 -0.4188  0.6073 -0.4904
 7059TIP3    H242593   6.009   0.495   4.420 -0.1772 -0.8043  0.9057
 7060TIP3   OH242594   3.543   1.708  12.382  0.5723 -0.7185 -0.2839
 7060TIP3    H142595   3.591   1.645  12.328 -0.1389 -3.1116  1.6684
 7060TIP3    H242596   3.559   1.679  12.472 -0.4577  1.4703  0.6857
 7061TIP3   OH242597   2.075   6.274  16.423  0.6617  0.5101 -0.0188
 7061TIP3    H142598   2.090   6.321  16.505 -0.7687  0.3943  0.3371
 7061TIP3    H242599   2.071   6.342  16.356 -0.6065  0.8665  0.3843
 7062TIP3   OH242600   4.530   3.186   1.775 -0.7222  0.0160 -0.4215
 7062TIP3    H142601   4.613   3.222   1.806  0.3373 -1.2756 -1.6374
 7062TIP3    H242602   4.529   3.205   1.681 -1.3645 -0.7819 -0.5846
 7063TIP3   OH242603   3.780   3.984  15.120  0.2755  0.0236 -0.4077
 7063TIP3    H142604   3.830   3.903  15.124 -1.4752 -1.2624 -2.4735
 7063TIP3    H242605   3.739   3.992  15.206 -2.0550 -3.1077 -1.0478
 7064TIP3   OH242606   3.515   4.904   2.283  0.7726  0.0720 -0.5364
 7064TIP3    H142607   3.440   4.926   2.228  1.9406 -0.6900 -2.5213
 7064TIP3    H242608   3.494   4.818   2.318  0.7088 -0.1286 -1.0589
 7065TIP3   OH242609   2.031   0.920   0.481 -0.3978 -0.0067  0.2006
 7065TIP3    H142610   2.048   0.868   0.402  0.2083 -0.2803  0.5038
 7065TIP3    H242611   1.958   0.977   0.457 -0.7643 -0.6631 -0.2955
 7066TIP3   OH242612   2.820   1.713  14.145  0.2124  0.7261 -0.6419
 7066TIP3    H142613   2.771   1.757  14.215 -0.6139  2.0689 -1.9998
 7066TIP3    H242614   2.890   1.775  14.123  0.8030  0.0656 -0.6605
 7067TIP3   OH242615   4.002   5.502   4.357 -0.7284  0.3441  0.5301
 7067TIP3    H142616   4.037   5.589   4.372 -0.7213  0.2996  0.7659
 7067TIP3    H242617   3.909   5.509   4.376 -0.6002  0.1234  1.2845
 7068TIP3   OH242618   3.081   3.304   3.250 -0.1625 -0.3990 -0.1281
 7068TIP3    H142619   3.054   3.255   3.328  1.6518  0.3364  1.0304
 7068TIP3    H242620   3.028   3.268   3.179 -0.3381 -2.5932  1.0348
 7069TIP3   OH242621   1.393   1.748   1.182 -0.3046 -0.5528 -0.0279
 7069TIP3    H142622   1.390   1.654   1.198 -2.2835 -0.9724 -2.4222
 7069TIP3    H242623   1.302   1.777   1.186  0.1671  1.1058 -0.2416
 7070TIP3   OH242624   5.993   3.727  15.851 -0.6079  0.5451 -0.0889
 7070TIP3    H142625   5.915   3.719  15.796 -2.1725 -0.9139  2.1465
 7070TIP3    H242626   5.962   3.774  15.929  0.5443 -0.6784  1.1629
 7071TIP3   OH242627   3.405   1.825  16.495  0.0202 -0.3206  0.9153
 7071TIP3    H142628   3.326   1.851  16.448  0.8431 -0.6996 -0.7609
 7071TIP3    H242629   3.428   1.902  16.547 -0.9960  0.0842  0.7845
 7072TIP3   OH242630   6.328   1.831   5.572 -0.2629  0.5981 -0.2347
 7072TIP3    H142631   6.246   1.871   5.600 -0.1219  0.3913  0.5002
 7072TIP3    H242632   6.348   1.872   5.488 -0.1722  1.9870  0.4418
 7073TIP3   OH242633   1.917   0.342  15.261 -0.5668  0.1317 -0.2540
 7073TIP3    H142634   1.873   0.261  15.288  0.6228 -1.0178 -1.5730
 7073TIP3    H242635   1.936   0.388  15.344  0.6825 -2.0180  0.7512
 7074TIP3   OH242636   5.379   3.916  13.116  0.6642  0.1515  0.0886
 7074TIP3    H142637   5.412   3.910  13.026  1.6662 -1.0143  0.5180
 7074TIP3    H242638   5.346   4.006  13.123  0.2806  0.1703 -1.5286
 7075TIP3   OH242639   4.954   6.130  14.147 -0.3265  0.6931  0.1116
 7075TIP3    H142640   4.899   6.207  14.159 -5.3276 -2.0953 -1.8541
 7075TIP3    H242641   4.936   6.075  14.224  0.5642  0.1043 -0.0828
 7076TIP3   OH242642   3.410   3.541   0.030  0.3838 -0.1693 -0.2693
 7076TIP3    H142643   3.342   3.567  -0.032 -0.0023  0.9685  0.5880
 7076TIP3    H242644   3.481   3.604   0.016  1.4599 -1.5693 -1.4114
 7077TIP3   OH242645   4.710   5.316  13.351 -0.1418  0.2441  0.4574
 7077TIP3    H142646   4.653   5.382  13.390  0.1392 -0.3059  1.8791
 7077TIP3    H242647   4.668   5.233  13.371  0.6287 -0.1115  0.6427
 7078TIP3   OH242648   4.051   2.659   4.025  0.3815 -0.7249 -0.0706
 7078TIP3    H142649   3.994   2.735   4.015  0.7301 -0.0741  2.3410
 7078TIP3    H242650   4.115   2.668   3.955 -0.7034  0.1391 -1.0021
 7079TIP3   OH242651   2.656   4.982  15.199 -0.4697  0.6277 -0.1462
 7079TIP3    H142652   2.608   5.051  15.244 -0.9124 -0.1143  0.5560
 7079TIP3    H242653   2.617   4.901  15.233 -0.7691  0.0435 -1.8026
 7080TIP3   OH242654   0.709   2.083   4.861 -0.7013  0.1865  0.2802
 7080TIP3    H142655   0.660   2.126   4.791 -0.4545  0.4642  0.2737
 7080TIP3    H242656   0.665   1.999   4.874 -0.5137 -0.0333 -0.4775
 7081TIP3   OH242657   0.669   2.766   3.698  0.2279 -0.2167  0.0112
 7081TIP3    H142658   0.671   2.670   3.695 -0.9536 -0.2282 -1.7122
 7081TIP3    H242659   0.745   2.793   3.648  0.5444 -0.2357  0.4722
 7082TIP3   OH242660   0.518   5.438  13.515 -0.4106  0.7823  0.3799
 7082TIP3    H142661   0.613   5.448  13.511 -0.2591 -0.7360 -0.3621
 7082TIP3    H242662   0.484   5.527  13.505  0.9388  1.5888  2.3566
 7083TIP3   OH242663   6.067   2.863   2.822  0.2389 -0.5917  0.0847
 7083TIP3    H142664   6.087   2.915   2.900  0.4967  0.2417 -0.5252
 7083TIP3    H242665   5.974   2.877   2.806 -0.0784 -1.6451  0.8627
 7084TIP3   OH242666   1.593   0.419   0.100  0.1231 -0.2430 -0.2790
 7084TIP3    H142667   1.523   0.455   0.046 -0.5124 -0.0583  0.6541
 7084TIP3    H242668   1.668   0.411   0.040  0.2808  2.5614 -0.5733
 7085TIP3   OH242669   3.886   1.631  13.167  0.0776 -0.5151  0.3193
 7085TIP3    H142670   3.813   1.600  13.113  0.7113  0.3457 -1.0860
 7085TIP3    H242671   3.963   1.586  13.131  0.6290  0.7184 -0.0926
 7086TIP3   OH242672   0.522   5.651   2.819  0.2274 -0.5849 -0.2276
 7086TIP3    H142673   0.461   5.658   2.745 -0.0789 -0.3998  0.0408
 7086TIP3    H242674   0.587   5.720   2.803 -0.0867 -0.2545 -0.0981
 7087TIP3   OH242675   4.473   6.354   5.303 -0.2230 -0.4615 -0.2559
 7087TIP3    H142676   4.439   6.412   5.372  0.3085  0.2621 -0.5889
 7087TIP3    H242677   4.501   6.275   5.350 -0.7338 -0.3568  0.2359
 7088TIP3   OH242678   5.236   2.680  11.447 -0.4472 -0.4468 -0.0381
 7088TIP3    H142679   5.190   2.614  11.499 -0.3426  0.6127  1.4689
 7088TIP3    H242680   5.208   2.664  11.357 -0.7841 -2.2265  0.3463
 7089TIP3   OH242681   4.626   0.121  14.939 -0.4678  0.1222  0.0837
 7089TIP3    H142682   4.639   0.215  14.941  1.3817 -0.1065  2.0949
 7089TIP3    H242683   4.562   0.103  15.008 -2.1844  0.0132 -1.4631
 7090TIP3   OH242684   6.311   2.583   3.568  0.1247 -0.0142  0.4152
 7090TIP3    H142685   6.389   2.527   3.558 -0.2602 -0.7615  1.4621
 7090TIP3    H242686   6.249   2.549   3.503 -0.0703 -0.7634  0.9794
 7091TIP3   OH242687   1.006   5.647  16.352 -0.0151 -0.1344  0.6985
 7091TIP3    H142688   1.044   5.675  16.269 -1.3034 -0.0503  0.1158
 7091TIP3    H242689   1.009   5.725  16.407  1.8769 -0.4742  1.1658
 7092TIP3   OH242690   2.783   4.210   0.786  0.7135  0.6003  0.4390
 7092TIP3    H142691   2.836   4.131   0.775  0.2103  0.2684  0.4118
 7092TIP3    H242692   2.842   4.271   0.830  1.8943  1.0335 -1.6065
 7093TIP3   OH242693   4.686   2.054  16.019 -0.2373  0.4107 -0.0275
 7093TIP3    H142694   4.605   2.031  16.065 -0.4883 -0.2456 -0.7660
 7093TIP3    H242695   4.752   1.995  16.056 -0.3936  0.0253 -0.3555
 7094TIP3   OH242696   6.414   0.879  12.066  0.2128  0.3189  0.3903
 7094TIP3    H142697   6.407   0.972  12.088  0.1666  0.1155  1.2740
 7094TIP3    H242698   6.476   0.843  12.130 -1.1433 -0.6117  1.2405
 7095TIP3   OH242699   0.519   2.713   4.410  0.9370  0.3408 -0.3920
 7095TIP3    H142700   0.543   2.627   4.375 -1.2295  0.3778 -2.1383
 7095TIP3    H242701   0.510   2.769   4.334  2.7006  2.3221  0.7427
 7096TIP3   OH242702   2.723   0.832   1.234  0.2094  0.0381 -0.1600
 7096TIP3    H142703   2.728   0.912   1.181  0.9657  1.1780  1.5353
 7096TIP3    H242704   2.642   0.841   1.283  0.1638 -0.3683 -0.1620
 7097TIP3   OH242705   4.453   3.381   2.665  0.8446 -0.1672  0.4376
 7097TIP3    H142706   4.438   3.288   2.681 -0.2632 -0.1404 -0.2915
 7097TIP3    H242707   4.397   3.426   2.729  1.9225  0.0261  1.2757
 7098TIP3   OH242708   4.417   5.240   1.627  0.4074  0.1047  0.0615
 7098TIP3    H142709   4.371   5.295   1.564 -1.0497 -0.5375  0.4998
 7098TIP3    H242710   4.348   5.213   1.689  1.5724 -0.1598  1.2889
 7099TIP3   OH242711   2.086   0.252  15.435 -0.4217  0.0990 -0.0292
 7099TIP3    H142712   2.152   0.321  15.448  1.2885 -1.1207 -1.7700
 7099TIP3    H242713   2.084   0.238  15.341  0.7472 -3.5394  0.3271
 7100TIP3   OH242714   1.281   6.496   4.709 -0.1368  0.9987  0.4996
 7100TIP3    H142715   1.288   6.550   4.788 -1.1124  0.2981  1.0893
 7100TIP3    H242716   1.199   6.447   4.720  1.5394 -1.9774  0.8800
 7101TIP3   OH242717   3.707   0.633   3.118  0.2658 -0.4753  0.0961
 7101TIP3    H142718   3.795   0.610   3.088  0.8067  1.2170  0.3091
 7101TIP3    H242719   3.669   0.681   3.044  0.2907  0.5989  0.7753
 7102TIP3   OH242720   5.405   2.884  13.471 -0.3440 -0.3118  0.0926
 7102TIP3    H142721   5.383   2.894  13.379  1.8831  0.2358 -0.4436
 7102TIP3    H242722   5.338   2.824  13.505 -1.2125 -0.5461 -1.8612
 7103TIP3   OH242723   0.435   6.146   0.646  0.0998  0.5011 -0.1561
 7103TIP3    H142724   0.503   6.079   0.644 -0.1524  0.2506 -0.6899
 7103TIP3    H242725   0.439   6.187   0.559 -1.9237 -1.0638 -1.0714
 7104TIP3   OH242726   3.644   5.554  11.793  0.4783  0.1418 -0.4172
 7104TIP3    H142727   3.615   5.636  11.833 -0.3903 -0.1688 -0.3930
 7104TIP3    H242728   3.687   5.580  11.712  1.7507  0.7370  0.4140
 7105TIP3   OH242729   6.084   0.932   2.317  0.2270  0.1627 -0.1068
 7105TIP3    H142730   6.165   0.890   2.347 -0.3284 -1.3653 -0.6352
 7105TIP3    H242731   6.094   1.024   2.341  2.0119 -0.0451  0.0465
 7106TIP3   OH242732   2.434   3.690   3.265 -0.2151  0.0845 -0.5223
 7106TIP3    H142733   2.339   3.678   3.265 -0.0596 -1.4345 -1.5777
 7106TIP3    H242734   2.458   3.686   3.173  1.0467 -1.1466 -0.1597
 7107TIP3   OH242735   6.608   4.202  15.032  0.3745  0.2816 -0.5120
 7107TIP3    H142736   6.566   4.284  15.060  0.8660  0.2594  0.3277
 7107TIP3    H242737   6.558   4.174  14.956  0.0697  1.2614 -0.6832
 7108TIP3   OH242738   1.101   5.092  11.707 -0.5185  0.1649 -0.8584
 7108TIP3    H142739   1.025   5.038  11.728 -1.3506  1.4576 -0.4029
 7108TIP3    H242740   1.173   5.054  11.758 -1.2270 -0.1402 -0.0663
 7109TIP3   OH242741   3.366   4.259  16.292 -0.4114 -0.4129  0.4765
 7109TIP3    H142742   3.315   4.220  16.364 -0.1861 -0.5020  0.5884
 7109TIP3    H242743   3.303   4.268  16.220 -1.3301  2.1323  1.4925
 7110TIP3   OH242744   1.498   6.254  15.683  0.1243  0.0880 -0.3742
 7110TIP3    H142745   1.500   6.345  15.653  0.6118  0.1635 -0.1158
 7110TIP3    H242746   1.564   6.209  15.631  0.7810  0.1612  0.3664
 7111TIP3   OH242747   3.251   2.092  14.424 -0.0975  0.2522 -0.4228
 7111TIP3    H142748   3.284   2.156  14.361 -0.9731  0.1928 -0.9565
 7111TIP3    H242749   3.156   2.093  14.413 -0.1167 -1.4256 -0.7368
 7112TIP3   OH242750   2.130   6.632  10.511 -0.0249  0.2695  0.0486
 7112TIP3    H142751   2.121   6.589  10.596  0.9377  1.6947  0.9160
 7112TIP3    H242752   2.053   6.604  10.461 -1.1583  0.2399  1.7566
 7113TIP3   OH242753   1.803   2.125  12.481 -0.6656  0.2490  0.9247
 7113TIP3    H142754   1.745   2.054  12.510 -0.9681  0.3985  0.6997
 7113TIP3    H242755   1.746   2.202  12.479 -0.1785  0.6466  1.8274
 7114TIP3   OH242756   3.476   2.337   0.174 -0.2319 -0.4210 -0.2046
 7114TIP3    H142757   3.405   2.319   0.112 -1.1908  1.5129  0.2433
 7114TIP3    H242758   3.432   2.369   0.253  1.0768 -0.6404  0.6503
 7115TIP3   OH242759   4.251   2.270  11.587 -0.6730  0.2973 -0.0418
 7115TIP3    H142760   4.203   2.330  11.530 -0.6193 -0.2968 -0.7253
 7115TIP3    H242761   4.271   2.322  11.665  0.2971  1.5010 -1.0475
 7116TIP3   OH242762   2.671   5.727   5.065 -0.5353 -0.4775  0.4430
 7116TIP3    H142763   2.606   5.745   4.997 -0.0319  1.2698  0.3630
 7116TIP3    H242764   2.641   5.776   5.141  0.1545 -0.4812  0.7277
 7117TIP3   OH242765   5.416   2.685  14.964 -0.2572  0.5328 -0.1373
 7117TIP3    H142766   5.474   2.632  15.019 -1.7330  0.4607  1.4028
 7117TIP3    H242767   5.425   2.774  14.998 -0.1300  0.7392 -0.6998
 7118TIP3   OH242768   1.720   0.541  16.797 -0.4368  0.3574  0.5034
 7118TIP3    H142769   1.734   0.450  16.825 -1.7861  0.0503  0.2315
 7118TIP3    H242770   1.761   0.593  16.866  0.3250 -0.4450  0.6865
 7119TIP3   OH242771   4.691   0.468   2.858 -0.0755  0.8182  0.5660
 7119TIP3    H142772   4.759   0.441   2.796 -0.0963  1.1301  0.4047
 7119TIP3    H242773   4.647   0.542   2.815 -0.2322  0.8979  0.8584
 7120TIP3   OH242774   1.074   0.846  11.603 -0.4760  0.1501 -0.0499
 7120TIP3    H142775   1.014   0.891  11.662 -0.0905  0.0618  0.4144
 7120TIP3    H242776   1.119   0.916  11.555 -0.7780  0.2214 -0.2309
 7121TIP3   OH242777   2.811   5.568  12.382 -0.1960 -0.1668 -0.7241
 7121TIP3    H142778   2.716   5.570  12.394 -0.3165 -0.3991 -1.5594
 7121TIP3    H242779   2.847   5.584  12.469 -0.9973 -0.4823 -0.3292
 7122TIP3   OH242780   3.635   2.744  11.858 -0.4300 -0.5417 -0.4231
 7122TIP3    H142781   3.726   2.734  11.885 -0.1992  0.2497 -0.8902
 7122TIP3    H242782   3.618   2.667  11.803  0.0943 -0.4404 -0.7248
 7123TIP3   OH242783   1.225   3.726  11.178 -0.1258 -0.0424  0.3874
 7123TIP3    H142784   1.213   3.681  11.261 -1.0259 -0.3186  0.1140
 7123TIP3    H242785   1.153   3.789  11.173 -0.7216 -0.7832 -0.6670
 7124TIP3   OH242786   4.201   0.721  13.811 -0.0250 -0.8342 -0.2474
 7124TIP3    H142787   4.140   0.735  13.883 -0.6266 -0.7271 -0.7648
 7124TIP3    H242788   4.184   0.794  13.751 -0.1956 -1.4341 -0.9432
 7125TIP3   OH242789   5.864   3.767   3.600  0.6182  0.0403 -0.3673
 7125TIP3    H142790   5.936   3.779   3.662 -0.2521 -2.1707  1.1924
 7125TIP3    H242791   5.906   3.768   3.514  2.3239  0.1590  0.4257
 7126TIP3   OH242792   1.637   6.484  12.224  0.5399  0.3053  0.4325
 7126TIP3    H142793   1.604   6.503  12.136 -0.0951 -0.7119  0.4323
 7126TIP3    H242794   1.563   6.442  12.269  0.2750  2.3163  2.0343
 7127TIP3   OH242795   4.150   3.503   2.562 -0.0184  0.2863 -0.0899
 7127TIP3    H142796   4.127   3.560   2.635  1.3830  0.3951  0.3030
 7127TIP3    H242797   4.174   3.564   2.491 -0.8252  0.1798 -0.4637
 7128TIP3   OH242798   4.044   6.415   5.288  0.5494  0.2815 -0.0963
 7128TIP3    H142799   4.065   6.476   5.218  1.2339  0.5192  0.3010
 7128TIP3    H242800   3.961   6.445   5.323  1.3692  1.6267  0.7680
 7129TIP3   OH242801   2.029   4.108   3.753  0.0256 -0.0453 -0.0185
 7129TIP3    H142802   1.970   4.178   3.725 -1.6446 -1.6402 -0.7257
 7129TIP3    H242803   2.099   4.110   3.688 -1.5776 -0.9003 -1.9049
 7130TIP3   OH242804   6.157   4.595  13.886  0.2041  0.0389  0.3749
 7130TIP3    H142805   6.068   4.632  13.891 -0.0557 -0.6646  1.0402
 7130TIP3    H242806   6.155   4.540  13.808  0.5727  1.3246 -0.5880
 7131TIP3   OH242807   4.068   4.121  11.445  0.3607  0.0314 -0.0959
 7131TIP3    H142808   4.009   4.197  11.447  1.6221  1.0855 -0.7494
 7131TIP3    H242809   4.022   4.056  11.393 -0.4408  0.6399 -0.1664
 7132TIP3   OH242810   5.628   3.283  13.384  0.3659  0.0329 -0.0020
 7132TIP3    H142811   5.715   3.264  13.348 -0.0432 -0.9772 -0.5043
 7132TIP3    H242812   5.611   3.374  13.359  1.1085  0.1070 -0.2616
 7133TIP3   OH242813   3.483   5.981  11.552 -0.0720 -0.1612 -0.2248
 7133TIP3    H142814   3.427   6.015  11.482  1.8401  0.8425 -1.3519
 7133TIP3    H242815   3.510   5.894  11.521 -0.8072 -0.5450  0.2060
 7134TIP3   OH242816   6.518   4.206   2.489  0.4842  0.0507  0.4693
 7134TIP3    H142817   6.584   4.137   2.484  1.1230  0.6841 -0.1077
 7134TIP3    H242818   6.449   4.170   2.544  1.6298 -0.3628  1.6686
 7135TIP3   OH242819   1.431   1.724   1.933 -0.2074  0.2102  0.7726
 7135TIP3    H142820   1.471   1.658   1.990 -1.2590 -1.1473  0.0024
 7135TIP3    H242821   1.505   1.774   1.899  0.6643 -0.8658  1.0310
 7136TIP3   OH242822   6.262   3.938  13.555 -0.2645  0.4315  0.0528
 7136TIP3    H142823   6.169   3.956  13.542 -0.5146 -0.4714  0.5259
 7136TIP3    H242824   6.265   3.874  13.625  0.6996  0.1349 -0.2388
 7137TIP3   OH242825   4.009   2.493  15.743  0.2748 -0.0124  0.3042
 7137TIP3    H142826   3.956   2.504  15.663  0.9658 -0.1930 -0.1891
 7137TIP3    H242827   3.950   2.449  15.804 -0.2314  0.0207 -0.1481
 7138TIP3   OH242828   5.908   1.024   1.224  0.1092 -0.1376 -0.1688
 7138TIP3    H142829   5.883   1.087   1.291 -0.4231  0.1264 -0.6127
 7138TIP3    H242830   5.857   1.048   1.147  1.9432  0.6138 -1.2082
 7139TIP3   OH242831   2.257   6.049  14.484 -0.4235 -0.2907  0.4976
 7139TIP3    H142832   2.351   6.069  14.488 -0.5749  1.0308 -1.3606
 7139TIP3    H242833   2.229   6.046  14.575  1.0580  1.2148  1.0525
 7140TIP3   OH242834   3.178   5.796   1.666  0.0707 -0.0686  0.2759
 7140TIP3    H142835   3.158   5.830   1.579  2.3533  0.4716 -0.1038
 7140TIP3    H242836   3.271   5.814   1.678  0.1633 -1.5099  2.2234
 7141TIP3   OH242837   6.678   4.492  15.543 -0.7606 -0.0280 -0.3824
 7141TIP3    H142838   6.728   4.416  15.571 -0.0795  1.3298  2.5020
 7141TIP3    H242839   6.587   4.471  15.565 -0.3216  0.7316  2.6275
 7142TIP3   OH242840   3.287   2.420   1.330  0.1592  0.6386  0.0298
 7142TIP3    H142841   3.327   2.504   1.351  0.2858  0.3401  1.0516
 7142TIP3    H242842   3.193   2.438   1.326  0.1258  0.7209  0.8949
 7143TIP3   OH242843   5.353   5.782   0.877 -0.3387 -0.2062  0.5777
 7143TIP3    H142844   5.288   5.823   0.818  0.1475  0.3962  0.4532
 7143TIP3    H242845   5.405   5.855   0.909  2.7201 -0.9311 -2.2104
 7144TIP3   OH242846   0.577   4.205   5.288  0.5816 -0.2169 -1.1712
 7144TIP3    H142847   0.609   4.267   5.354  1.4292 -0.4907 -1.3134
 7144TIP3    H242848   0.539   4.134   5.340  1.1528 -0.3820 -0.9641
 7145TIP3   OH242849   3.204   2.214   2.224  0.2534 -0.2534  0.4317
 7145TIP3    H142850   3.211   2.263   2.306 -0.8083 -2.5221  1.9870
 7145TIP3    H242851   3.189   2.123   2.251 -0.4833 -1.0488 -2.2933
 7146TIP3   OH242852   3.071   6.202   1.648 -0.6924  0.3695 -0.2497
 7146TIP3    H142853   3.004   6.160   1.703  0.4585 -1.6234 -0.2678
 7146TIP3    H242854   3.055   6.168   1.560  0.9783 -1.0610 -0.0562
 7147TIP3   OH242855   3.900   5.321  15.410  0.3570 -0.0917  0.1883
 7147TIP3    H142856   3.950   5.390  15.453 -2.1786  1.8644  0.2451
 7147TIP3    H242857   3.846   5.367  15.346 -1.5656 -1.9786  0.3404
 7148TIP3   OH242858   1.738   2.147   4.579  0.0742 -0.4124 -0.5598
 7148TIP3    H142859   1.792   2.095   4.520 -0.5834 -1.9480  0.1432
 7148TIP3    H242860   1.787   2.149   4.661 -0.1911 -0.4487 -0.3999
 7149TIP3   OH242861   6.476   4.619  13.474  0.1731  0.3780 -0.7334
 7149TIP3    H142862   6.404   4.560  13.498  2.6470 -1.8325  2.0054
 7149TIP3    H242863   6.498   4.664  13.555  2.3703  0.3824 -1.2780
 7150TIP3   OH242864   0.828   2.869   3.079  0.3503 -0.4314 -0.1459
 7150TIP3    H142865   0.762   2.807   3.112  0.7677  0.0302  1.6585
 7150TIP3    H242866   0.782   2.952   3.072 -0.1608 -0.8486 -2.3921
 7151TIP3   OH242867   5.322   6.349  12.006 -0.1837 -0.3756 -0.3862
 7151TIP3    H142868   5.227   6.357  11.999 -0.3133 -1.7152 -0.3783
 7151TIP3    H242869   5.351   6.434  12.038 -1.6878 -0.7546  2.3099
 7152TIP3   OH242870   3.987   2.268  14.205  0.1238 -0.5049 -0.1689
 7152TIP3    H142871   4.046   2.237  14.136 -0.1799 -1.8747  0.1712
 7152TIP3    H242872   4.024   2.234  14.286 -0.0524  0.3015  0.2658
 7153TIP3   OH242873   6.694   0.011  15.027 -0.2130 -0.7822 -0.0098
 7153TIP3    H142874   6.763   0.018  14.961 -2.0722  0.6485 -1.9124
 7153TIP3    H242875   6.682  -0.083  15.039  1.7123 -1.0593  0.0414
 7154TIP3   OH242876   5.674   5.753  12.632  0.3061  0.2211 -0.3176
 7154TIP3    H142877   5.586   5.719  12.648  0.5226 -1.0020 -1.5101
 7154TIP3    H242878   5.661   5.821  12.565  0.3320 -0.5439 -1.1235
 7155TIP3   OH242879   1.618   1.727  14.397  0.1494  0.8244  0.1603
 7155TIP3    H142880   1.582   1.812  14.422  0.2090  0.5945  1.0635
 7155TIP3    H242881   1.631   1.681  14.480 -2.3949 -1.0968 -0.3690
 7156TIP3   OH242882   5.773   4.045  12.853  0.1455  0.1527 -0.1067
 7156TIP3    H142883   5.690   4.089  12.876  0.3015 -0.4080  1.6809
 7156TIP3    H242884   5.831   4.117  12.828 -0.5952  0.6471 -0.4476
 7157TIP3   OH242885   1.799   1.056   0.371 -0.2823 -0.3231  0.1155
 7157TIP3    H142886   1.767   0.983   0.317  0.4891 -0.4838 -0.1427
 7157TIP3    H242887   1.728   1.073   0.433  0.1389 -2.3802  1.2677
 7158TIP3   OH242888   0.071   2.229  14.003 -0.5281 -0.5685 -0.2970
 7158TIP3    H142889  -0.006   2.173  14.013 -0.7787 -0.2786 -0.6106
 7158TIP3    H242890   0.129   2.203  14.075 -1.7953  0.6363  1.2275
 7159TIP3   OH242891   2.501   6.428  11.227  0.5788 -0.4733 -0.1792
 7159TIP3    H142892   2.471   6.340  11.249 -0.1031  0.1973  1.7575
 7159TIP3    H242893   2.429   6.467  11.178  0.3107 -0.5128  0.1860
 7160TIP3   OH242894   2.335   5.079   0.214  0.2242  0.3478 -0.1042
 7160TIP3    H142895   2.315   5.129   0.293 -4.7706 -0.3614 -0.5959
 7160TIP3    H242896   2.378   4.999   0.246 -1.0932  0.3674  1.8935
 7161TIP3   OH242897   2.156   1.325  12.997 -0.0227 -0.5646  0.1742
 7161TIP3    H142898   2.102   1.383  13.050  0.4527 -0.6374  0.7467
 7161TIP3    H242899   2.161   1.368  12.912  0.2491  0.1885  0.5648
 7162TIP3   OH242900   1.900   0.217   0.419 -0.4397  0.0792 -0.1985
 7162TIP3    H142901   1.857   0.175   0.345 -0.8385  0.1970 -0.0412
 7162TIP3    H242902   1.857   0.303   0.427 -0.7967 -0.1533  0.5076
 7163TIP3   OH242903   5.617   5.880   0.499  0.4023  0.0938 -0.0435
 7163TIP3    H142904   5.553   5.837   0.442  0.2978  0.6423 -0.3431
 7163TIP3    H242905   5.605   5.973   0.483  0.4103  0.2586  0.8380
 7164TIP3   OH242906   4.775   5.959  12.062 -0.1199 -0.0532 -0.4784
 7164TIP3    H142907   4.831   5.911  12.000 -0.7381  1.4693 -2.3145
 7164TIP3    H242908   4.690   5.963  12.019 -0.5510  1.1438  0.4380
 7165TIP3   OH242909   5.778   3.013  11.363 -1.2231 -0.2873  0.3918
 7165TIP3    H142910   5.726   2.988  11.287  1.3685 -0.7869 -1.3541
 7165TIP3    H242911   5.802   3.104  11.346  0.5080 -0.8023 -0.1965
 7166TIP3   OH242912   6.200   1.731  12.063  0.6945 -0.0077  0.1956
 7166TIP3    H142913   6.160   1.756  12.146 -1.4567  1.3356 -1.1528
 7166TIP3    H242914   6.253   1.807  12.038  0.3889  0.0763 -0.2102
 7167TIP3   OH242915   4.366   5.306  10.886  0.1266 -0.1119  0.3406
 7167TIP3    H142916   4.357   5.227  10.940 -1.7325 -0.9108 -1.0692
 7167TIP3    H242917   4.280   5.347  10.889  0.3907  0.5654 -0.9145
 7168TIP3   OH242918   2.753   3.692   0.671 -0.2231 -0.2542 -0.2735
 7168TIP3    H142919   2.816   3.749   0.629  0.6684 -0.7938  0.2958
 7168TIP3    H242920   2.804   3.642   0.735 -1.4248  0.1361  1.0472
 7169TIP3   OH242921   2.082   6.249   4.229  0.3123  0.7913 -1.0055
 7169TIP3    H142922   2.037   6.249   4.314  0.3601 -0.9010 -0.9527
 7169TIP3    H242923   2.019   6.290   4.169  0.2292  1.8996 -0.2043
 7170TIP3   OH242924   4.975   0.364   4.139 -0.0028  0.0821 -0.0473
 7170TIP3    H142925   5.043   0.430   4.131  0.5130 -0.4410 -0.0276
 7170TIP3    H242926   4.984   0.329   4.227 -0.5446  0.2744  0.0887
 7171TIP3   OH242927   1.902   3.219  12.569  0.3413  0.1484  0.0204
 7171TIP3    H142928   1.993   3.239  12.544  0.7286 -2.0907 -0.6262
 7171TIP3    H242929   1.849   3.276  12.514  1.3493  1.0746 -0.0137
 7172TIP3   OH242930   4.033   0.088  15.635 -0.1642 -0.8495  0.2014
 7172TIP3    H142931   4.029   0.003  15.591  0.1979 -0.6597 -0.2099
 7172TIP3    H242932   4.086   0.143  15.577  1.3335 -0.9283  1.4146
 7173TIP3   OH242933   0.803   5.969   4.866 -0.2479 -0.0405  0.0452
 7173TIP3    H142934   0.810   5.954   4.772 -0.2234  0.0438  0.0331
 7173TIP3    H242935   0.856   5.900   4.906  1.1708  0.9631 -0.0665
 7174TIP3   OH242936   5.864   1.346  13.303 -0.0999  0.1621  1.0664
 7174TIP3    H142937   5.891   1.295  13.380  0.9984  1.4063  1.5369
 7174TIP3    H242938   5.782   1.386  13.328 -0.9584 -1.2843  0.7111
 7175TIP3   OH242939   6.189   5.234  16.740 -0.1058 -0.1186 -0.0912
 7175TIP3    H142940   6.140   5.226  16.658  0.1642 -0.4534 -0.2244
 7175TIP3    H242941   6.125   5.214  16.808  0.2542 -2.5561 -0.3432
 7176TIP3   OH242942   0.085   3.953  12.955  0.6683  0.2800  0.2786
 7176TIP3    H142943   0.010   3.912  12.912  0.7215 -0.7326  1.1178
 7176TIP3    H242944   0.053   3.976  13.043  0.8104  1.5397  0.0215
 7177TIP3   OH242945   1.793   6.465  14.996  0.1979  0.4554  0.4195
 7177TIP3    H142946   1.757   6.422  15.074 -0.3453  0.8904  0.4179
 7177TIP3    H242947   1.722   6.521  14.966  0.3487  0.1755 -0.4810
 7178TIP3   OH242948   2.372   3.530   4.695  0.4702 -0.6109  0.2614
 7178TIP3    H142949   2.297   3.584   4.721  0.6532 -1.2966  2.3801
 7178TIP3    H242950   2.419   3.584   4.632 -1.4842  0.0680 -0.7133
 7179TIP3   OH242951   5.620   0.071  11.841  0.5036 -0.0583  0.8206
 7179TIP3    H142952   5.592   0.001  11.782 -0.3867 -0.5803  1.8321
 7179TIP3    H242953   5.546   0.132  11.842  0.4682 -0.1071  1.4782
 7180TIP3   OH242954   0.994   4.552   4.690 -0.5955  0.3690  0.5380
 7180TIP3    H142955   0.949   4.608   4.753  1.0167  1.7320  0.5293
 7180TIP3    H242956   1.087   4.568   4.705 -0.1441  0.0368 -1.5737
 7181TIP3   OH242957   3.502   0.358   4.658  0.1910  0.2930 -0.2808
 7181TIP3    H142958   3.543   0.424   4.601  1.0119 -0.8326 -1.0423
 7181TIP3    H242959   3.506   0.277   4.607 -0.5395 -0.4104  0.7478
 7182TIP3   OH242960   5.229   2.229   3.856 -0.4302 -0.3812  0.4903
 7182TIP3    H142961   5.153   2.287   3.849 -0.8688 -0.4362  3.6340
 7182TIP3    H242962   5.194   2.142   3.836 -0.2829  0.0087 -1.8240
 7183TIP3   OH242963   0.196   4.025   6.234  0.3462 -0.2323 -0.9649
 7183TIP3    H142964   0.286   3.993   6.225  0.5228  0.4169 -1.5803
 7183TIP3    H242965   0.145   3.946   6.254  1.5342 -0.1978  3.0949
 7184TIP3   OH242966   6.647   6.746   5.885  0.0697 -0.4140 -0.4173
 7184TIP3    H142967   6.567   6.793   5.912 -0.2795  0.1064 -2.2368
 7184TIP3    H242968   6.688   6.721   5.968 -0.7426  1.4075  0.6099
 7185TIP3   OH242969   4.797   4.492   0.155  0.0767  0.0449  0.6971
 7185TIP3    H142970   4.728   4.543   0.198  1.1037  1.3195  0.9071
 7185TIP3    H242971   4.878   4.539   0.176  0.7560  0.0895 -1.6810
 7186TIP3   OH242972   2.139   2.213   3.656  0.1723 -0.5502 -0.1259
 7186TIP3    H142973   2.110   2.297   3.690 -2.7231 -0.6669 -1.9906
 7186TIP3    H242974   2.204   2.236   3.589 -1.0297  0.2987 -1.0410
 7187TIP3   OH242975   0.325   2.785   3.150  0.0834  0.2227  0.0094
 7187TIP3    H142976   0.320   2.787   3.246 -0.8348  1.0236 -0.0388
 7187TIP3    H242977   0.298   2.696   3.127 -1.3424  0.5105  0.4420
 7188TIP3   OH242978   2.349   1.885  15.870  0.1205 -0.3144  0.2935
 7188TIP3    H142979   2.267   1.867  15.915 -0.0991 -0.4214 -0.1391
 7188TIP3    H242980   2.322   1.925  15.787  0.5239  0.0997  0.3584
 7189TIP3   OH242981   4.442   3.963  11.673 -0.4567 -0.4379  0.2288
 7189TIP3    H142982   4.362   3.924  11.637  0.0454 -1.2949  0.0105
 7189TIP3    H242983   4.425   3.971  11.767 -0.5664 -1.2287  0.2838
 7190TIP3   OH242984   3.642   2.645   2.801  0.1361  0.0931 -0.3565
 7190TIP3    H142985   3.728   2.650   2.760  0.4221  0.0746  0.2280
 7190TIP3    H242986   3.602   2.731   2.787  2.3978  2.1824  3.9759
 7191TIP3   OH242987   4.434   4.761  13.575 -0.7828  0.5286  0.6794
 7191TIP3    H142988   4.413   4.717  13.658 -1.4559 -0.7222 -0.1183
 7191TIP3    H242989   4.505   4.709  13.538 -0.2173  1.3132  0.6317
 7192TIP3   OH242990   4.215   4.862   5.899  0.1867 -0.5034 -0.8444
 7192TIP3    H142991   4.124   4.886   5.880  0.3668 -0.4414 -1.6635
 7192TIP3    H242992   4.247   4.823   5.817  0.9071 -0.5014 -0.5686
 7193TIP3   OH242993   5.054   5.974   3.008 -0.1418 -0.2732  0.3182
 7193TIP3    H142994   5.044   6.028   2.929  0.4486 -1.6086 -0.7254
 7193TIP3    H242995   5.081   6.036   3.076  1.9421  0.5994 -1.1742
 7194TIP3   OH242996   6.295   3.664   5.594 -0.3033 -0.3167  0.0197
 7194TIP3    H142997   6.238   3.726   5.549 -1.8408 -0.8087  1.2046
 7194TIP3    H242998   6.295   3.586   5.538 -0.9646 -0.3872  0.1141
 7195TIP3   OH242999   6.754   1.669   5.079 -0.6301 -0.3389 -0.2025
 7195TIP3    H143000   6.732   1.742   5.021 -1.7922 -1.3062 -1.0173
 7195TIP3    H243001   6.844   1.687   5.106 -0.4292  0.6919 -1.4590
 7196TIP3   OH243002   2.648   5.691   1.666 -0.7274  0.1675  0.4653
 7196TIP3    H143003   2.730   5.712   1.712 -0.3654  0.5773 -0.3513
 7196TIP3    H243004   2.675   5.633   1.596 -0.9371  1.2953 -0.5824
 7197TIP3   OH243005   1.370   3.779  13.133  0.2978 -0.3015  0.3841
 7197TIP3    H143006   1.336   3.858  13.175  0.3960 -0.2923  0.4446
 7197TIP3    H243007   1.435   3.745  13.194 -1.3816 -1.7244  1.4755
 7198TIP3   OH243008   3.466   6.621  12.183 -0.4709  0.3430 -0.2136
 7198TIP3    H143009   3.438   6.669  12.105 -1.3893  0.4437  0.1607
 7198TIP3    H243010   3.559   6.639  12.190 -0.4573  0.6634 -1.0587
 7199TIP3   OH243011   0.214   1.030   1.717 -0.2844  0.1748  0.3141
 7199TIP3    H143012   0.213   0.988   1.631  0.8980  0.3847  0.1781
 7199TIP3    H243013   0.172   0.966   1.775  2.0556 -1.5356  0.2475
 7200TIP3   OH243014   5.908   2.268  13.264  0.1841  0.3666 -0.0059
 7200TIP3    H143015   5.976   2.315  13.216  0.4129 -0.2391 -0.2919
 7200TIP3    H243016   5.926   2.287  13.356  0.8639  0.0617 -0.0644
 7201TIP3   OH243017   6.358   0.005  15.051 -0.2288 -0.4262  0.6423
 7201TIP3    H143018   6.399  -0.072  15.012  0.3395  0.8626 -1.4527
 7201TIP3    H243019   6.420   0.033  15.119  0.2140 -1.0313  0.4968
 7202TIP3   OH243020   3.999   5.686  15.899  0.0587  0.3201  0.4338
 7202TIP3    H143021   3.993   5.591  15.910  1.0813  0.2223  0.2658
 7202TIP3    H243022   4.088   5.701  15.867 -0.3369  1.2775 -0.2698
 7203TIP3   OH243023   6.735   1.670  11.736 -0.0725 -0.6092 -0.9339
 7203TIP3    H143024   6.731   1.635  11.825  1.5379 -2.1439 -1.4336
 7203TIP3    H243025   6.645   1.698  11.718 -0.4037 -0.0701  1.2158
 7204TIP3   OH243026   4.352   2.311   1.295  0.1789 -0.5963 -0.1531
 7204TIP3    H143027   4.300   2.269   1.363 -1.1150  0.2167 -0.6023
 7204TIP3    H243028   4.401   2.380   1.341 -0.3583 -0.3354  0.0391
 7205TIP3   OH243029   3.319   5.588  13.754  0.2324 -0.2208 -0.0205
 7205TIP3    H143030   3.349   5.511  13.705  0.4656 -0.3338  0.2957
 7205TIP3    H243031   3.363   5.581  13.839  0.6118  0.4967 -0.1457
 7206TIP3   OH243032   4.637   4.617  16.309  0.3758  0.4706  0.0754
 7206TIP3    H143033   4.667   4.640  16.221 -0.5526 -0.4108 -0.5045
 7206TIP3    H243034   4.642   4.521  16.311 -0.9255  0.3877  0.4696
 7207TIP3   OH243035   1.605   6.330   3.763  0.2483 -0.1675 -0.3091
 7207TIP3    H143036   1.587   6.282   3.844 -0.0269 -1.4523 -1.0849
 7207TIP3    H243037   1.519   6.364   3.736  0.3647  0.3805  0.0126
 7208TIP3   OH243038   5.046   0.771  14.391  0.4165 -0.7400  0.2844
 7208TIP3    H143039   4.973   0.719  14.424  0.9104 -0.9178  1.1141
 7208TIP3    H243040   5.071   0.826  14.465  0.7710 -0.2907 -0.1692
 7209TIP3   OH243041   3.135   6.502  11.102  0.5711 -0.1723 -0.2778
 7209TIP3    H143042   3.086   6.444  11.160 -0.4595 -0.7478 -1.6891
 7209TIP3    H243043   3.115   6.591  11.134  0.4635 -0.4878  0.5657
 7210TIP3   OH243044   4.581   2.464  13.618  0.5382  0.1077  0.1819
 7210TIP3    H143045   4.503   2.439  13.667 -0.2282 -3.7105 -2.5287
 7210TIP3    H243046   4.645   2.395  13.636  1.6272  0.7294 -1.0871
 7211TIP3   OH243047   6.202   5.309   0.145 -0.0172 -0.0867 -0.7564
 7211TIP3    H143048   6.212   5.393   0.189 -1.1110 -0.9492  1.2476
 7211TIP3    H243049   6.270   5.253   0.183  0.3734 -0.2786 -1.7058
 7212TIP3   OH243050   3.839   0.139  15.018 -0.9016 -0.0928  0.5574
 7212TIP3    H143051   3.862   0.222  15.060  0.4920 -0.1873  0.0539
 7212TIP3    H243052   3.909   0.079  15.044 -1.1862 -0.7344 -0.1333
 7213TIP3   OH243053   1.553   1.585  12.565  0.3712 -0.6281  0.2814
 7213TIP3    H143054   1.506   1.666  12.586  0.7556 -0.1271 -0.7144
 7213TIP3    H243055   1.549   1.533  12.645 -0.5773  0.0392  0.6815
 7214TIP3   OH243056   4.148   2.804  13.887  0.2493 -0.1260 -0.6146
 7214TIP3    H143057   4.140   2.780  13.980  0.6750 -0.5527 -0.6800
 7214TIP3    H243058   4.239   2.782  13.865 -0.2600 -1.4912 -1.5286
 7215TIP3   OH243059   2.995   4.647  11.738  0.1191  0.3797 -0.0371
 7215TIP3    H143060   2.915   4.698  11.723 -0.7245 -1.3614 -2.0232
 7215TIP3    H243061   2.964   4.556  11.743  1.7548 -0.1373  1.5513
 7216TIP3   OH243062   2.077   1.039  10.939 -0.3485 -0.1758  0.0062
 7216TIP3    H143063   2.030   1.119  10.962  0.7374  0.0444  1.5819
 7216TIP3    H243064   2.055   0.976  11.007  1.2843 -0.1841  0.5757
 7217TIP3   OH243065   6.572   1.962  17.270 -0.7215  0.2771 -0.3526
 7217TIP3    H143066   6.612   1.891  17.320  0.4767  1.4136  0.3729
 7217TIP3    H243067   6.495   1.987  17.321  0.6358  1.6067  1.1687
 7218TIP3   OH243068   2.658   5.266   5.862 -0.2012  0.1139 -0.9303
 7218TIP3    H143069   2.701   5.342   5.824 -0.1607  0.8116  0.4620
 7218TIP3    H243070   2.568   5.272   5.831 -0.1840  0.6869 -0.8805
 7219TIP3   OH243071   5.068   5.800  15.353 -0.4236 -0.8336  0.1291
 7219TIP3    H143072   5.126   5.781  15.280 -2.1014 -0.0944 -1.4860
 7219TIP3    H243073   5.103   5.881  15.392 -0.2106 -0.5368 -0.6648
 7220TIP3   OH243074   2.943   3.173  12.293 -0.0586  0.2406 -0.0809
 7220TIP3    H143075   2.888   3.181  12.216 -0.7912 -1.3007  0.2509
 7220TIP3    H243076   2.971   3.082  12.294  1.0540  0.5584  0.7473
 7221TIP3   OH243077   2.917   4.863   6.427  0.0804 -0.3520 -0.5529
 7221TIP3    H143078   2.821   4.855   6.421 -0.0263 -0.0413  0.6253
 7221TIP3    H243079   2.935   4.951   6.394 -0.0492 -0.3646 -0.6614
 7222TIP3   OH243080   5.218   3.033  14.305  0.0049  0.6830  0.0424
 7222TIP3    H143081   5.215   2.945  14.268  2.2144 -0.2467  1.7745
 7222TIP3    H243082   5.280   3.081  14.249  0.2309  0.5386  0.1657
 7223TIP3   OH243083   4.489   2.694  15.575  0.7554 -0.0186 -0.0600
 7223TIP3    H143084   4.497   2.777  15.529  0.4821  0.2145  0.3033
 7223TIP3    H243085   4.395   2.676  15.576  0.8205 -0.3730 -0.2098
 7224TIP3   OH243086   1.669   0.960   2.979 -0.3362 -0.4965  0.2929
 7224TIP3    H143087   1.640   1.045   2.946 -0.9514 -0.0763  1.8218
 7224TIP3    H243088   1.650   0.963   3.073 -0.1767 -2.2483  0.4157
 7225TIP3   OH243089   6.328   5.732  14.414 -0.0839  0.6886  0.0525
 7225TIP3    H143090   6.419   5.749  14.439 -0.2943  2.2617 -0.1050
 7225TIP3    H243091   6.321   5.764  14.324 -1.0053  1.5005  0.3863
 7226TIP3   OH243092   5.585   4.360  13.235  0.2433 -0.1904  0.5571
 7226TIP3    H143093   5.542   4.315  13.162  0.6128 -0.0203  0.2293
 7226TIP3    H243094   5.678   4.360  13.212  0.2891  0.4508  0.7080
 7227TIP3   OH243095   5.345   5.028  13.532 -0.3841 -0.3440 -0.1723
 7227TIP3    H143096   5.388   5.112  13.544  0.2648 -0.5857 -0.7550
 7227TIP3    H243097   5.276   5.027  13.598  0.4911  0.0525  0.7764
 7228TIP3   OH243098   5.103   4.009   3.131  0.1021  0.3831  0.0671
 7228TIP3    H143099   5.036   3.990   3.197 -0.5340  0.8214 -0.4394
 7228TIP3    H243100   5.073   4.090   3.089  0.8084  0.4332 -0.3616
 7229TIP3   OH243101   2.514   6.180   3.292 -0.2351 -0.0794 -0.1384
 7229TIP3    H143102   2.481   6.154   3.379  0.0099  0.7491  0.2127
 7229TIP3    H243103   2.445   6.237   3.257 -0.5401 -0.7743 -0.6890
 7230TIP3   OH243104   6.593   3.236   2.129 -0.0269 -0.0541  0.1423
 7230TIP3    H143105   6.657   3.289   2.177  0.7190 -0.0442 -0.8264
 7230TIP3    H243106   6.520   3.295   2.113 -0.6624 -0.2758  1.9330
 7231TIP3   OH243107   0.891   2.925   5.136 -0.8485  0.5782 -0.3519
 7231TIP3    H143108   0.961   2.875   5.095 -0.5172  0.9068 -0.1845
 7231TIP3    H243109   0.854   2.865   5.201  1.1538  1.3592  1.6072
 7232TIP3   OH243110   4.573   0.797   4.021 -0.1824 -0.9900 -0.1178
 7232TIP3    H143111   4.649   0.821   4.072 -0.6859  1.7717 -0.5192
 7232TIP3    H243112   4.591   0.831   3.933 -2.0109  0.1382 -0.1084
 7233TIP3   OH243113   2.308   3.250   1.618  0.4349 -0.3784  0.3669
 7233TIP3    H143114   2.339   3.169   1.579 -1.6035 -1.3808  0.7020
 7233TIP3    H243115   2.253   3.222   1.691 -0.0837  1.3087  0.6681
 7234TIP3   OH243116   4.131   1.157  11.458  0.4605 -0.4780  0.5568
 7234TIP3    H143117   4.084   1.077  11.479 -0.2222 -0.3196 -0.3224
 7234TIP3    H243118   4.206   1.127  11.405  0.3052 -0.5584  0.3792
 7235TIP3   OH243119   6.063   3.713  11.234 -0.7293  0.1044 -0.0798
 7235TIP3    H143120   6.014   3.720  11.316  0.3759 -1.3439  0.7606
 7235TIP3    H243121   6.058   3.801  11.196 -0.3841  1.1430  2.0823
 7236TIP3   OH243122   4.881   2.908   3.690 -0.0876  0.2586 -0.2658
 7236TIP3    H143123   4.957   2.958   3.720 -0.4213  0.4216  0.3127
 7236TIP3    H243124   4.870   2.935   3.599  0.0980  0.7952 -0.1358
 7237TIP3   OH243125   3.453   5.761  16.427  0.2515  0.6387  0.3045
 7237TIP3    H143126   3.543   5.738  16.450  0.4038  1.2780  0.3398
 7237TIP3    H243127   3.452   5.761  16.331  0.1787  0.2174  0.3018
 7238TIP3   OH243128   4.814   3.684  14.950 -0.2527 -0.1477  0.0364
 7238TIP3    H143129   4.879   3.743  14.989 -1.1102 -0.1267  1.5158
 7238TIP3    H243130   4.855   3.652  14.870  1.8678 -0.7044  1.2907
 7239TIP3   OH243131   2.337   0.928   0.600  0.2092 -0.1200 -0.0385
 7239TIP3    H143132   2.359   0.835   0.591  1.6562  0.3244 -1.7719
 7239TIP3    H243133   2.243   0.931   0.582  0.1517 -1.2430 -0.0367
 7240TIP3   OH243134   5.912   5.608   2.183  0.2675  0.3804  0.0931
 7240TIP3    H143135   5.871   5.590   2.098 -1.9529  2.3510  0.6421
 7240TIP3    H243136   5.842   5.648   2.235  1.4669 -1.0231  2.9884
 7241TIP3   OH243137   4.755   0.485  16.614 -0.0094  0.5553  0.6092
 7241TIP3    H143138   4.720   0.571  16.639 -0.7670  0.1713  0.8988
 7241TIP3    H243139   4.735   0.428  16.688 -0.2498 -0.0625  0.0841
 7242TIP3   OH243140   2.835   5.869   4.394  0.1689 -0.0312 -0.2915
 7242TIP3    H143141   2.789   5.934   4.446 -0.0139  1.0051 -1.7160
 7242TIP3    H243142   2.802   5.785   4.426 -1.3232  0.6365 -0.0103
 7243TIP3   OH243143   6.044   3.870  16.736  0.5583 -0.0624 -0.0174
 7243TIP3    H143144   6.076   3.920  16.811 -0.9990  1.4651 -0.3082
 7243TIP3    H243145   6.123   3.839  16.692  1.6085  2.1153  0.2175
 7244TIP3   OH243146   5.551   4.464   1.512  0.1626 -0.1667 -0.4744
 7244TIP3    H143147   5.571   4.547   1.554 -0.3579 -0.0393 -0.4740
 7244TIP3    H243148   5.596   4.467   1.428 -0.1634  0.2773 -0.6363
 7245TIP3   OH243149   2.347   3.551  11.670  0.3576 -0.0267 -0.8765
 7245TIP3    H143150   2.324   3.642  11.689 -0.1526 -0.4441  0.5655
 7245TIP3    H243151   2.437   3.542  11.700  0.3103 -0.0826 -0.7531
 7246TIP3   OH243152   1.097   5.980   2.115 -0.7839  0.7561 -0.3642
 7246TIP3    H143153   1.191   5.962   2.109 -0.9119  0.1450 -0.5537
 7246TIP3    H243154   1.060   5.902   2.156 -1.6468 -0.4158 -3.1456
 7247TIP3   OH243155   0.713   3.699  12.210 -0.5454 -0.0447 -0.3299
 7247TIP3    H143156   0.781   3.765  12.220  0.3997 -1.1642  1.1079
 7247TIP3    H243157   0.676   3.689  12.298 -0.5282 -1.5402 -0.4650
 7248TIP3   OH243158   5.722   1.619   3.920 -0.0600  0.7120  0.7491
 7248TIP3    H143159   5.688   1.618   3.831  1.8795 -1.5133 -0.0243
 7248TIP3    H243160   5.678   1.546   3.963  0.3396  0.6880  1.1161
 7249TIP3   OH243161   4.123   3.540  16.156 -0.0532 -0.2353 -0.0398
 7249TIP3    H143162   4.214   3.532  16.126 -0.2220  1.8401 -1.2956
 7249TIP3    H243163   4.091   3.449  16.160  1.4185 -0.8903 -1.6965
 7250TIP3   OH243164   1.220   1.032  15.629  0.0486 -0.7311 -0.4091
 7250TIP3    H143165   1.256   0.946  15.605  0.7809 -0.5518  0.0183
 7250TIP3    H243166   1.159   1.013  15.701  2.1070 -0.6374  1.4464
 7251TIP3   OH243167   1.903   1.142   0.878 -0.3812 -0.1924 -0.0318
 7251TIP3    H143168   1.982   1.194   0.892  0.5455 -1.4234 -0.4457
 7251TIP3    H243169   1.881   1.108   0.965 -0.3466  0.0007  0.0519
 7252TIP3   OH243170   0.939   1.041   5.610  0.4517 -0.1773  0.4271
 7252TIP3    H143171   0.979   1.054   5.524 -0.4307  0.4059  0.0914
 7252TIP3    H243172   0.894   0.956   5.603  1.2721 -0.6402  0.6730
 7253TIP3   OH243173   1.631   6.722   1.071 -0.5074  0.1394 -0.6076
 7253TIP3    H143174   1.678   6.639   1.072 -0.3492  0.2281  0.4501
 7253TIP3    H243175   1.694   6.785   1.035 -0.3707 -0.0430 -0.6912
 7254TIP3   OH243176   4.261   3.674  11.804 -0.0175 -0.6515  0.4592
 7254TIP3    H143177   4.266   3.706  11.894  0.3621  0.0850  0.1868
 7254TIP3    H243178   4.257   3.753  11.751  2.0574 -0.9870 -0.3144
 7255TIP3   OH243179   3.931   3.750  15.098  0.0631  0.2480 -0.1204
 7255TIP3    H143180   3.954   3.708  15.015  0.3051  0.0147  0.0632
 7255TIP3    H243181   3.875   3.687  15.143 -0.9498  0.8002 -0.5507
 7256TIP3   OH243182   4.032   2.382  12.120 -0.0090  0.0565  0.5146
 7256TIP3    H143183   4.106   2.325  12.140 -0.8094 -1.7979 -1.4402
 7256TIP3    H243184   4.016   2.370  12.026 -1.3628  2.1610  0.3972
 7257TIP3   OH243185   4.649   3.343  13.043 -0.2007 -0.5438 -0.2668
 7257TIP3    H143186   4.642   3.438  13.037  0.3376 -0.5945 -2.8145
 7257TIP3    H243187   4.726   3.328  13.097  0.0282  0.4789 -0.2848
 7258TIP3   OH243188   6.632   0.148   3.169  0.0521 -0.1810  0.1449
 7258TIP3    H143189   6.607   0.123   3.080  1.7238 -2.5611  0.2671
 7258TIP3    H243190   6.552   0.139   3.220 -0.2598 -1.7498 -0.5776
 7259TIP3   OH243191   5.337   3.132  13.066 -0.0070 -0.2365  0.2062
 7259TIP3    H143192   5.422   3.103  13.032  0.5988  1.5095  0.1291
 7259TIP3    H243193   5.294   3.174  12.992  0.7492  2.3669  1.1548
 7260TIP3   OH243194   0.222   5.496  11.588  0.3664 -0.5671 -0.2432
 7260TIP3    H143195   0.179   5.486  11.673  0.7827  0.2361  0.0648
 7260TIP3    H243196   0.257   5.584  11.589  1.5145 -1.0024 -0.7285
 7261TIP3   OH243197   3.901   4.900  12.902  0.0253  0.1367 -0.3107
 7261TIP3    H143198   3.979   4.953  12.890 -0.4502  1.4390  1.7059
 7261TIP3    H243199   3.904   4.874  12.995 -1.3529 -0.7168 -0.4776
 7262TIP3   OH243200   2.312   1.217   0.110 -0.2111 -0.1791 -0.2988
 7262TIP3    H143201   2.383   1.229   0.047 -0.8840  1.4595 -0.8062
 7262TIP3    H243202   2.355   1.213   0.195  0.4766  1.1872 -0.5596
 7263TIP3   OH243203   6.250   5.194  15.671  0.2019  0.0986 -0.3356
 7263TIP3    H143204   6.292   5.209  15.586  0.2546  0.2198 -0.2880
 7263TIP3    H243205   6.320   5.204  15.735  0.5048 -1.5195 -0.3755
 7264TIP3   OH243206   5.884   2.211  12.596  0.3062  0.0996 -0.1190
 7264TIP3    H143207   5.882   2.179  12.686 -1.5087 -1.3716 -0.6239
 7264TIP3    H243208   5.812   2.273  12.590  1.3145  1.2894 -0.2066
 7265TIP3   OH243209   0.939   2.809   2.042  0.2605 -0.5878  0.0994
 7265TIP3    H143210   0.897   2.826   2.126 -0.1938  0.5546 -0.3435
 7265TIP3    H243211   0.949   2.895   2.002  0.9025 -1.0685 -0.8186
 7266TIP3   OH243212   4.789   3.070   2.068  0.0595  0.4468  0.1800
 7266TIP3    H143213   4.712   3.126   2.055  0.3118  1.0281  1.1103
 7266TIP3    H243214   4.840   3.080   1.987 -1.4297 -0.9390 -0.9981
 7267TIP3   OH243215   2.482   3.743  15.839 -0.0773 -0.3103 -0.1470
 7267TIP3    H143216   2.415   3.680  15.811 -0.4279 -0.3217  0.6980
 7267TIP3    H243217   2.453   3.773  15.925  0.5820  0.3041 -0.1269
 7268TIP3   OH243218   1.775   2.453   1.940  0.0241  0.0431 -0.4900
 7268TIP3    H143219   1.844   2.453   1.874 -0.0399  0.2698 -0.5548
 7268TIP3    H243220   1.731   2.368   1.928  0.1468 -0.0063 -0.5950
 7269TIP3   OH243221   2.748   5.800   3.376  0.3488  0.7972  0.7207
 7269TIP3    H143222   2.768   5.724   3.430  0.7413 -1.7122 -2.5965
 7269TIP3    H243223   2.653   5.797   3.364  0.5166 -0.3082 -0.7261
 7270TIP3   OH243224   0.132   5.306   1.596 -0.0280  0.6984  1.1791
 7270TIP3    H143225   0.228   5.306   1.597  0.2018 -2.8560 -1.6676
 7270TIP3    H243226   0.108   5.257   1.675  0.5130  0.8844  1.4710
 7271TIP3   OH243227   5.561   3.091   3.042 -0.2044  0.3704  0.5994
 7271TIP3    H143228   5.475   3.070   3.006 -0.4697  1.0018  0.8485
 7271TIP3    H243229   5.617   3.105   2.965 -0.2831 -0.1853  0.4378
 7272TIP3   OH243230   5.057   5.673  11.469 -0.1462  0.4372 -0.4340
 7272TIP3    H143231   4.988   5.608  11.462 -0.1072  0.3220  0.1966
 7272TIP3    H243232   5.054   5.702  11.560 -0.9109  2.1535 -0.9561
 7273TIP3   OH243233   6.705   3.338  11.959 -0.5243 -0.1756  0.3146
 7273TIP3    H143234   6.729   3.425  11.928  0.2100 -0.4851 -0.0157
 7273TIP3    H243235   6.786   3.287  11.953 -0.7575 -0.6747  1.2458
 7274TIP3   OH243236   3.381   5.381   6.315 -0.4834 -0.7658  0.3440
 7274TIP3    H143237   3.299   5.341   6.284 -1.5104 -0.3642  2.3503
 7274TIP3    H243238   3.429   5.309   6.356 -0.7394 -0.6361  0.8821
 7275TIP3   OH243239   0.046   4.911  11.464 -0.8082  0.0610 -0.0959
 7275TIP3    H143240   0.025   4.995  11.424 -3.4589 -0.3233  0.2530
 7275TIP3    H243241  -0.034   4.859  11.452  0.2867 -1.9410  0.8554
 7276TIP3   OH243242   4.589   5.279  17.108 -0.0425  0.5434  0.0111
 7276TIP3    H143243   4.522   5.233  17.158  0.3428  0.7178  0.6934
 7276TIP3    H243244   4.575   5.250  17.018 -2.1230  1.8601 -0.1641
 7277TIP3   OH243245   4.177   2.479   0.909  0.1988 -0.4011  0.2798
 7277TIP3    H143246   4.235   2.403   0.920  0.2142 -0.5353 -0.6997
 7277TIP3    H243247   4.199   2.514   0.823  0.2106  0.7455  0.7321
 7278TIP3   OH243248   4.104   1.780  13.300  0.1512 -0.0534 -0.2818
 7278TIP3    H143249   4.024   1.728  13.301 -1.4097  2.1992 -0.2749
 7278TIP3    H243250   4.101   1.826  13.216  1.9917 -0.6582 -0.7235
 7279TIP3   OH243251   1.117   2.162   1.079  0.3252 -0.0288  0.6617
 7279TIP3    H143252   1.126   2.248   1.119  0.8030  0.3899 -0.3061
 7279TIP3    H243253   1.133   2.178   0.986 -1.0475 -0.9146  0.2569
 7280TIP3   OH243254   1.978   1.470   3.616 -0.7693 -0.3063 -0.6790
 7280TIP3    H143255   1.908   1.465   3.681  0.3610  0.7565  0.6694
 7280TIP3    H243256   2.051   1.509   3.663 -0.0475  0.9226 -2.7290
 7281TIP3   OH243257   0.459   3.090  13.271  0.4166 -0.2236 -0.2233
 7281TIP3    H143258   0.467   3.175  13.229  0.4960 -0.7600 -1.3467
 7281TIP3    H243259   0.526   3.036  13.229  2.7074  0.0163  2.8457
 7282TIP3   OH243260   2.937   4.635  14.860 -0.3081  0.1101 -0.4570
 7282TIP3    H143261   2.970   4.548  14.882 -1.7747 -0.3700 -0.0586
 7282TIP3    H243262   2.994   4.696  14.907  2.3760 -0.4491 -2.7511
 7283TIP3   OH243263   5.613   2.631   2.446 -0.1480 -0.8832 -0.1587
 7283TIP3    H143264   5.606   2.576   2.368 -1.9691  0.5914 -1.1157
 7283TIP3    H243265   5.623   2.570   2.519  1.3440 -2.3039 -1.4792
 7284TIP3   OH243266   0.871   2.508  11.395  0.0190 -0.5532 -0.4854
 7284TIP3    H143267   0.892   2.429  11.345  0.3228 -0.4145 -0.5822
 7284TIP3    H243268   0.956   2.549  11.411  0.0190 -1.0748  0.9445
 7285TIP3   OH243269   1.619   3.586  14.926 -0.3494 -0.0261 -0.3663
 7285TIP3    H143270   1.642   3.495  14.941 -1.4816 -0.2275  0.2871
 7285TIP3    H243271   1.528   3.584  14.896 -0.1988  0.8527 -0.9469
 7286TIP3   OH243272   6.051   0.424  15.316 -0.1755 -0.1289 -0.0999
 7286TIP3    H143273   6.064   0.331  15.301 -0.4648  0.0330 -1.4768
 7286TIP3    H243274   6.014   0.457  15.234 -1.3934  0.9434  0.8300
 7287TIP3   OH243275   3.785   2.216  11.457  0.0615  0.3341 -0.6217
 7287TIP3    H143276   3.811   2.305  11.480 -0.3900 -0.1319  2.0428
 7287TIP3    H243277   3.753   2.179  11.539  1.0821 -2.5945 -1.4177
 7288TIP3   OH243278   3.078   3.787   1.976  0.0830 -0.6124 -0.0263
 7288TIP3    H143279   3.026   3.766   1.899 -0.2661  1.1432 -0.3183
 7288TIP3    H243280   3.014   3.813   2.042  0.4729 -0.5123  0.3194
 7289TIP3   OH243281   5.221   1.884   0.889 -0.3174  1.0401 -0.1926
 7289TIP3    H143282   5.199   1.825   0.817  0.1630  2.1909 -1.3151
 7289TIP3    H243283   5.302   1.848   0.925  0.4032  1.4346 -1.3779
 7290TIP3   OH243284   3.194   1.153  14.838 -0.1696  0.0116 -0.2393
 7290TIP3    H143285   3.170   1.063  14.816 -0.2130  0.2681 -1.2925
 7290TIP3    H243286   3.256   1.178  14.769  0.8033  0.3706  0.7426
 7291TIP3   OH243287   4.150   3.886  14.116  0.3129 -0.2085  0.0371
 7291TIP3    H143288   4.129   3.943  14.042 -1.6178 -1.2591 -0.2747
 7291TIP3    H243289   4.086   3.908  14.183  2.1750  0.8772  1.5576
 7292TIP3   OH243290   4.274   3.380   2.234  0.2989 -0.2699 -0.1913
 7292TIP3    H143291   4.236   3.342   2.313 -0.9692  1.9184  0.3161
 7292TIP3    H243292   4.347   3.321   2.212 -0.9363 -2.3805  1.0713
 7293TIP3   OH243293   5.946   3.811  12.600  0.0511 -0.7967 -0.0684
 7293TIP3    H143294   5.958   3.885  12.542 -0.2771 -1.1763 -0.6269
 7293TIP3    H243295   5.970   3.734  12.548  0.4598 -1.0789  0.5255
 7294TIP3   OH243296   5.453   0.427  12.994 -0.0299  0.3453  0.0347
 7294TIP3    H143297   5.540   0.444  13.030 -0.1565 -0.1038  0.5748
 7294TIP3    H243298   5.430   0.508  12.949  0.9998  0.1864 -0.8281
 7295TIP3   OH243299   1.068   0.450   0.517 -0.2532 -0.5372 -0.1081
 7295TIP3    H143300   1.162   0.446   0.495  0.0021 -2.5304  1.1529
 7295TIP3    H243301   1.032   0.369   0.481 -1.2353 -0.4255  0.6083
 7296TIP3   OH243302   1.961   2.554  11.362  0.0498 -0.6577  0.0442
 7296TIP3    H143303   1.981   2.625  11.302 -1.3489  0.9837  1.3845
 7296TIP3    H243304   2.003   2.579  11.444 -0.6714 -1.2537  0.6165
 7297TIP3   OH243305   2.278   5.786  15.470  0.5921 -0.3136 -0.3818
 7297TIP3    H143306   2.347   5.795  15.536  0.5142 -0.0116 -0.3428
 7297TIP3    H243307   2.250   5.875  15.451 -0.0308 -0.4530 -0.1466
 7298TIP3   OH243308   5.338   3.261   5.122 -0.4262  0.1498  0.0303
 7298TIP3    H143309   5.330   3.166   5.111  2.1764 -0.1697  0.3012
 7298TIP3    H243310   5.407   3.272   5.187 -1.2652  2.2630  0.6532
 7299TIP3   OH243311   0.184   0.991  13.895  0.0648  0.0426  0.5521
 7299TIP3    H143312   0.091   0.986  13.916 -0.3141 -1.3901 -1.2750
 7299TIP3    H243313   0.217   0.903  13.911  0.5892 -0.0635 -0.9756
 7300TIP3   OH243314   3.226   1.964  14.661  0.5391  0.0161 -0.3648
 7300TIP3    H143315   3.215   1.881  14.615  1.9468 -1.1096  1.2367
 7300TIP3    H243316   3.240   2.028  14.591  1.1578 -1.3818 -1.5643
 7301TIP3   OH243317   1.882   4.596   4.930  0.5000 -0.4053  0.3461
 7301TIP3    H143318   1.861   4.678   4.887 -1.9030 -0.5768  1.0562
 7301TIP3    H243319   1.906   4.621   5.019  0.1900 -0.4353  0.4388
 7302TIP3   OH243320   2.617   4.160  13.882  0.7466 -0.6024 -0.2182
 7302TIP3    H143321   2.674   4.085  13.900 -1.3303 -2.4919 -1.0096
 7302TIP3    H243322   2.563   4.168  13.961 -1.0525 -1.9550 -1.2296
 7303TIP3   OH243323   5.981   1.719   0.930  0.1769  0.1132  0.1859
 7303TIP3    H143324   5.939   1.633   0.931  0.7569 -0.1726  1.4990
 7303TIP3    H243325   6.016   1.730   1.018  0.5611  1.4832 -0.1121
 7304TIP3   OH243326   0.683   6.505   4.961 -0.2024  0.6630  0.4689
 7304TIP3    H143327   0.717   6.416   4.959 -1.6666  0.0792  0.1214
 7304TIP3    H243328   0.697   6.534   5.051 -0.0729 -0.0734  0.6912
 7305TIP3   OH243329   4.421   6.598  11.582  0.3977  0.0811  0.1886
 7305TIP3    H143330   4.344   6.577  11.530 -0.0513 -1.2793  1.3482
 7305TIP3    H243331   4.483   6.528  11.564  1.2101  0.9118 -0.3640
 7306TIP3   OH243332   4.183   3.915  13.356 -0.4105 -0.7097 -0.6384
 7306TIP3    H143333   4.102   3.966  13.353  0.4692  0.8492  0.6850
 7306TIP3    H243334   4.253   3.980  13.364  0.8064 -2.0964  0.7454
 7307TIP3   OH243335   4.023   3.950   5.630  0.0160 -0.1200 -0.7493
 7307TIP3    H143336   3.988   4.022   5.577  2.3760  1.3570 -0.4388
 7307TIP3    H243337   3.950   3.888   5.637 -1.8984  1.8999 -1.6142
 7308TIP3   OH243338   2.270   3.719  13.903 -0.7858  0.0441 -0.0660
 7308TIP3    H143339   2.264   3.751  13.993 -1.5415 -0.1266 -0.0496
 7308TIP3    H243340   2.181   3.727  13.868 -0.3175  1.0141 -1.1121
 7309TIP3   OH243341   4.561   5.366  13.911  0.5504  0.0563 -0.0227
 7309TIP3    H143342   4.544   5.403  13.997 -0.6407  0.8816 -0.5729
 7309TIP3    H243343   4.474   5.360  13.870  0.9417 -1.4881 -0.7092
 7310TIP3   OH243344   5.601   1.958   1.973  0.3574 -0.0610  0.2600
 7310TIP3    H143345   5.674   2.007   1.936  0.7798  0.3301  1.5439
 7310TIP3    H243346   5.585   1.887   1.911  0.8570  0.7061 -0.7783
 7311TIP3   OH243347   4.525   1.856   0.675  0.4167 -0.2698  0.3259
 7311TIP3    H143348   4.451   1.796   0.685 -0.8900  1.3514  0.7999
 7311TIP3    H243349   4.581   1.837   0.750 -0.7417  0.1060  1.3110
 7312TIP3   OH243350   4.451   5.362   0.341  0.3979 -0.0111 -0.5324
 7312TIP3    H143351   4.514   5.432   0.355  0.0402 -0.0297  1.3690
 7312TIP3    H243352   4.379   5.403   0.292  0.3704  0.8449  0.2097
 7313TIP3   OH243353   0.606   5.294   6.389  0.2124  0.2961  0.2974
 7313TIP3    H143354   0.696   5.309   6.419 -0.3018  1.4231  1.3808
 7313TIP3    H243355   0.598   5.199   6.385  3.3100 -0.2455 -5.7874
 7314TIP3   OH243356   4.171   3.187   0.219 -0.0216 -0.1914  0.2908
 7314TIP3    H143357   4.099   3.131   0.250  1.0448 -1.7913  0.0228
 7314TIP3    H243358   4.219   3.210   0.299 -1.3965  1.8304  0.6198
 7315TIP3   OH243359   4.826   0.021  10.730 -0.4462  0.2873  0.1297
 7315TIP3    H143360   4.781  -0.043  10.785  1.7704 -0.3606  1.3155
 7315TIP3    H243361   4.803   0.106  10.768 -0.2573 -0.0584  1.0286
 7316TIP3   OH243362   1.147   0.643  12.423 -0.8189 -0.5373 -0.6071
 7316TIP3    H143363   1.121   0.561  12.382 -1.3021 -0.5511 -0.2908
 7316TIP3    H243364   1.239   0.631  12.446 -0.6134 -0.6188 -1.4449
 7317TIP3   OH243365   3.713   2.101   3.084  0.9151  0.3302 -0.2216
 7317TIP3    H143366   3.698   2.156   3.161  0.5818  0.6911 -0.5408
 7317TIP3    H243367   3.669   2.018   3.105 -0.1996  0.8289 -0.4898
 7318TIP3   OH243368   4.655   4.542  12.250 -0.5948  0.2036  0.2575
 7318TIP3    H143369   4.600   4.466  12.268 -2.4432  1.7196  1.4229
 7318TIP3    H243370   4.723   4.539  12.317 -1.0418 -0.0768  0.7030
 7319TIP3   OH243371   5.691   4.657  15.876  0.2018 -0.5407 -0.1789
 7319TIP3    H143372   5.775   4.703  15.874  1.1935 -2.0725  1.7619
 7319TIP3    H243373   5.626   4.726  15.885  1.0001  0.8254 -3.3838
 7320TIP3   OH243374   0.099   1.840   1.034  0.5394 -0.0583  0.6182
 7320TIP3    H143375   0.070   1.929   1.011  0.2438 -0.1333  0.6960
 7320TIP3    H243376   0.039   1.813   1.104 -0.7753 -1.1457 -0.8512
 7321TIP3   OH243377   2.782   3.747   3.841 -0.3025 -0.4413  0.3049
 7321TIP3    H143378   2.715   3.791   3.893 -1.0970 -0.5978 -0.5445
 7321TIP3    H243379   2.865   3.780   3.875 -0.8114 -0.1723  1.3192
 7322TIP3   OH243380   2.714   4.877  16.120 -0.2280 -0.0917  0.2201
 7322TIP3    H143381   2.776   4.911  16.184  0.0216 -1.0083  0.4853
 7322TIP3    H243382   2.628   4.900  16.156 -0.0715  0.0409  0.5175
 7323TIP3   OH243383   5.873   2.431  12.862  0.1636 -0.1023 -0.3363
 7323TIP3    H143384   5.898   2.463  12.775  1.2481 -0.3778 -0.1306
 7323TIP3    H243385   5.956   2.412  12.906 -0.4065 -1.7824  0.0878
 7324TIP3   OH243386   1.919   2.107   5.284  0.2575 -0.3748  0.0305
 7324TIP3    H143387   1.921   2.202   5.285 -1.0071 -0.2321 -2.4333
 7324TIP3    H243388   1.826   2.084   5.289  0.5131 -1.4655  0.1476
 7325TIP3   OH243389   1.402   4.087   0.277  0.0145  0.1424  0.0161
 7325TIP3    H143390   1.436   3.998   0.269 -0.2293 -0.2050  2.1150
 7325TIP3    H243391   1.319   4.085   0.230  0.5943 -0.3663 -1.0209
 7326TIP3   OH243392   6.263   0.941   3.142  0.4580  0.5669 -0.5587
 7326TIP3    H143393   6.197   0.955   3.075  0.7082 -0.3303 -1.0125
 7326TIP3    H243394   6.293   0.851   3.127  0.3415  0.2689  0.9193
 7327TIP3   OH243395   2.251   1.721  14.357  0.0200  0.1411 -0.4370
 7327TIP3    H143396   2.236   1.640  14.405 -0.6791 -0.5586 -1.7756
 7327TIP3    H243397   2.224   1.790  14.417 -2.9107 -0.7932 -0.5215
 7328TIP3   OH243398   2.515   5.557   2.436  0.0816 -0.0407  0.7664
 7328TIP3    H143399   2.438   5.596   2.396  1.1253  1.7872  0.4251
 7328TIP3    H243400   2.537   5.483   2.380 -1.9712 -1.2426  1.4511
 7329TIP3   OH243401   3.852   5.627   0.308 -0.2569 -0.7474  0.0498
 7329TIP3    H143402   3.798   5.573   0.367 -1.2331 -0.0758 -0.2175
 7329TIP3    H243403   3.819   5.716   0.319  1.3305 -0.1763  0.4667
 7330TIP3   OH243404   6.324   2.702   5.727  0.0724 -0.3136 -0.0419
 7330TIP3    H143405   6.252   2.658   5.773 -0.2905  0.5456  0.2424
 7330TIP3    H243406   6.287   2.726   5.642  0.1148 -0.1478 -0.0153
 7331TIP3   OH243407   5.897   3.106   2.532 -0.1751  0.1549 -0.5855
 7331TIP3    H143408   5.829   3.157   2.489 -2.6825 -1.8442  0.7420
 7331TIP3    H243409   5.872   3.015   2.517  2.7838 -0.7382 -0.8176
 7332TIP3   OH243410   3.118   5.452   2.442 -0.0432  0.3768  0.1203
 7332TIP3    H143411   3.135   5.434   2.535  0.4569  1.5072  0.2556
 7332TIP3    H243412   3.023   5.444   2.433 -0.0318 -0.3982  0.5790
 7333TIP3   OH243413   5.247   3.594   5.888  0.2603  0.1268  0.2015
 7333TIP3    H143414   5.242   3.571   5.981  0.1582  1.3927  0.5373
 7333TIP3    H243415   5.244   3.690   5.888  0.9390  0.1657 -1.0718
 7334TIP3   OH243416   0.574   3.220  11.800  0.2768  0.2403  0.0213
 7334TIP3    H143417   0.542   3.132  11.817  0.1535 -0.0518 -1.5676
 7334TIP3    H243418   0.515   3.277  11.851 -1.1034 -0.4635 -0.7117
 7335TIP3   OH243419   1.749   3.360  12.377 -0.9600 -0.3612  0.4480
 7335TIP3    H143420   1.669   3.314  12.353 -0.2180 -0.8759 -1.2340
 7335TIP3    H243421   1.720   3.432  12.434 -2.5315 -0.8582  0.3166
 7336TIP3   OH243422   6.390   5.972  11.847 -0.8284 -0.5873 -0.7104
 7336TIP3    H143423   6.469   5.958  11.899 -2.9636  0.3730  3.1615
 7336TIP3    H243424   6.422   6.010  11.765  2.7358 -1.0794  0.2640
 7337TIP3   OH243425   4.829   5.243   6.038  0.4508  0.0062  0.1288
 7337TIP3    H143426   4.791   5.157   6.054  1.7442 -0.0973  3.4303
 7337TIP3    H243427   4.842   5.280   6.126  0.8221  3.1965 -1.1343
 7338TIP3   OH243428   2.152   0.666  16.621  0.6031 -0.0222  0.1905
 7338TIP3    H143429   2.180   0.744  16.573  1.5344 -0.3696  0.1690
 7338TIP3    H243430   2.194   0.593  16.577 -0.3804 -0.5735  0.1230
 7339TIP3   OH243431   0.145   1.628   6.396  0.4886  0.4979 -0.0952
 7339TIP3    H143432   0.240   1.638   6.385  0.8381  2.2589  3.1686
 7339TIP3    H243433   0.115   1.716   6.418 -1.9936  0.0091 -1.2329
 7340TIP3   OH243434   3.661   5.753  14.587  0.1950 -0.3017 -0.2605
 7340TIP3    H143435   3.702   5.674  14.622  1.1048  0.2443 -0.0720
 7340TIP3    H243436   3.570   5.747  14.615 -0.0707 -1.9211 -1.3583
 7341TIP3   OH243437   2.844   3.900  17.102 -0.3108 -0.5386 -0.2346
 7341TIP3    H143438   2.817   3.970  17.161  0.0423 -0.2446 -0.4114
 7341TIP3    H243439   2.793   3.915  17.022  0.3520  0.0206 -0.5709
 7342TIP3   OH243440   2.330   0.734  14.179  0.3177 -0.1448 -0.2483
 7342TIP3    H143441   2.260   0.728  14.244 -0.5833  0.0303 -1.1815
 7342TIP3    H243442   2.400   0.783  14.224 -0.8790  1.3176  0.0974
 7343TIP3   OH243443   2.782   4.078   2.702  0.7656 -0.2282  0.0885
 7343TIP3    H143444   2.718   4.093   2.771  0.0825 -1.0368 -0.3478
 7343TIP3    H243445   2.785   3.983   2.693  0.2094 -0.1252 -1.5481
 7344TIP3   OH243446   2.967   0.607  11.416 -0.0350 -0.5037 -0.6786
 7344TIP3    H143447   2.967   0.702  11.403  3.2131 -0.5688 -2.2117
 7344TIP3    H243448   2.891   0.590  11.472 -0.8709  2.9422 -0.5568
 7345TIP3   OH243449   5.546   2.406   1.479 -0.5022  0.0567  0.2206
 7345TIP3    H143450   5.589   2.489   1.497 -0.6634  0.0381  0.7143
 7345TIP3    H243451   5.543   2.362   1.564 -0.2958 -0.5125 -0.0640
 7346TIP3   OH243452   1.914   6.332  13.522  0.4218  0.2858 -0.3067
 7346TIP3    H143453   1.942   6.361  13.435  0.6455  1.6475  0.1888
 7346TIP3    H243454   1.893   6.413  13.568  1.0296 -0.3562  1.1578
 7347TIP3   OH243455   0.841   4.861   1.826  0.1814 -0.1619 -0.2950
 7347TIP3    H143456   0.768   4.880   1.767 -0.3427 -0.1556  0.3381
 7347TIP3    H243457   0.799   4.838   1.909  0.9109  0.6191  0.3135
 7348TIP3   OH243458   0.172   4.952   5.204 -0.0168  0.3792 -0.3121
 7348TIP3    H143459   0.125   5.024   5.246 -0.0485  0.1767 -0.0037
 7348TIP3    H243460   0.116   4.925   5.132 -0.9437 -0.6549  0.7661
 7349TIP3   OH243461   6.671   5.175  16.856 -0.8039  0.3099  0.0186
 7349TIP3    H143462   6.611   5.215  16.793  1.5967  2.5520 -1.0580
 7349TIP3    H243463   6.683   5.243  16.923 -1.2207 -0.9996  1.4659
 7350TIP3   OH243464   1.220   3.243  16.487 -0.2680  0.0994  0.0725
 7350TIP3    H143465   1.261   3.322  16.522  0.4885 -0.2852  0.0840
 7350TIP3    H243466   1.238   3.175  16.553  0.0228 -0.3244 -0.4297
 7351TIP3   OH243467   3.103   1.107  12.245  0.4171 -0.3020  0.0487
 7351TIP3    H143468   3.036   1.043  12.221  0.1447 -0.2321  0.6164
 7351TIP3    H243469   3.065   1.157  12.316  0.3496  0.9832 -0.8537
 7352TIP3   OH243470   0.640   4.741  11.675  0.2673  0.3313  0.3846
 7352TIP3    H143471   0.592   4.675  11.625  3.8045 -1.9721 -0.3616
 7352TIP3    H243472   0.675   4.801  11.609  0.3829  0.5848  0.6727
 7353TIP3   OH243473   5.801   4.066   3.587 -0.2217 -0.0854 -0.1881
 7353TIP3    H143474   5.858   4.114   3.526 -1.2364 -0.4769 -1.4872
 7353TIP3    H243475   5.823   3.974   3.573  1.1622 -0.1001  1.7369
 7354TIP3   OH243476   3.989   4.535  12.147 -0.4103  0.1314  0.0730
 7354TIP3    H143477   4.084   4.530  12.136 -0.1378  2.2693  0.9992
 7354TIP3    H243478   3.969   4.465  12.210  0.3597 -1.0154 -0.8991
 7355TIP3   OH243479   3.654   1.760   2.318  0.3601 -0.5456 -0.5358
 7355TIP3    H143480   3.726   1.823   2.317  2.2895 -2.5769  0.7671
 7355TIP3    H243481   3.649   1.727   2.228  1.8296 -1.1543 -0.4157
 7356TIP3   OH243482   3.658   5.332  13.061 -0.4765  0.0699 -0.3156
 7356TIP3    H143483   3.709   5.283  13.125 -1.6197  2.4505  2.6244
 7356TIP3    H243484   3.715   5.404  13.035 -0.8737  0.4500 -0.1352
 7357TIP3   OH243485   2.894   6.094   1.836  0.3257  0.5296 -0.0378
 7357TIP3    H143486   2.825   6.036   1.867  1.2569  0.1342  1.3670
 7357TIP3    H243487   2.864   6.182   1.860 -0.3110  0.5079 -0.6922
 7358TIP3   OH243488   3.954   0.997  11.869 -0.0951 -0.1407  0.0554
 7358TIP3    H143489   4.035   1.043  11.848 -0.6204  1.8550  2.0433
 7358TIP3    H243490   3.969   0.961  11.956 -0.9196 -0.8647 -0.0853
 7359TIP3   OH243491   1.742   6.126  14.768  0.1037  0.0182 -0.4375
 7359TIP3    H143492   1.739   6.031  14.780 -0.3421 -0.0360 -0.9759
 7359TIP3    H243493   1.658   6.157  14.801  0.3463  0.2547 -0.0377
 7360TIP3   OH243494   5.202   0.163  11.268  0.1418 -0.3308  0.2950
 7360TIP3    H143495   5.291   0.194  11.251  0.5099 -0.7886  1.2873
 7360TIP3    H243496   5.199   0.077  11.227 -0.3436  0.2967 -1.0296
 7361TIP3   OH243497   1.666   1.215   0.601  0.5116 -0.3863 -0.5292
 7361TIP3    H143498   1.629   1.128   0.584 -0.1172 -0.4090  0.8362
 7361TIP3    H243499   1.645   1.232   0.693 -0.1740  1.6008 -1.0221
 7362TIP3   OH243500   0.749   3.931   3.194 -0.1213 -0.0580  0.3233
 7362TIP3    H143501   0.759   3.966   3.282  2.4164  1.7998 -0.5598
 7362TIP3    H243502   0.673   3.977   3.158  1.4080  2.5692  0.1823
 7363TIP3   OH243503   2.982   2.147   4.681  0.7794  0.6759  0.2763
 7363TIP3    H143504   2.900   2.182   4.716 -0.0898 -0.4732 -0.5402
 7363TIP3    H243505   3.048   2.210   4.709 -0.1723  0.9442  2.0857
 7364TIP3   OH243506   2.579   1.856   2.343 -0.0406 -0.1968  0.8049
 7364TIP3    H143507   2.651   1.818   2.293 -0.3587  0.3887 -0.1285
 7364TIP3    H243508   2.616   1.872   2.429  0.2331 -2.1780  1.1089
 7365TIP3   OH243509   3.864   4.239  14.633  0.0780 -0.2194 -0.0300
 7365TIP3    H143510   3.831   4.235  14.723 -0.4189 -0.7217 -0.2225
 7365TIP3    H243511   3.918   4.317  14.630  4.1557 -2.6167  2.0735
 7366TIP3   OH243512   4.663   3.776   0.832 -0.1213  0.1879  0.1572
 7366TIP3    H143513   4.715   3.715   0.778 -0.1831 -1.2126  1.6096
 7366TIP3    H243514   4.719   3.796   0.907 -0.0646  2.0665 -0.3382
 7367TIP3   OH243515   6.371   1.326   5.406  0.5410 -0.1974  0.1197
 7367TIP3    H143516   6.416   1.273   5.472  0.9318  0.7538  0.6382
 7367TIP3    H243517   6.278   1.308   5.420  0.7122 -2.0221 -0.8252
 7368TIP3   OH243518   5.038   3.407   0.999 -0.1327  0.2120 -0.2804
 7368TIP3    H143519   5.105   3.441   0.940 -0.1849 -0.8886 -1.0110
 7368TIP3    H243520   5.060   3.315   1.010  0.2417  0.5320  1.9850
 7369TIP3   OH243521   0.206   2.533   3.074 -0.1336 -0.0334  0.4503
 7369TIP3    H143522   0.138   2.504   3.014  0.1000  0.0510  0.1407
 7369TIP3    H243523   0.272   2.464   3.072 -0.0717  0.0228  0.5197
 7370TIP3   OH243524   4.037   4.410   1.833  0.9039  0.0484 -0.0883
 7370TIP3    H143525   3.993   4.380   1.913  0.4228  2.6399  0.7111
 7370TIP3    H243526   4.130   4.399   1.851  0.7557 -1.3244 -0.0399
 7371TIP3   OH243527   3.784   4.245   5.142  0.3034 -0.2782 -0.3853
 7371TIP3    H143528   3.770   4.338   5.125 -1.0651 -0.1922  1.0362
 7371TIP3    H243529   3.878   4.233   5.137  0.5581  1.3468  0.2089
 7372TIP3   OH243530   2.304   2.567  15.119 -0.6501  0.1714 -0.2332
 7372TIP3    H143531   2.324   2.480  15.084  1.3646  0.4504  0.0763
 7372TIP3    H243532   2.230   2.553  15.178 -1.5779 -0.9708 -1.5991
 7373TIP3   OH243533   5.199   1.851  15.015 -0.1879 -0.0872 -0.2959
 7373TIP3    H143534   5.162   1.939  15.023  0.8543  0.2659  0.9620
 7373TIP3    H243535   5.135   1.795  15.059 -0.6590  0.0812 -0.7493
 7374TIP3   OH243536   0.966   4.344  11.376 -0.2853  0.2767  0.3648
 7374TIP3    H143537   0.874   4.345  11.405 -0.4263 -0.2363 -0.0433
 7374TIP3    H243538   0.986   4.436  11.357 -0.5969  0.4432  0.8184
 7375TIP3   OH243539   1.512   3.540   5.553  0.0158 -0.3047  0.1062
 7375TIP3    H143540   1.586   3.597   5.574  0.0805 -0.0855 -0.6577
 7375TIP3    H243541   1.504   3.481   5.628  1.3639 -0.7505 -0.0725
 7376TIP3   OH243542   6.157   6.137  11.372  0.6213 -0.0113 -0.0262
 7376TIP3    H143543   6.172   6.110  11.282  0.8773 -0.2730  0.0930
 7376TIP3    H243544   6.217   6.210  11.386 -0.8645  1.3967 -0.7017
 7377TIP3   OH243545   3.234   3.610   1.795  0.3917 -0.3455  0.2669
 7377TIP3    H143546   3.178   3.533   1.793 -2.3515  1.4970 -0.6566
 7377TIP3    H243547   3.226   3.644   1.884 -0.3649  0.1353  0.0289
 7378TIP3   OH243548   3.699   3.595   3.776 -0.4605 -0.1598 -0.0993
 7378TIP3    H143549   3.692   3.670   3.717 -0.2255  1.3766  1.7250
 7378TIP3    H243550   3.794   3.581   3.785 -0.4515  0.5305  0.9829
 7379TIP3   OH243551   3.906   0.993   6.747  0.2344 -0.1796  0.4098
 7379TIP3    H143552   3.998   0.967   6.754  0.2780 -0.9387 -2.2187
 7379TIP3    H243553   3.875   0.955   6.665 -2.0349  1.3079  0.4586
 7380TIP3   OH243554   5.405   2.489   4.089 -0.6483 -0.1294  0.7203
 7380TIP3    H143555   5.483   2.532   4.123  0.2134 -1.1009  0.0242
 7380TIP3    H243556   5.351   2.561   4.056  0.2342  0.5131  0.6298
 7381TIP3   OH243557   1.805   5.885  14.452 -0.0227 -0.2247 -0.0383
 7381TIP3    H143558   1.890   5.857  14.419  1.7488  2.5839  1.6400
 7381TIP3    H243559   1.792   5.834  14.532 -0.2731 -1.1053 -0.6255
 7382TIP3   OH243560   1.694   3.118   0.310 -0.1168 -0.0836  0.3676
 7382TIP3    H143561   1.669   3.027   0.323  2.8565 -0.9265  0.8880
 7382TIP3    H243562   1.716   3.150   0.397 -1.8636  1.4375  0.3104
 7383TIP3   OH243563   0.471   5.668   6.005  0.3884  0.1552 -0.0685
 7383TIP3    H143564   0.495   5.576   6.020 -1.9202 -0.9084 -2.2804
 7383TIP3    H243565   0.443   5.699   6.091 -2.0648 -2.3333  0.1696
 7384TIP3   OH243566   1.687   0.330  15.485  0.4032  0.3281  0.3034
 7384TIP3    H143567   1.771   0.326  15.530  0.0372 -0.7494  0.9153
 7384TIP3    H243568   1.659   0.239  15.479 -1.1314  0.7361  0.9122
 7385TIP3   OH243569   5.915   3.541  15.521  0.7015  0.1560  0.0838
 7385TIP3    H143570   5.831   3.552  15.567  0.9814  1.8363  0.2867
 7385TIP3    H243571   5.902   3.465  15.465 -0.7321 -0.0338  0.6199
 7386TIP3   OH243572   0.610   2.946   0.504 -0.5404 -0.0378 -0.1970
 7386TIP3    H143573   0.525   2.965   0.466  0.3335  1.5498 -1.4779
 7386TIP3    H243574   0.659   2.904   0.433 -0.0581 -0.3657  0.3227
 7387TIP3   OH243575   3.874   0.156  12.426  0.4821 -0.1248  0.7715
 7387TIP3    H143576   3.936   0.229  12.423 -0.0463  0.3336  0.8655
 7387TIP3    H243577   3.885   0.119  12.514 -0.2692  0.7516  1.2476
 7388TIP3   OH243578   5.222   6.553   3.809 -0.3193  0.0757  0.3397
 7388TIP3    H143579   5.158   6.533   3.740  0.1753  0.8971 -0.3791
 7388TIP3    H243580   5.178   6.527   3.890 -1.4582  0.3291 -0.1654
 7389TIP3   OH243581   2.537   2.985  10.456 -0.2304  0.0267 -0.0800
 7389TIP3    H143582   2.444   2.964  10.456 -0.3975  0.7415 -0.5007
 7389TIP3    H243583   2.567   2.963  10.368  0.3464 -1.6087  0.4748
 7390TIP3   OH243584   3.303   5.626  14.305 -0.0465  0.2785  1.0553
 7390TIP3    H143585   3.347   5.688  14.246  1.3522 -0.7053  1.0192
 7390TIP3    H243586   3.315   5.664  14.392  1.1878 -0.1196  1.0805
 7391TIP3   OH243587   3.014   2.668  13.504 -0.4071  0.0227  0.2787
 7391TIP3    H143588   3.024   2.573  13.506  1.4924  0.1756 -0.1614
 7391TIP3    H243589   3.099   2.702  13.532 -1.1787  1.6032  0.8376
 7392TIP3   OH243590   2.980   0.489  12.374  0.0901  0.6141 -0.3219
 7392TIP3    H143591   2.949   0.541  12.449  1.4302  0.5469  0.3197
 7392TIP3    H243592   2.926   0.518  12.301  0.0996  2.1669  0.2397
 7393TIP3   OH243593   3.566   4.998   4.055 -0.3635  0.1934  0.1649
 7393TIP3    H143594   3.647   5.047   4.038  1.2982 -2.0887  1.0854
 7393TIP3    H243595   3.542   4.960   3.971  1.1419 -1.3575  0.3792
 7394TIP3   OH243596   1.156   6.583  17.265  0.7265  0.3150  0.0803
 7394TIP3    H143597   1.064   6.580  17.236  0.5890 -1.7172  0.5337
 7394TIP3    H243598   1.173   6.675  17.281 -0.6608  0.9718 -1.8255
 7395TIP3   OH243599   0.267   6.446  14.111  0.1091 -0.3700  0.7407
 7395TIP3    H143600   0.299   6.468  14.024 -0.9197 -2.4007 -0.2289
 7395TIP3    H243601   0.308   6.361  14.131 -1.9404 -1.3952  0.8719
 7396TIP3   OH243602   4.346   4.189  11.524 -0.2371  0.0208 -0.0666
 7396TIP3    H143603   4.266   4.159  11.483 -0.9110 -0.0599  1.2443
 7396TIP3    H243604   4.374   4.115  11.579 -0.6263  0.8877  1.3660
 7397TIP3   OH243605   5.389   4.258   0.619 -0.2638 -0.3741  0.2388
 7397TIP3    H143606   5.351   4.192   0.677  0.6947  0.5523  1.9947
 7397TIP3    H243607   5.483   4.258   0.639 -0.1919  1.3180  0.1104
 7398TIP3   OH243608   3.918   4.093   4.574  0.5344  0.3662  0.0223
 7398TIP3    H143609   3.854   4.132   4.514  0.0048  0.7961  0.8614
 7398TIP3    H243610   3.928   4.003   4.543  1.7454  1.0980 -1.9241
 7399TIP3   OH243611   6.174   3.106  16.046 -0.2725 -0.3196  0.0099
 7399TIP3    H143612   6.136   3.092  15.959 -0.4122  0.5996 -0.0810
 7399TIP3    H243613   6.249   3.046  16.048 -0.4270 -0.5518 -0.6355
 7400TIP3   OH243614   5.459   1.341   1.642  0.4914  0.5110  0.0993
 7400TIP3    H143615   5.482   1.342   1.735 -0.7604 -1.3033  0.4888
 7400TIP3    H243616   5.518   1.277   1.603 -1.4859 -1.6536  0.4599
 7401TIP3   OH243617   3.481   5.329   2.637  0.0638  0.5011  0.3210
 7401TIP3    H143618   3.421   5.379   2.692 -2.2031 -1.6048 -0.0169
 7401TIP3    H243619   3.434   5.317   2.555 -0.1880 -3.0815  0.7846
 7402TIP3   OH243620   5.670   4.601  12.243 -0.1732 -0.2547 -0.0338
 7402TIP3    H143621   5.692   4.613  12.150 -1.1187  0.4555 -0.1714
 7402TIP3    H243622   5.691   4.685  12.284  3.2358 -1.4600  1.0555
 7403TIP3   OH243623   5.400   0.689  12.878 -0.0152  0.3974 -0.1148
 7403TIP3    H143624   5.368   0.718  12.793  0.4870 -0.0904 -0.4781
 7403TIP3    H243625   5.493   0.712  12.878  0.5028 -1.4855 -0.5703
 7404TIP3   OH243626   2.691   0.797  16.197  0.2609  0.7559  0.2037
 7404TIP3    H143627   2.749   0.815  16.123  1.6872  1.2816  1.3878
 7404TIP3    H243628   2.649   0.880  16.216  0.7629  0.9075  0.6777
 7405TIP3   OH243629   4.812   6.552  14.961 -0.0525  0.0589 -0.2231
 7405TIP3    H143630   4.861   6.540  15.043 -1.6237 -1.1232  0.6022
 7405TIP3    H243631   4.724   6.577  14.990 -1.4710 -3.1570 -1.3499
 7406TIP3   OH243632   2.753   1.752   3.011  0.2926 -0.2027  0.1181
 7406TIP3    H143633   2.694   1.757   3.086  1.6935  2.2680  1.1882
 7406TIP3    H243634   2.780   1.660   3.008 -1.0984 -0.7007  1.5826
 7407TIP3   OH243635   3.501   1.210   5.786  0.2980 -0.2567 -0.0144
 7407TIP3    H143636   3.494   1.304   5.766  1.4524 -0.2537 -0.4585
 7407TIP3    H243637   3.595   1.194   5.795  0.0448 -1.1493  1.2189
 7408TIP3   OH243638   4.254   1.873  10.558  0.2616  0.3892 -0.0191
 7408TIP3    H143639   4.222   1.905  10.474 -0.0254  2.3373  0.7875
 7408TIP3    H243640   4.348   1.892  10.558  0.1900  0.7566  0.2488
 7409TIP3   OH243641   6.233   6.154  14.215  0.2445  0.2891 -0.2865
 7409TIP3    H143642   6.317   6.198  14.227  0.0714  0.1698  1.6652
 7409TIP3    H243643   6.251   6.084  14.153  2.0148 -0.7950  1.3338
 7410TIP3   OH243644   2.316   5.339  14.381 -0.1109  0.6137 -0.4438
 7410TIP3    H143645   2.356   5.366  14.463 -2.4662 -1.3935  1.5541
 7410TIP3    H243646   2.258   5.412  14.358 -0.9295  0.3992  0.8290
 7411TIP3   OH243647   1.949   4.241  17.285  0.0285  0.4118 -0.1570
 7411TIP3    H143648   1.874   4.256  17.227  1.2648  0.9477 -1.6867
 7411TIP3    H243649   1.960   4.324  17.331 -1.0979 -0.0864  1.0891
 7412TIP3   OH243650   4.537   5.691   0.557  0.3993  0.2882 -0.2642
 7412TIP3    H143651   4.541   5.703   0.462  1.0005  2.7844  0.0030
 7412TIP3    H243652   4.445   5.670   0.574  0.5846 -1.7446 -1.4953
 7413TIP3   OH243653   4.563   5.754   2.432  0.4404  0.3929 -0.1785
 7413TIP3    H143654   4.610   5.836   2.418  1.1767 -0.1327 -0.8973
 7413TIP3    H243655   4.615   5.688   2.385  0.8235 -0.7820  1.7811
 7414TIP3   OH243656   4.328   3.671   5.049 -0.4322  0.6429 -0.1127
 7414TIP3    H143657   4.273   3.602   5.085 -0.9786  1.2960  0.3236
 7414TIP3    H243658   4.390   3.691   5.119  0.9111 -0.6237 -0.8649
 7415TIP3   OH243659   0.197   2.237  12.789  0.7910 -0.3837  0.8000
 7415TIP3    H143660   0.205   2.320  12.837 -0.1129 -0.2833  0.8025
 7415TIP3    H243661   0.113   2.201  12.818  0.8570 -0.9700  0.2855
 7416TIP3   OH243662   4.820   0.764   5.364  0.3505  0.7879  0.2209
 7416TIP3    H143663   4.727   0.765   5.387  1.0311  0.0796  3.5131
 7416TIP3    H243664   4.844   0.671   5.363  1.1881  0.9908  0.2666
 7417TIP3   OH243665   1.226   4.159  12.193 -0.0418 -0.0897 -0.2785
 7417TIP3    H143666   1.306   4.206  12.170 -0.4955  0.9438  0.1804
 7417TIP3    H243667   1.253   4.099  12.262  0.1156  1.1951  0.8350
 7418TIP3   OH243668   5.682   2.642  14.172  0.3123 -0.9484  0.3460
 7418TIP3    H143669   5.702   2.673  14.084 -0.3446 -2.2916 -0.3057
 7418TIP3    H243670   5.765   2.646  14.219  0.7541 -0.6238 -0.4574
 7419TIP3   OH243671   2.899   5.004  16.310 -0.4489  0.7169  0.0034
 7419TIP3    H143672   2.989   5.037  16.310 -0.3610  0.5179  0.8510
 7419TIP3    H243673   2.901   4.932  16.373 -0.7824 -0.4863 -1.3089
 7420TIP3   OH243674   5.382   3.311   2.319 -0.1730 -0.3437  0.5217
 7420TIP3    H143675   5.296   3.353   2.314  1.1379  2.4212 -1.6444
 7420TIP3    H243676   5.427   3.357   2.390  1.2434  2.1822 -1.8114
 7421TIP3   OH243677   5.729   0.854  15.495  0.5453 -0.0448 -0.1693
 7421TIP3    H143678   5.638   0.854  15.524  0.9491 -1.0997  1.2456
 7421TIP3    H243679   5.738   0.774  15.443  1.3836 -1.8028  2.4546
 7422TIP3   OH243680   4.134   3.521   5.155  0.2384 -0.0865  0.3267
 7422TIP3    H143681   4.052   3.472   5.148  0.3871 -0.3581  0.4667
 7422TIP3    H243682   4.122   3.578   5.232 -0.3273  0.8569 -0.4475
 7423TIP3   OH243683   4.179   4.344   0.069 -0.6817 -0.0196 -0.0143
 7423TIP3    H143684   4.273   4.358   0.084 -0.2576 -1.9238 -0.6742
 7423TIP3    H243685   4.160   4.391  -0.012 -0.1004 -0.3664 -0.3508
 7424TIP3   OH243686   5.537   3.222   6.263 -0.5285 -0.8220 -0.0034
 7424TIP3    H143687   5.522   3.175   6.181  0.0503 -1.1373  0.0638
 7424TIP3    H243688   5.614   3.179   6.301  0.0120  0.1701  0.0589
 7425TIP3   OH243689   0.802   0.341   6.039  0.0854 -1.0437  0.5418
 7425TIP3    H143690   0.732   0.302   5.986 -0.8847  0.0415  0.9849
 7425TIP3    H243691   0.802   0.434   6.014  0.7462 -0.8482  1.2399
 7426TIP3   OH243692   6.727   2.467  17.150 -0.0690  0.2277 -0.1073
 7426TIP3    H143693   6.735   2.460  17.245 -1.2058 -2.4897 -0.1235
 7426TIP3    H243694   6.721   2.561  17.133  0.1196  0.7816  2.4829
 7427TIP3   OH243695   3.004   5.211  12.505 -0.0539 -0.5388  0.0738
 7427TIP3    H143696   3.032   5.171  12.588 -0.3359  0.3220  0.6006
 7427TIP3    H243697   3.079   5.264  12.477 -0.2740 -0.1403  0.2340
 7428TIP3   OH243698   2.412   0.765  15.370  0.5311 -0.4629 -0.5821
 7428TIP3    H143699   2.472   0.726  15.434  0.4379 -0.1863 -0.3235
 7428TIP3    H243700   2.381   0.691  15.318  1.9292 -0.4950 -1.4222
 7429TIP3   OH243701   4.412   5.494  12.675  0.2799 -0.0785 -0.1446
 7429TIP3    H143702   4.395   5.500  12.581  0.7939 -0.5161 -0.2714
 7429TIP3    H243703   4.496   5.539  12.688  0.3397 -0.2425  0.0606
 7430TIP3   OH243704   2.541   0.946  15.859 -0.5087  0.0057  0.6125
 7430TIP3    H143705   2.530   0.945  15.764  0.6536  0.0373  0.4635
 7430TIP3    H243706   2.452   0.939  15.894 -0.8817 -0.8259 -0.4710
 7431TIP3   OH243707   5.215   3.896   5.784 -0.2105 -0.1442  0.0799
 7431TIP3    H143708   5.148   3.887   5.717 -1.4630  0.9922  1.1153
 7431TIP3    H243709   5.169   3.881   5.867  0.5488  1.6316  0.8878
 7432TIP3   OH243710   1.663   6.339  15.202 -0.2901  0.0733  0.0986
 7432TIP3    H143711   1.572   6.313  15.191 -0.6261  0.7571  1.2327
 7432TIP3    H243712   1.691   6.297  15.283  0.3766 -0.0429 -0.1804
 7433TIP3   OH243713   1.756   4.100   5.221 -0.1934  0.8240  0.2953
 7433TIP3    H143714   1.811   4.164   5.266 -2.3282  1.0405  2.8741
 7433TIP3    H243715   1.719   4.047   5.291 -1.5562 -0.7093 -1.4809
 7434TIP3   OH243716   4.019   1.477   2.190  0.3495 -0.2212  0.3130
 7434TIP3    H143717   3.938   1.476   2.139  1.6522  2.0387 -2.0659
 7434TIP3    H243718   4.002   1.539   2.260 -0.2276 -0.3579  0.3025
 7435TIP3   OH243719   0.220   2.962  12.007  0.3788  0.0004 -0.1035
 7435TIP3    H143720   0.193   3.018  11.934 -0.7395 -1.8848 -1.2076
 7435TIP3    H243721   0.302   3.000  12.037 -0.2568  2.1437 -0.8599
 7436TIP3   OH243722   4.372   1.565  11.158 -0.0271 -0.0269 -0.7131
 7436TIP3    H143723   4.315   1.491  11.137 -0.3730  0.5857 -2.0287
 7436TIP3    H243724   4.433   1.571  11.084  1.0836 -0.0181  0.1704
 7437TIP3   OH243725   3.206   5.379  12.449 -0.2256 -0.0960 -0.2331
 7437TIP3    H143726   3.153   5.402  12.373  0.0882  0.7171 -0.2091
 7437TIP3    H243727   3.291   5.419  12.433  0.0762 -0.5500  0.1990
 7438TIP3   OH243728   2.111   2.891  12.595  0.3037  0.0035 -0.2873
 7438TIP3    H143729   2.045   2.915  12.530  0.3729  1.7307  0.2118
 7438TIP3    H243730   2.193   2.921  12.557  0.3263  1.1710  0.6195
 7439TIP3   OH243731   3.177   2.465   3.417 -0.0668  0.1749 -0.1449
 7439TIP3    H143732   3.145   2.375   3.415 -1.5806  0.6462  1.0035
 7439TIP3    H243733   3.211   2.476   3.505  2.0325  0.1432 -0.9004
 7440TIP3   OH243734   2.450   2.036  14.824  0.2841 -0.1596  0.1891
 7440TIP3    H143735   2.476   1.944  14.834  0.3429 -0.1436  0.1831
 7440TIP3    H243736   2.386   2.051  14.894 -0.8195 -0.6117 -0.6953
 7441TIP3   OH243737   0.913   0.687   1.130  0.0992 -0.5544  0.4186
 7441TIP3    H143738   0.964   0.608   1.109  1.2502  0.4657 -0.7533
 7441TIP3    H243739   0.827   0.671   1.091  0.2022 -1.3697  0.5077
 7442TIP3   OH243740   3.360   0.465  13.580 -0.2829  0.4326  0.4353
 7442TIP3    H143741   3.375   0.546  13.531  0.1243 -0.3475 -0.7788
 7442TIP3    H243742   3.448   0.434  13.603 -0.4482  0.4796  1.1623
 7443TIP3   OH243743   2.232   6.742   0.862 -0.0014 -0.8476  0.5127
 7443TIP3    H143744   2.277   6.742   0.778 -1.9776 -1.3689 -0.6022
 7443TIP3    H243745   2.183   6.824   0.863  1.0477 -0.1938  1.7994
 7444TIP3   OH243746   1.262   4.607   4.924 -0.6488 -0.1579 -0.0988
 7444TIP3    H143747   1.349   4.618   4.963 -0.4285  0.0566 -0.6445
 7444TIP3    H243748   1.273   4.538   4.858 -1.1654 -0.9708  0.6437
 7445TIP3   OH243749   1.729   2.168   0.904 -0.2307 -0.0112 -0.3116
 7445TIP3    H143750   1.768   2.121   0.831 -1.8787  0.2838 -1.4570
 7445TIP3    H243751   1.759   2.259   0.893 -0.3204 -0.0061 -0.5212
 7446TIP3   OH243752   0.122   3.367  11.505  0.0281  0.6088  0.7932
 7446TIP3    H143753   0.135   3.428  11.577 -0.3405  1.4840  0.1360
 7446TIP3    H243754   0.204   3.370  11.456 -0.6064  1.9559 -0.2447
 7447TIP3   OH243755   0.616   1.158  12.274  0.2767 -0.0695  0.4167
 7447TIP3    H143756   0.686   1.192  12.330  2.1345 -0.7522 -1.3822
 7447TIP3    H243757   0.577   1.236  12.235  2.1842  0.2544 -0.9787
 7448TIP3   OH243758   3.210   3.940   5.609 -0.6489  0.1581 -0.5887
 7448TIP3    H143759   3.211   4.017   5.552 -1.4511 -0.0303 -0.8699
 7448TIP3    H243760   3.189   3.975   5.696  0.9431  0.4939 -0.3048
 7449TIP3   OH243761   4.355   1.893   0.469  0.0483  0.6643  0.0327
 7449TIP3    H143762   4.427   1.890   0.532 -0.2873 -0.6871  0.3905
 7449TIP3    H243763   4.398   1.884   0.384  0.3675  0.8009  0.1741
 7450TIP3   OH243764   1.483   2.345  16.794  0.2487 -0.0497 -0.2682
 7450TIP3    H143765   1.439   2.429  16.782 -1.0032 -0.9156 -2.0614
 7450TIP3    H243766   1.467   2.322  16.885 -1.5256  0.4918 -0.4210
 7451TIP3   OH243767   4.706   5.973   2.358 -0.0027 -0.3505 -0.0333
 7451TIP3    H143768   4.775   6.022   2.403 -1.8596  2.2189  0.2898
 7451TIP3    H243769   4.741   5.959   2.269  1.6698 -0.9183  0.6672
 7452TIP3   OH243770   2.485   4.070  17.022 -0.3361 -0.5528 -0.1872
 7452TIP3    H143771   2.515   4.132  16.955 -1.3643 -0.5550 -0.6781
 7452TIP3    H243772   2.419   4.119  17.071 -0.2933 -0.8771  0.1941
 7453TIP3   OH243773   0.988   4.594   1.333 -0.5707 -0.3091  0.1258
 7453TIP3    H143774   0.916   4.531   1.335 -0.9991  0.1594  2.4598
 7453TIP3    H243775   1.042   4.572   1.409 -0.4070  1.7302  0.6658
 7454TIP3   OH243776   1.731   2.290  11.509 -0.1629  0.5923  0.2251
 7454TIP3    H143777   1.666   2.283  11.439  0.0996  0.0213  0.0254
 7454TIP3    H243778   1.688   2.251  11.586 -0.5490  1.4664  0.4561
 7455TIP3   OH243779   0.473   4.946   5.818 -0.3422  0.1267 -0.3173
 7455TIP3    H143780   0.502   4.885   5.886  1.9116  2.0473  0.5871
 7455TIP3    H243781   0.393   4.984   5.853  0.1002  0.1588  0.6820
 7456TIP3   OH243782   0.264   2.514  14.477  0.2499  0.5114 -0.3018
 7456TIP3    H143783   0.222   2.585  14.428  1.2590 -0.1386 -2.2304
 7456TIP3    H243784   0.357   2.523  14.457  0.4721 -0.8944  0.0072
 7457TIP3   OH243785   1.977   0.741  15.774 -0.8298  0.3824 -0.3731
 7457TIP3    H143786   1.972   0.820  15.721 -1.2713  0.4328 -0.2579
 7457TIP3    H243787   1.910   0.684  15.738  0.8515 -0.8036 -1.8512
 7458TIP3   OH243788   1.664   1.399   3.585 -0.1458 -0.0273 -0.2981
 7458TIP3    H143789   1.752   1.386   3.621 -0.1708 -0.9548 -0.5453
 7458TIP3    H243790   1.607   1.343   3.638 -1.1101  2.6674  1.7146
 7459TIP3   OH243791   2.900   1.888   1.089  0.1378  0.1140  0.7736
 7459TIP3    H143792   2.983   1.851   1.059 -0.3586 -0.5064  0.1193
 7459TIP3    H243793   2.887   1.850   1.176 -0.0126 -0.7031  0.4033
 7460TIP3   OH243794   2.494   0.467  14.134  0.3516 -0.1708 -0.1296
 7460TIP3    H143795   2.532   0.551  14.109  1.7305 -0.9509 -0.7570
 7460TIP3    H243796   2.551   0.402  14.094 -0.8963 -1.4186  0.0402
 7461TIP3   OH243797   2.653   2.805  12.935  0.8204 -0.6998 -0.6811
 7461TIP3    H143798   2.624   2.887  12.975 -2.7676 -1.4895 -1.2792
 7461TIP3    H243799   2.731   2.780  12.985  0.5904  1.8308  1.1284
 7462TIP3   OH243800   6.170   4.008  14.394 -0.1059 -0.1506  0.4829
 7462TIP3    H143801   6.091   4.035  14.441 -0.0869 -1.0621  1.0617
 7462TIP3    H243802   6.146   3.925  14.353 -0.7438  1.4908 -2.7606
 7463TIP3   OH243803   3.717   0.451  16.949  0.2144 -0.2064 -0.8707
 7463TIP3    H143804   3.719   0.399  17.029 -0.1588 -0.7846 -1.2361
 7463TIP3    H243805   3.807   0.448  16.917  0.7119  1.2137  0.2657
 7464TIP3   OH243806   5.738   1.872  12.313 -0.6346 -0.4504  0.1123
 7464TIP3    H143807   5.805   1.861  12.381  1.1468  1.5198 -1.1747
 7464TIP3    H243808   5.680   1.940  12.347  0.3560  0.6595 -0.3247
 7465TIP3   OH243809   5.332   3.241   2.641  0.8647  0.4653  0.5351
 7465TIP3    H143810   5.256   3.299   2.645  0.2081 -0.4375  3.2115
 7465TIP3    H243811   5.323   3.185   2.717  2.6101 -1.7619 -0.7843
 7466TIP3   OH243812   4.444   0.037  15.128 -0.3336  0.1954 -0.5906
 7466TIP3    H143813   4.473  -0.004  15.209  1.6809  0.8178 -0.9374
 7466TIP3    H243814   4.384   0.106  15.157 -0.5236 -0.3099  0.2686
 7467TIP3   OH243815   1.197   2.185   5.418  0.4032 -0.3584 -0.2661
 7467TIP3    H143816   1.150   2.120   5.471 -2.0541  3.1204  2.3904
 7467TIP3    H243817   1.177   2.162   5.328 -2.0456 -2.1768  0.6133
 7468TIP3   OH243818   3.448   6.712   4.390 -0.4592 -0.2031  0.2466
 7468TIP3    H143819   3.475   6.743   4.304 -1.5938  1.0532  0.3135
 7468TIP3    H243820   3.461   6.787   4.448 -3.0357  0.1526  0.4733
 7469TIP3   OH243821   4.067   1.258  13.502  0.2370 -0.7506 -0.2208
 7469TIP3    H143822   4.152   1.218  13.523  0.6850 -0.2584 -1.0435
 7469TIP3    H243823   4.081   1.352  13.514 -0.5899 -0.7548  0.9444
 7470TIP3   OH243824   1.978   3.772   0.460 -0.4552  0.8604 -0.2414
 7470TIP3    H143825   1.925   3.807   0.531 -2.7634 -1.1555 -0.8092
 7470TIP3    H243826   1.917   3.762   0.387  1.3548  0.8748 -1.8547
 7471TIP3   OH243827   4.606   3.090  10.730  0.0930 -0.3097 -0.7677
 7471TIP3    H143828   4.698   3.081  10.708  0.0181  1.9316 -2.4153
 7471TIP3    H243829   4.579   3.004  10.761  2.7423 -0.9742 -0.1121
 7472TIP3   OH243830   2.354   3.022   3.172  0.3944  0.3819 -0.0633
 7472TIP3    H143831   2.430   2.987   3.125  1.0562  1.5088  0.1422
 7472TIP3    H243832   2.303   2.944   3.194  1.6885 -0.4439  0.1471
 7473TIP3   OH243833   0.898   5.835  16.951 -0.3893  0.2898 -0.1430
 7473TIP3    H143834   0.936   5.923  16.948  1.4892 -0.4985 -0.5699
 7473TIP3    H243835   0.807   5.850  16.978 -0.7404  2.5416 -2.1521
 7474TIP3   OH243836   0.785   6.686  12.384  0.5342  0.1237  0.1415
 7474TIP3    H143837   0.707   6.634  12.399 -0.0083  0.9304  0.1649
 7474TIP3    H243838   0.766   6.771  12.423  2.0994 -0.1881  1.7544
 7475TIP3   OH243839   1.121   0.897   6.243 -0.1033 -0.0979  0.2596
 7475TIP3    H143840   1.087   0.815   6.281  0.8332 -0.0111  1.3530
 7475TIP3    H243841   1.083   0.900   6.156  0.5406 -2.1866 -0.1715
 7476TIP3   OH243842   2.341   6.301   4.215  0.1906 -0.3768  0.6493
 7476TIP3    H143843   2.246   6.290   4.206  0.0665  0.7839  0.4640
 7476TIP3    H243844   2.372   6.317   4.126  0.6097 -1.0025  0.6725
 7477TIP3   OH243845   2.136   5.195  11.664 -0.9671  0.2709 -0.1656
 7477TIP3    H143846   2.130   5.279  11.710 -0.4567  0.4611 -0.4396
 7477TIP3    H243847   2.203   5.146  11.712 -0.8599  0.2393 -0.3465
 7478TIP3   OH243848   5.813   1.977  11.358 -0.4848 -0.1985 -0.2358
 7478TIP3    H143849   5.830   2.065  11.392  2.1818 -1.1641  1.2310
 7478TIP3    H243850   5.773   1.930  11.431 -0.3519 -0.6550 -0.4527
 7479TIP3   OH243851   1.566   2.318  13.587  0.3216 -0.4292 -0.1793
 7479TIP3    H143852   1.505   2.287  13.521 -1.0030  1.4479  0.0708
 7479TIP3    H243853   1.569   2.248  13.652  0.2076 -1.4965 -1.2830
 7480TIP3   OH243854   0.073   3.068  11.457 -0.1704 -0.2925  0.2788
 7480TIP3    H143855   0.115   3.039  11.376 -1.4981 -1.0158 -0.1878
 7480TIP3    H243856   0.074   3.164  11.452  0.5122 -0.3192 -0.1867
 7481TIP3   OH243857   2.710   0.742   2.470  0.7234 -0.1572 -0.5971
 7481TIP3    H143858   2.653   0.812   2.439  0.7180 -0.5900 -1.6150
 7481TIP3    H243859   2.652   0.679   2.512  1.0343  2.0488  3.7082
 7482TIP3   OH243860   2.185   6.712   5.645 -0.2639 -0.2109  0.3828
 7482TIP3    H143861   2.110   6.701   5.703 -0.5311 -1.2462 -0.1356
 7482TIP3    H243862   2.155   6.680   5.560  1.0514 -1.5710  0.3960
 7483TIP3   OH243863   0.066   3.319   1.053 -0.1537  0.2835 -0.3017
 7483TIP3    H143864   0.040   3.227   1.048 -0.7239  0.4876 -1.6960
 7483TIP3    H243865   0.140   3.326   0.993 -0.5629  0.8599 -0.7549
 7484TIP3   OH243866   0.369   4.447  16.693  0.1893 -0.4223 -0.7503
 7484TIP3    H143867   0.346   4.443  16.600 -0.3692  0.7987 -0.6765
 7484TIP3    H243868   0.338   4.363  16.728  2.4796 -1.9497 -2.0831
 7485TIP3   OH243869   3.716   4.953   4.778  0.0595  0.3225 -0.1966
 7485TIP3    H143870   3.775   4.948   4.854  1.5136  2.8703 -1.0284
 7485TIP3    H243871   3.763   5.008   4.715 -2.8607  1.7829 -1.2874
 7486TIP3   OH243872   3.546   2.903   4.221  0.5539  0.4945  0.4764
 7486TIP3    H143873   3.549   2.906   4.126 -0.6748 -2.3194  0.2446
 7486TIP3    H243874   3.630   2.864   4.247  0.6948  0.8316  0.5414
 7487TIP3   OH243875   1.639   5.263  13.027 -0.1023  0.1089 -0.5155
 7487TIP3    H143876   1.626   5.293  12.937 -0.9586 -0.5222 -0.6194
 7487TIP3    H243877   1.621   5.169  13.024 -1.1455  0.2497  0.4906
 7488TIP3   OH243878   2.582   3.274  12.639  0.1279 -0.6588  0.0263
 7488TIP3    H143879   2.497   3.235  12.660 -0.0627 -0.6747 -0.7592
 7488TIP3    H243880   2.612   3.226  12.562  1.8154 -2.0945  1.4594
 7489TIP3   OH243881   2.260   4.746  16.864  0.6276 -0.2394 -0.2428
 7489TIP3    H143882   2.189   4.773  16.921  1.0676  1.6679 -0.5206
 7489TIP3    H243883   2.319   4.696  16.920  0.4008  0.4828  0.6590
 7490TIP3   OH243884   1.567   4.556  11.672  0.2657  0.4579  0.4063
 7490TIP3    H143885   1.581   4.465  11.699 -1.8223  0.8252  3.1156
 7490TIP3    H243886   1.622   4.607  11.731  0.4813  1.0382 -0.2832
 7491TIP3   OH243887   5.769   5.368   4.526  0.1372 -0.2236 -0.0174
 7491TIP3    H143888   5.674   5.362   4.517  0.1502  1.1498 -1.4242
 7491TIP3    H243889   5.793   5.290   4.577 -1.4779 -1.8530 -1.5893
 7492TIP3   OH243890   6.573   1.110   0.776  0.4712  0.2365 -0.1776
 7492TIP3    H143891   6.567   1.165   0.698 -1.0953  0.2862 -0.0635
 7492TIP3    H243892   6.664   1.081   0.779  1.0858  1.9697 -0.8238
 7493TIP3   OH243893   3.315   1.236   3.481  0.4339 -0.6005  0.0438
 7493TIP3    H143894   3.391   1.202   3.529  1.2942  0.1369 -0.7696
 7493TIP3    H243895   3.280   1.304   3.538  1.4708  0.2945 -0.3601
 7494TIP3   OH243896   5.058   1.086  10.209  0.1694 -0.1957 -0.0678
 7494TIP3    H143897   5.090   1.150  10.273  1.1625 -0.3983 -0.3355
 7494TIP3    H243898   4.987   1.131  10.163  1.5522  1.1466 -0.9969
 7495TIP3   OH243899   5.123   4.245  17.191 -0.5396  0.2579 -0.5028
 7495TIP3    H143900   5.215   4.218  17.184 -0.9776 -1.1203 -1.2771
 7495TIP3    H243901   5.123   4.335  17.158  0.8178  0.9765  1.2900
 7496TIP3   OH243902   0.549   1.339   5.767 -0.1258  0.3786  0.2081
 7496TIP3    H143903   0.630   1.374   5.730  0.8057 -2.1316 -0.3147
 7496TIP3    H243904   0.500   1.306   5.692 -0.7863  0.2269  0.6940
 7497TIP3   OH243905   5.226   4.092   1.808  0.2636 -0.6040 -0.1178
 7497TIP3    H143906   5.136   4.073   1.780 -0.2107  2.0276 -0.6099
 7497TIP3    H243907   5.215   4.152   1.883  1.6027 -0.0579 -0.3344
 7498TIP3   OH243908   6.350   5.543  15.666 -0.1857  0.0934 -0.0832
 7498TIP3    H143909   6.329   5.635  15.649  0.8161  0.1543 -1.1044
 7498TIP3    H243910   6.303   5.494  15.598  1.3372  0.0929 -1.2160
 7499TIP3   OH243911   5.780   0.972   5.259 -0.2257  0.2984 -0.2192
 7499TIP3    H143912   5.740   1.059   5.255 -2.0195 -0.5131 -1.7671
 7499TIP3    H243913   5.751   0.937   5.343  0.5348  1.1853  0.4288
 7500TIP3   OH243914   2.435   6.536   1.220 -0.9928 -0.0922 -0.5042
 7500TIP3    H143915   2.433   6.587   1.301 -1.8386  0.5938 -0.9411
 7500TIP3    H243916   2.456   6.447   1.248  0.4642  0.4563  0.2810
 7501TIP3   OH243917   0.912   2.733   1.238  0.0612 -0.2545 -0.1346
 7501TIP3    H143918   0.978   2.677   1.195 -0.2173 -1.5095  0.9798
 7501TIP3    H243919   0.946   2.743   1.327 -0.4547  0.4589 -0.0195
 7502TIP3   OH243920   0.808   0.932   2.296 -0.1423  0.0102  0.4199
 7502TIP3    H143921   0.755   0.940   2.217  1.3168  0.7933 -0.5162
 7502TIP3    H243922   0.744   0.930   2.368 -1.4261  1.0951 -0.6501
 7503TIP3   OH243923   6.434   3.046   2.789 -0.0829 -0.0076 -0.0066
 7503TIP3    H143924   6.448   3.112   2.857 -0.3937 -0.3613  0.4128
 7503TIP3    H243925   6.509   3.055   2.731 -0.0217  0.5786  0.1554
 7504TIP3   OH243926   3.648   4.994   1.496 -0.3192  0.3468  0.5426
 7504TIP3    H143927   3.600   4.939   1.558 -0.1401  0.6101  0.9211
 7504TIP3    H243928   3.728   4.946   1.478  0.2867  0.9301  1.6329
 7505TIP3   OH243929   3.891   6.525   1.496  0.3032  0.4386  0.0250
 7505TIP3    H143930   3.871   6.581   1.422 -0.2721  2.0324  1.3255
 7505TIP3    H243931   3.841   6.562   1.569  0.9360 -0.9880  1.2488
 7506TIP3   OH243932   1.490   4.859   4.827 -0.5676  0.4751 -0.1177
 7506TIP3    H143933   1.565   4.800   4.826  0.3651  1.6044  0.8042
 7506TIP3    H243934   1.482   4.887   4.918 -1.0783  1.6446 -0.5015
 7507TIP3   OH243935   0.153   6.414  15.993 -0.4166  0.4638  0.0287
 7507TIP3    H143936   0.191   6.480  15.935  0.4372  0.1963  0.2649
 7507TIP3    H243937   0.229   6.372  16.034 -0.9880  1.0773  1.8337
 7508TIP3   OH243938   6.197   4.266   0.698  0.4646 -0.1836  0.3420
 7508TIP3    H143939   6.226   4.213   0.773  1.3933  2.7762  2.2733
 7508TIP3    H243940   6.102   4.253   0.696  0.6757 -2.1067  0.5147
 7509TIP3   OH243941   1.179   5.457  13.785 -0.3365 -0.0295 -0.1264
 7509TIP3    H143942   1.185   5.362  13.779  0.3520  0.0411 -0.7410
 7509TIP3    H243943   1.155   5.485  13.697 -1.5229  0.3051  0.2964
 7510TIP3   OH243944   5.580   1.703  13.670  0.0611 -0.6085 -0.9415
 7510TIP3    H143945   5.513   1.749  13.721 -0.5062 -0.3803 -1.8808
 7510TIP3    H243946   5.552   1.612  13.670  0.6625 -0.8100  0.0875
 7511TIP3   OH243947   6.754   4.382  12.856  0.6329 -0.0188  0.3611
 7511TIP3    H143948   6.753   4.334  12.773  3.0800 -2.0392  1.3788
 7511TIP3    H243949   6.785   4.469  12.832  2.5202 -0.9367 -0.7408
 7512TIP3   OH243950   3.851   4.726   3.058  0.0551  0.4783 -0.5793
 7512TIP3    H143951   3.771   4.679   3.038  0.2306  0.0666 -0.3223
 7512TIP3    H243952   3.826   4.819   3.053  0.0865  0.4154 -2.6722
 7513TIP3   OH243953   1.839   4.937   1.358 -0.1914  0.9165  0.1314
 7513TIP3    H143954   1.786   4.904   1.285  0.1080 -1.0942  0.7729
 7513TIP3    H243955   1.793   5.016   1.387 -3.3141 -1.1084  1.1376
 7514TIP3   OH243956   5.506   5.747   2.779  0.0563  0.2682 -0.5266
 7514TIP3    H143957   5.557   5.719   2.855 -0.7637  1.0008  0.3216
 7514TIP3    H243958   5.512   5.674   2.717  1.1036 -0.1523  0.0503
 7515TIP3   OH243959   5.143   4.244  15.917  0.2907 -0.2064  0.7767
 7515TIP3    H143960   5.186   4.158  15.918  2.2367  0.7118  0.5487
 7515TIP3    H243961   5.116   4.259  16.007  1.3860 -0.3945  1.1528
 7516TIP3   OH243962   6.380   3.741  11.655  0.0352 -0.6911 -0.3449
 7516TIP3    H143963   6.362   3.656  11.696  1.3909  0.4508  3.0089
 7516TIP3    H243964   6.362   3.804  11.724  0.9487  1.6280 -2.1081
 7517TIP3   OH243965   3.841   1.180  12.867 -0.5021  0.0059  0.4710
 7517TIP3    H143966   3.912   1.122  12.895 -0.6450 -0.2228  0.3630
 7517TIP3    H243967   3.795   1.131  12.799 -1.2352 -0.1781  1.0836
 7518TIP3   OH243968   3.650   0.568  12.461 -0.2081 -0.2784 -0.0639
 7518TIP3    H143969   3.715   0.525  12.516  0.3703  0.7046  0.0514
 7518TIP3    H243970   3.644   0.657  12.497 -0.1857  0.2274 -1.2590
 7519TIP3   OH243971   4.038   3.863   3.011 -0.6597 -0.2279  0.3136
 7519TIP3    H143972   4.071   3.912   2.936  0.6305 -0.5826  0.6312
 7519TIP3    H243973   4.017   3.930   3.076  0.3092 -0.0371  0.4401
 7520TIP3   OH243974   6.265   6.738  16.781 -0.3279 -0.5725 -0.2783
 7520TIP3    H143975   6.200   6.769  16.845  1.3557  2.2045  0.2373
 7520TIP3    H243976   6.336   6.703  16.835  0.5498  0.6285 -0.6085
 7521TIP3   OH243977   3.180   4.343   4.622 -0.8887 -0.1600 -0.0801
 7521TIP3    H143978   3.264   4.367   4.662 -1.8957 -0.2579  2.2536
 7521TIP3    H243979   3.170   4.250   4.639 -0.0332 -0.9840 -3.3202
 7522TIP3   OH243980   5.629   1.386   3.534 -0.5337  0.2420 -0.4553
 7522TIP3    H143981   5.647   1.347   3.619 -0.2427  1.9857  0.3431
 7522TIP3    H243982   5.698   1.353   3.477  0.8414  1.0308  0.6705
 7523TIP3   OH243983   5.966   1.338  13.734 -0.5607 -0.3023 -0.2255
 7523TIP3    H143984   5.888   1.375  13.775 -0.9644 -0.0570 -1.1800
 7523TIP3    H243985   6.036   1.353  13.797 -0.3969  3.3420 -1.0266
 7524TIP3   OH243986   6.606   1.797   4.614  0.6210  0.3801  0.0026
 7524TIP3    H143987   6.560   1.755   4.686 -0.1297  1.3856  0.1396
 7524TIP3    H243988   6.652   1.871   4.654  0.6940  0.5906 -0.4549
 7525TIP3   OH243989   0.214   5.973   4.135  0.2446 -0.1832 -0.3658
 7525TIP3    H143990   0.304   5.945   4.115  1.1169  0.5349  2.1428
 7525TIP3    H243991   0.224   6.030   4.211 -2.1729  1.4831 -1.1992
 7526TIP3   OH243992   4.653   6.519   3.216 -0.2379  0.4806  0.3636
 7526TIP3    H143993   4.675   6.530   3.124 -3.3483 -0.9695 -0.6896
 7526TIP3    H243994   4.587   6.587   3.234 -1.0043 -0.3935  0.9576
 7527TIP3   OH243995   3.512   3.457  13.398  0.1491  0.2302  0.1207
 7527TIP3    H143996   3.497   3.486  13.488  0.8824  2.2089 -0.3575
 7527TIP3    H243997   3.507   3.361  13.403 -0.2803  0.3173  2.1643
 7528TIP3   OH243998   0.344   5.566  12.568  1.1112  0.0243 -0.7388
 7528TIP3    H143999   0.389   5.485  12.542 -0.0995 -0.5466 -1.1473
 7528TIP3    H244000   0.278   5.537  12.632 -0.1495  0.4839 -1.7910
 7529TIP3   OH244001   1.473   1.094  12.610 -0.1008 -0.2760  0.1602
 7529TIP3    H144002   1.526   1.158  12.563 -0.2063 -0.8535 -0.7512
 7529TIP3    H244003   1.504   1.100  12.701  0.7157  0.2078 -0.1405
 7530TIP3   OH244004   4.984   5.737   4.920  0.1493  0.0558  0.2353
 7530TIP3    H144005   5.034   5.819   4.917 -1.0241  0.8203  0.7947
 7530TIP3    H244006   5.042   5.672   4.879  1.6064  0.8797  0.9142
 7531TIP3   OH244007   1.049   6.563  16.906  0.1947 -0.2229  0.1748
 7531TIP3    H144008   1.045   6.658  16.896 -0.0749 -0.2230  0.2676
 7531TIP3    H244009   0.998   6.545  16.986  0.2476 -0.4438  0.1610
 7532TIP3   OH244010   2.369   5.038  12.081  0.2140  0.3031  0.1743
 7532TIP3    H144011   2.319   4.956  12.085  0.7371 -0.0166  0.1913
 7532TIP3    H244012   2.405   5.050  12.169 -0.7739  1.1422  0.4904
 7533TIP3   OH244013   0.194   4.347   1.631  0.3851 -0.1602 -0.5669
 7533TIP3    H144014   0.246   4.372   1.555 -0.3376 -0.3628 -1.1489
 7533TIP3    H244015   0.154   4.264   1.605 -0.4814  0.1537 -0.2686
 7534TIP3   OH244016   0.282   2.718   4.953 -0.3703 -0.2576 -0.5361
 7534TIP3    H144017   0.323   2.804   4.959 -0.7239 -0.1939  1.6699
 7534TIP3    H244018   0.259   2.709   4.860 -0.4920  2.0900 -0.7890
 7535TIP3   OH244019   1.574   4.857   2.763 -0.1659  0.1558  0.2682
 7535TIP3    H144020   1.547   4.932   2.710 -0.6794  0.2476  0.6509
 7535TIP3    H244021   1.665   4.842   2.738 -0.3375  0.3174 -0.4928
 7536TIP3   OH244022   5.555   4.839  14.196  0.0711 -0.2421 -0.4924
 7536TIP3    H144023   5.588   4.884  14.273  0.3271 -0.5439 -0.4236
 7536TIP3    H244024   5.492   4.775  14.231 -1.7389  1.3213 -0.7215
 7537TIP3   OH244025   6.175   3.855  14.022 -0.0873 -0.1756 -0.3646
 7537TIP3    H144026   6.234   3.816  13.957  0.6860  0.8167 -0.2843
 7537TIP3    H244027   6.230   3.915  14.072 -0.9848  0.1271  0.2961
 7538TIP3   OH244028   2.574   2.461  13.313 -0.6283  0.2905 -0.0481
 7538TIP3    H144029   2.629   2.383  13.307 -0.6169  0.1362  1.4634
 7538TIP3    H244030   2.552   2.483  13.223  0.2502 -0.8300 -0.5566
 7539TIP3   OH244031   6.161   5.834  11.134  0.0561 -0.2625 -0.4232
 7539TIP3    H144032   6.157   5.749  11.090 -0.3873 -1.1493  1.2457
 7539TIP3    H244033   6.079   5.877  11.112 -1.2914 -1.7207  1.4146
 7540TIP3   OH244034   0.830   1.672  14.276 -0.7499  0.1988  0.2951
 7540TIP3    H144035   0.819   1.708  14.188  0.2305 -0.1724  0.0046
 7540TIP3    H244036   0.748   1.691  14.320 -2.1909 -1.6327 -1.4127
 7541TIP3   OH244037   0.561   3.071   3.462 -0.0742  0.3165 -0.5504
 7541TIP3    H144038   0.468   3.095   3.465  0.0822  1.3725 -2.5256
 7541TIP3    H244039   0.600   3.117   3.536 -0.9485  0.7001 -0.3151
 7542TIP3   OH244040   1.558   5.022   0.912 -0.2175  0.4091  0.1618
 7542TIP3    H144041   1.578   5.116   0.904  1.2665  0.0049 -1.5804
 7542TIP3    H244042   1.498   5.005   0.839  0.8105 -0.2977 -0.5370
 7543TIP3   OH244043   6.293   0.706   0.780 -0.0381  0.6732  0.0434
 7543TIP3    H144044   6.247   0.725   0.698  0.3837  0.2337 -0.2976
 7543TIP3    H244045   6.225   0.713   0.847 -1.3387 -2.8254 -0.7425
 7544TIP3   OH244046   6.721   3.559  12.234 -0.0353  0.3120  0.5241
 7544TIP3    H144047   6.647   3.513  12.194  0.5390  0.4774 -0.7857
 7544TIP3    H244048   6.791   3.493  12.239  0.3058  0.6248  0.0390
 7545TIP3   OH244049   3.632   0.448   4.282  0.2158 -0.0793  0.5490
 7545TIP3    H144050   3.545   0.444   4.243  0.4137  2.0312 -0.2442
 7545TIP3    H244051   3.686   0.391   4.228 -1.0496 -3.2038  2.3646
 7546TIP3   OH244052   4.220   6.095   4.298 -0.3816 -0.2479 -0.4110
 7546TIP3    H144053   4.242   6.033   4.229 -0.8581 -0.4522 -0.3807
 7546TIP3    H244054   4.282   6.074   4.369  1.3787  1.1829 -1.4308
 7547TIP3   OH244055   2.069   1.698   2.713  0.4407 -0.2128  0.1779
 7547TIP3    H144056   2.138   1.763   2.718  0.7567 -0.4799 -0.4904
 7547TIP3    H244057   2.056   1.668   2.803  0.2607  0.7936  0.4950
 7548TIP3   OH244058   5.161   5.673  11.948 -0.4394 -0.4187  0.3539
 7548TIP3    H144059   5.217   5.749  11.961 -0.0951 -0.0987 -2.3367
 7548TIP3    H244060   5.112   5.664  12.030  1.8358  0.6851  1.9276
 7549TIP3   OH244061   3.507   2.241  12.357  0.6608 -0.1644 -0.0391
 7549TIP3    H144062   3.429   2.225  12.303 -1.1325  0.9852  2.0514
 7549TIP3    H244063   3.531   2.154  12.390  0.3681 -0.5600 -0.8358
 7550TIP3   OH244064   5.757   2.752   3.798 -0.0025  0.3797  0.4179
 7550TIP3    H144065   5.704   2.701   3.736  0.5619  0.1925  0.0795
 7550TIP3    H244066   5.786   2.828   3.747  3.8943 -1.7688 -0.9421
 7551TIP3   OH244067   6.413   0.440  13.548  0.0004 -1.0653 -0.0172
 7551TIP3    H144068   6.493   0.453  13.498  0.0006  0.4471  0.3127
 7551TIP3    H244069   6.349   0.407  13.485  0.9628 -2.6271 -0.2034
 7552TIP3   OH244070   6.172   2.185  15.337 -0.3163  0.3227 -0.0913
 7552TIP3    H144071   6.149   2.092  15.338  0.1313  0.0375 -3.9069
 7552TIP3    H244072   6.252   2.190  15.390 -0.9568 -1.1964  1.1248
 7553TIP3   OH244073   2.867   2.895  13.457  0.2904  0.3841  0.0279
 7553TIP3    H144074   2.936   2.959  13.471  0.9888 -0.3792  0.1295
 7553TIP3    H244075   2.905   2.812  13.485 -0.5925 -0.0827 -0.1207
 7554TIP3   OH244076   3.512   4.132   4.546 -0.9719 -0.1498 -0.4368
 7554TIP3    H144077   3.537   4.218   4.580 -2.8109 -0.2653  1.4740
 7554TIP3    H244078   3.430   4.112   4.591  0.4015 -3.8230  0.8463
 7555TIP3   OH244079   1.294   4.127   3.178  0.7359  0.3488  0.6477
 7555TIP3    H144080   1.328   4.092   3.095 -0.2555  0.0850  0.3357
 7555TIP3    H244081   1.362   4.107   3.242  1.3277  0.1701 -0.0240
 7556TIP3   OH244082   3.705   6.012   5.368 -0.2275  0.4617 -0.0140
 7556TIP3    H144083   3.707   5.954   5.292 -1.9454 -0.2121  0.4221
 7556TIP3    H244084   3.673   6.095   5.334  0.8569  0.7494 -0.3682
 7557TIP3   OH244085   2.617   5.130   4.073 -0.2651  0.2950  0.0015
 7557TIP3    H144086   2.608   5.095   3.985 -0.5063 -0.1226  0.1897
 7557TIP3    H244087   2.711   5.149   4.082 -0.4959  2.1249 -1.0121
 7558TIP3   OH244088   1.826   3.883   0.673 -0.4665 -0.1429 -0.5375
 7558TIP3    H144089   1.821   3.976   0.655 -1.5386  0.0440  0.5940
 7558TIP3    H244090   1.890   3.875   0.744 -1.2522 -0.1164  0.1918
 7559TIP3   OH244091   1.795   0.072   0.214 -0.4894 -0.1732  0.4188
 7559TIP3    H144092   1.866   0.008   0.220  1.2820  1.1045 -3.4204
 7559TIP3    H244093   1.720   0.021   0.181 -0.3539 -0.9110  1.2019
 7560TIP3   OH244094   1.647   2.938  16.436  0.2949 -0.8570  0.6894
 7560TIP3    H144095   1.689   2.899  16.359 -0.2252 -0.3647  0.1488
 7560TIP3    H244096   1.691   3.022  16.448  1.1120 -1.3883  1.5916
 7561TIP3   OH244097   2.388   6.234   0.276  0.5403 -0.0871 -0.4271
 7561TIP3    H144098   2.343   6.164   0.322 -1.5006  0.3780 -1.6121
 7561TIP3    H244099   2.413   6.195   0.192 -0.7722  0.5932 -1.1688
 7562TIP3   OH244100   2.348   2.971   5.592  0.0764  0.2099 -0.7935
 7562TIP3    H144101   2.347   2.889   5.541  0.1522  1.0376 -2.1808
 7562TIP3    H244102   2.255   2.992   5.604 -0.1571 -1.9348  2.8317
 7563TIP3   OH244103   3.218   3.360  13.065  0.0900  0.2480 -0.8167
 7563TIP3    H144104   3.283   3.294  13.089 -0.2327  0.7366  1.6258
 7563TIP3    H244105   3.239   3.435  13.120 -1.3592  1.1126 -1.4076
 7564TIP3   OH244106   5.573   6.275   6.382 -0.0834  0.3222 -0.3485
 7564TIP3    H144107   5.569   6.367   6.408  2.7595  0.5859 -0.5481
 7564TIP3    H244108   5.613   6.230   6.457 -0.0233 -0.4885 -0.8476
 7565TIP3   OH244109   6.059   0.430  12.804 -0.2530  0.7093  0.3432
 7565TIP3    H144110   6.087   0.344  12.773  1.4943  1.8984 -1.6376
 7565TIP3    H244111   5.978   0.448  12.755  0.3318  0.9009 -0.5692
 7566TIP3   OH244112   1.307   0.287  12.605  0.0578  0.4660  0.0301
 7566TIP3    H144113   1.282   0.196  12.623 -0.9787  0.5365 -0.9147
 7566TIP3    H244114   1.321   0.326  12.691  0.8246 -0.6686  0.4349
 7567TIP3   OH244115   4.134   1.345   6.579 -0.6896  0.2074  0.1023
 7567TIP3    H144116   4.131   1.441   6.575  0.9373  0.2575 -1.5958
 7567TIP3    H244117   4.226   1.324   6.595 -1.2603 -1.0942  1.9994
 7568TIP3   OH244118   0.019   6.141  14.861  0.0303  0.2425  0.6787
 7568TIP3    H144119  -0.039   6.158  14.787 -0.0203 -0.3396  0.5771
 7568TIP3    H244120   0.077   6.217  14.864  0.8145 -0.2573 -0.7109
 7569TIP3   OH244121   5.204   4.999  11.638  0.9012 -0.1852 -0.3994
 7569TIP3    H144122   5.257   5.066  11.682 -1.5691  0.1815  2.2689
 7569TIP3    H244123   5.152   5.049  11.575 -0.8540  0.5468  1.5039
 7570TIP3   OH244124   2.189   6.419   1.665  0.2552  0.2239 -0.1374
 7570TIP3    H144125   2.141   6.496   1.694 -0.6865  0.2821 -1.7177
 7570TIP3    H244126   2.175   6.354   1.734 -0.4945  0.8792  0.3412
 7571TIP3   OH244127   1.396   6.311   4.992 -0.1116  0.5389  0.6302
 7571TIP3    H144128   1.361   6.370   4.925  0.1067  0.1584  0.1801
 7571TIP3    H244129   1.367   6.224   4.965  0.6330  0.2952  0.5987
 7572TIP3   OH244130   6.512   4.073  17.106  0.2409  1.0624  0.4381
 7572TIP3    H144131   6.453   4.115  17.169 -0.2631  1.0857 -0.0389
 7572TIP3    H244132   6.460   4.067  17.026  0.8283  0.9094  0.0641
 7573TIP3   OH244133   5.891   1.690   0.033 -0.1696  0.3306  0.3862
 7573TIP3    H144134   5.854   1.778   0.036  2.4453  1.5204  2.1220
 7573TIP3    H244135   5.894   1.668  -0.060 -0.7209  2.1769 -0.1161
 7574TIP3   OH244136   4.302   1.674   1.122 -0.5441 -0.2433  0.4420
 7574TIP3    H144137   4.311   1.617   1.198  0.8204  0.1431  0.6027
 7574TIP3    H244138   4.279   1.759   1.160  0.0475 -0.0727  0.4316
 7575TIP3   OH244139   0.543   4.867   1.115  0.1215  0.0767  0.1585
 7575TIP3    H144140   0.549   4.837   1.024 -0.2657  0.1780  0.0986
 7575TIP3    H244141   0.632   4.894   1.137 -0.2252  2.5695 -1.0818
 7576TIP3   OH244142   6.021   6.290   2.514 -0.4691  0.7365  0.5966
 7576TIP3    H144143   6.089   6.341   2.558 -1.3509  1.5746  1.0306
 7576TIP3    H244144   6.045   6.293   2.421  1.6506 -1.4106  0.9743
 7577TIP3   OH244145   6.328   0.777  12.447 -0.0909  0.0576  0.1925
 7577TIP3    H144146   6.351   0.709  12.384  0.8419  0.0071  0.5706
 7577TIP3    H244147   6.411   0.820  12.467 -0.4428  0.3683  1.0372
 7578TIP3   OH244148   6.425   1.387   0.323 -0.0464 -0.5141  0.2034
 7578TIP3    H144149   6.483   1.411   0.251  1.6752 -1.9072  1.0423
 7578TIP3    H244150   6.374   1.313   0.289 -0.8054  0.2105 -0.2723
 7579TIP3   OH244151   3.737   3.144   1.106 -0.0424  0.3037  0.5615
 7579TIP3    H144152   3.727   3.234   1.138  0.6660 -0.0701  1.9198
 7579TIP3    H244153   3.831   3.126   1.114  0.0090 -0.1422 -0.8929
 7580TIP3   OH244154   1.439   3.882  12.650 -0.0618  0.1300  0.7174
 7580TIP3    H144155   1.461   3.835  12.730 -0.8876 -0.3414  0.6832
 7580TIP3    H244156   1.499   3.956  12.648  0.1251  0.0130  1.6532
 7581TIP3   OH244157   1.385   0.012   6.070 -0.1703 -0.0849  0.5909
 7581TIP3    H144158   1.294   0.002   6.099 -0.3965  0.5500  0.1167
 7581TIP3    H244159   1.398   0.107   6.062 -0.1474 -0.2084 -1.4197
 7582TIP3   OH244160   4.346   3.492   3.184  0.5167 -0.1342 -0.0327
 7582TIP3    H144161   4.402   3.445   3.246  0.3269  0.7626  0.8568
 7582TIP3    H244162   4.303   3.559   3.238  2.3931  2.5011 -1.5552
 7583TIP3   OH244163   0.509   1.454   4.701 -0.1458  0.6670  0.0861
 7583TIP3    H144164   0.565   1.522   4.663  3.2817 -0.9593  1.8499
 7583TIP3    H244165   0.514   1.469   4.795 -2.2341  0.0183  0.3497
 7584TIP3   OH244166   6.767   6.230   1.595  0.0334  0.1588  0.0438
 7584TIP3    H144167   6.850   6.276   1.604  0.6726 -0.8733 -0.3680
 7584TIP3    H244168   6.701   6.299   1.590  1.0429  1.0606 -1.4666
 7585TIP3   OH244169   2.208   1.543  12.152 -0.1720  0.0379 -0.5429
 7585TIP3    H144170   2.262   1.538  12.230  0.8587 -1.2110 -1.2794
 7585TIP3    H244171   2.249   1.609  12.097  0.3591 -0.5715 -0.8976
 7586TIP3   OH244172   2.127   3.824   1.227 -0.0618  0.2918  0.1407
 7586TIP3    H144173   2.181   3.760   1.274 -0.3470 -0.0536  0.0064
 7586TIP3    H244174   2.189   3.880   1.182  0.2028  0.3529  0.5766
 7587TIP3   OH244175   4.583   4.738   0.047  0.5443  0.4359 -0.5239
 7587TIP3    H144176   4.614   4.780   0.127  0.9013 -0.6037 -0.1075
 7587TIP3    H244177   4.544   4.810  -0.004  1.6937  1.3876 -0.1100
 7588TIP3   OH244178   0.058   2.256  17.040 -0.4651 -0.1161 -0.0612
 7588TIP3    H144179   0.134   2.267  17.097 -0.5928 -0.5705  0.2012
 7588TIP3    H244180   0.009   2.337  17.050 -0.0642  0.1444 -0.1606
 7589TIP3   OH244181   0.546   3.529  13.702  0.2723 -0.5554  0.4932
 7589TIP3    H144182   0.607   3.481  13.646 -0.4987 -0.2568 -0.6366
 7589TIP3    H244183   0.468   3.541  13.648  0.0139  0.9595  1.1529
 7590TIP3   OH244184   1.003   5.020   4.600 -0.1870  0.4948  0.0713
 7590TIP3    H144185   1.094   5.045   4.609  0.2592 -0.1929 -2.0287
 7590TIP3    H244186   1.006   4.926   4.582 -1.2962  0.4898 -0.1508
 7591TIP3   OH244187   2.539   3.634  13.106  0.3137 -0.5799 -0.5095
 7591TIP3    H144188   2.619   3.662  13.060  1.2401 -3.6479 -0.9983
 7591TIP3    H244189   2.569   3.565  13.165 -1.5626  0.3138  1.6258
 7592TIP3   OH244190   3.009   6.577   2.462  0.2411  0.0949  0.1789
 7592TIP3    H144191   2.988   6.558   2.370  0.4671  1.0891 -0.0924
 7592TIP3    H244192   2.963   6.659   2.480 -0.6842 -0.6399  1.2917
 7593TIP3   OH244193   6.227   3.494  15.904  0.4438 -0.0325  0.3471
 7593TIP3    H144194   6.187   3.562  15.849 -0.4965  0.7244  1.8924
 7593TIP3    H244195   6.301   3.538  15.945  0.6149 -0.3407  0.3698
 7594TIP3   OH244196   1.931   2.461   2.437 -0.1612 -0.1431  0.4663
 7594TIP3    H144197   1.964   2.472   2.348  0.7445  0.4653  0.8600
 7594TIP3    H244198   1.899   2.370   2.440  1.5737 -0.8077  0.0751
 7595TIP3   OH244199   6.514   2.552  13.756  0.3265 -0.0921 -0.4719
 7595TIP3    H144200   6.464   2.592  13.827 -0.2580  0.7111 -1.3020
 7595TIP3    H244201   6.605   2.556  13.785  0.1531  0.7521 -0.0053
 7596TIP3   OH244202   4.713   4.525  13.008  0.1810  0.0159  0.0701
 7596TIP3    H144203   4.649   4.536  12.938  2.3307 -0.0181 -2.0651
 7596TIP3    H244204   4.664   4.488  13.081 -2.2105  0.1550 -1.3609
 7597TIP3   OH244205   0.743   1.523   3.216  0.4258  0.1133 -0.0260
 7597TIP3    H144206   0.786   1.494   3.296  1.5547  1.0721 -0.2443
 7597TIP3    H244207   0.795   1.598   3.187 -1.7188  1.7070 -0.0189
 7598TIP3   OH244208   3.828   2.545  11.867  0.2848  0.4847  0.2632
 7598TIP3    H144209   3.742   2.508  11.847 -0.0845 -0.1268  2.7052
 7598TIP3    H244210   3.887   2.471  11.867 -0.0069  0.1845  2.7221
 7599TIP3   OH244211   2.718   1.175  13.203 -0.3718 -0.8183 -0.3884
 7599TIP3    H144212   2.631   1.210  13.224 -1.2943 -3.5031  0.6662
 7599TIP3    H244213   2.774   1.252  13.199 -2.0662  0.7631  2.5157
 7600TIP3   OH244214   1.094   5.104  17.073 -0.5701 -0.3046  0.4416
 7600TIP3    H144215   1.145   5.096  16.992 -0.1167  0.7645  0.5998
 7600TIP3    H244216   1.072   5.014  17.097  0.9113 -0.7626  0.1587
 7601TIP3   OH244217   5.416   0.018   3.434 -0.0098 -0.3260 -0.1093
 7601TIP3    H144218   5.333  -0.020   3.406  0.9428 -1.1405 -2.0500
 7601TIP3    H244219   5.472  -0.057   3.454  0.4721  0.1952  0.5554
 7602TIP3   OH244220   0.422   6.056  15.824  0.4952 -0.1317 -0.1296
 7602TIP3    H144221   0.429   5.993  15.896 -2.1120  0.1615  0.4612
 7602TIP3    H244222   0.499   6.039  15.770  2.9461  0.0561  3.0148
 7603TIP3   OH244223   1.761   6.574  15.824  0.1139 -0.3998 -0.4553
 7603TIP3    H144224   1.834   6.616  15.779 -1.0733  2.4576  0.0768
 7603TIP3    H244225   1.791   6.562  15.914 -0.1390  1.0784 -0.1553
 7604TIP3   OH244226   6.068   3.864   3.191  0.1176 -0.3452  0.3246
 7604TIP3    H144227   5.979   3.871   3.225  0.6739 -0.5942  1.8920
 7604TIP3    H244228   6.062   3.796   3.124 -0.9997  0.1388 -0.0994
 7605TIP3   OH244229   5.528   4.868  15.853  0.1865  0.1757 -0.9502
 7605TIP3    H144230   5.536   4.878  15.758 -0.4597  1.6801 -0.8785
 7605TIP3    H244231   5.435   4.851  15.867  0.1422  0.7183 -0.5473
 7606TIP3   OH244232   5.449   5.554   5.060  0.1956  0.2020  0.0669
 7606TIP3    H144233   5.458   5.590   4.972 -1.0587  2.1153  0.6749
 7606TIP3    H244234   5.472   5.626   5.118  1.0829 -1.0475  1.3504
 7607TIP3   OH244235   5.370   1.027  11.459  0.3878  0.1139 -0.7515
 7607TIP3    H144236   5.370   0.988  11.547  0.3777  0.0836 -0.7646
 7607TIP3    H244237   5.445   0.986  11.415 -0.1612 -0.5804 -1.0643
 7608TIP3   OH244238   1.349   3.210  10.386 -0.0281 -0.3474 -0.4239
 7608TIP3    H144239   1.392   3.136  10.429 -0.1389  0.9408  2.0654
 7608TIP3    H244240   1.255   3.197  10.404  0.0069  0.7015  0.6166
 7609TIP3   OH244241   1.436   3.992   1.916 -0.0168 -0.6616  0.1399
 7609TIP3    H144242   1.505   3.948   1.965 -0.5550  0.4248  1.9585
 7609TIP3    H244243   1.476   4.012   1.831  1.5736 -0.8966  0.7974
 7610TIP3   OH244244   1.189   3.007  14.370 -0.1444  0.4847 -0.0161
 7610TIP3    H144245   1.212   2.933  14.314 -0.8158  1.1901 -1.2783
 7610TIP3    H244246   1.196   2.973  14.460  2.6834 -0.1863 -0.4083
 7611TIP3   OH244247   6.352   5.354   5.291  0.2582 -0.3754 -0.0167
 7611TIP3    H144248   6.388   5.280   5.339  0.5477 -1.6022 -2.0108
 7611TIP3    H244249   6.424   5.385   5.237 -0.9062 -1.2557 -2.2007
 7612TIP3   OH244250   4.288   3.057  16.179  0.0286 -0.2276 -0.4007
 7612TIP3    H144251   4.261   3.103  16.100 -0.0578  0.0252 -0.2245
 7612TIP3    H244252   4.263   2.966  16.163  1.2390 -0.4361 -1.2318
 7613TIP3   OH244253   1.980   6.744  13.326  0.0898 -0.1563 -0.1356
 7613TIP3    H144254   2.059   6.690  13.330 -0.4614 -0.9529  0.1799
 7613TIP3    H244255   1.951   6.739  13.235  0.2840 -0.0318 -0.2048
 7614TIP3   OH244256   2.352   2.428  14.048 -0.3539 -0.8679  0.4618
 7614TIP3    H144257   2.401   2.423  14.130 -1.0159 -1.5820  0.8301
 7614TIP3    H244258   2.279   2.367  14.060 -0.4629 -0.9771 -0.6595
 7615TIP3   OH244259   2.439   6.723   4.359 -0.0389  0.0607 -0.0917
 7615TIP3    H144260   2.411   6.800   4.309 -1.5604 -1.1049 -1.1137
 7615TIP3    H244261   2.519   6.694   4.315  0.3076  0.7625  0.0407
 7616TIP3   OH244262   0.416   1.156   1.847 -0.0064 -0.0383 -0.0115
 7616TIP3    H144263   0.346   1.165   1.783 -1.1857 -0.7976  1.1079
 7616TIP3    H244264   0.405   1.067   1.882  1.2063  0.0068  0.5537
 7617TIP3   OH244265   3.829   3.946  16.339  0.1932 -0.3185 -0.4320
 7617TIP3    H144266   3.892   3.938  16.411  1.4081 -0.7046 -1.5119
 7617TIP3    H244267   3.872   4.003  16.275 -1.1228  0.5137 -0.6120
 7618TIP3   OH244268   1.886   6.719   2.566  0.1749 -0.0262 -0.4718
 7618TIP3    H144269   1.888   6.652   2.498  0.5030  0.0105 -0.5008
 7618TIP3    H244270   1.819   6.781   2.536 -0.4628 -0.5782 -0.2133
 7619TIP3   OH244271   3.975   5.063   2.726 -0.1348 -0.0827 -0.0089
 7619TIP3    H144272   3.909   5.026   2.668  0.7913 -0.6571 -0.7398
 7619TIP3    H244273   3.928   5.128   2.778 -1.2926 -0.5896 -0.3898
 7620TIP3   OH244274   6.290   3.983  12.346  0.3770 -0.3139  0.2837
 7620TIP3    H144275   6.275   3.926  12.270  1.3232  1.4066 -1.2858
 7620TIP3    H244276   6.384   3.980  12.360  0.3154  0.1015  0.7992
 7621TIP3   OH244277   2.401   2.610  14.825 -0.0159 -0.4840 -0.4609
 7621TIP3    H144278   2.319   2.626  14.778 -0.7001 -1.0435  0.4958
 7621TIP3    H244279   2.409   2.685  14.885  1.9232  1.3446 -2.7961
 7622TIP3   OH244280   5.783   5.521   2.770  0.4882 -0.3605  0.2681
 7622TIP3    H144281   5.750   5.581   2.838  0.4126 -1.3383  1.1146
 7622TIP3    H244282   5.836   5.577   2.713 -0.1341  0.6452  0.6383
 7623TIP3   OH244283   4.923   5.528   2.507 -0.0896 -0.1647  0.2507
 7623TIP3    H144284   4.880   5.470   2.569 -1.3585 -1.2730 -1.5597
 7623TIP3    H244285   4.864   5.529   2.431  1.2315  1.3723 -0.8150
 7624TIP3   OH244286   4.500   4.190  15.469 -0.5107 -0.1741  0.0939
 7624TIP3    H144287   4.427   4.223  15.521 -0.1052  2.9637 -1.1242
 7624TIP3    H244288   4.462   4.120  15.416 -2.0025 -0.3045  1.2861
 7625TIP3   OH244289   3.191   1.610  15.831 -0.3309 -0.0765 -0.2570
 7625TIP3    H144290   3.176   1.519  15.856  2.6652 -0.6228 -0.0709
 7625TIP3    H244291   3.115   1.633  15.779 -1.5289 -2.4390  0.2988
 7626TIP3   OH244292   0.122   3.290   5.693  0.1713  0.1405  0.2556
 7626TIP3    H144293   0.208   3.293   5.652  0.3996 -1.1697  0.5890
 7626TIP3    H244294   0.136   3.241   5.774 -0.4322  1.9465  1.5034
 7627TIP3   OH244295   4.191   4.916  16.120 -1.0324 -0.3640 -0.2052
 7627TIP3    H144296   4.217   4.824  16.107 -1.6872 -0.5762 -0.0870
 7627TIP3    H244297   4.095   4.913  16.120 -1.0541  0.2820  0.1033
 7628TIP3   OH244298   1.981   0.564  13.022  0.4037 -0.0625  0.5468
 7628TIP3    H144299   1.901   0.549  13.072  0.5164 -0.0925  0.7207
 7628TIP3    H244300   2.049   0.575  13.089  0.5885 -0.2880  0.3980
 7629TIP3   OH244301   3.936   2.178   2.881 -0.3699 -0.3529 -0.0995
 7629TIP3    H144302   3.977   2.261   2.905 -0.3862 -0.4965  0.4367
 7629TIP3    H244303   3.847   2.185   2.917  0.0045 -1.0896  1.0409
 7630TIP3   OH244304   4.972   0.101  14.940  0.0731  0.8663 -0.4454
 7630TIP3    H144305   4.944   0.124  14.852  0.3179  1.3393 -0.4018
 7630TIP3    H244306   4.906   0.139  14.998 -0.5486 -0.1620 -0.4553
 7631TIP3   OH244307   5.772   6.641  11.521 -0.0165  0.0977  0.1510
 7631TIP3    H144308   5.687   6.643  11.566 -0.5982 -1.2435 -0.8145
 7631TIP3    H244309   5.750   6.623  11.430  1.2953  0.3106 -0.2284
 7632TIP3   OH244310   3.333   5.030  17.053 -0.4018 -0.0242 -0.0121
 7632TIP3    H144311   3.361   4.944  17.020  0.6703  0.3085 -0.0035
 7632TIP3    H244312   3.298   5.011  17.140 -1.6333 -0.6619 -0.6177
 7633TIP3   OH244313   1.108   4.833   1.233  0.2109  0.4385 -0.3583
 7633TIP3    H144314   1.071   4.752   1.268  0.2067  1.3611  2.0314
 7633TIP3    H244315   1.202   4.822   1.241  0.3320 -0.1567 -2.1765
 7634TIP3   OH244316   0.632   4.657   5.442  0.5738  0.1951 -0.4627
 7634TIP3    H144317   0.673   4.742   5.460 -0.9615  0.9506 -0.3213
 7634TIP3    H244318   0.546   4.680   5.407  0.7792 -1.2980 -2.1057
 7635TIP3   OH244319   0.403   4.826  15.310 -0.0552 -0.3990 -0.4094
 7635TIP3    H144320   0.359   4.867  15.236 -0.4320  0.4026  0.2411
 7635TIP3    H244321   0.459   4.759  15.271 -0.9822 -0.6555 -1.3370
 7636TIP3   OH244322   0.687   2.779  16.268 -0.2733 -0.3321  0.3178
 7636TIP3    H144323   0.645   2.695  16.246 -1.0444  0.5159 -1.7017
 7636TIP3    H244324   0.671   2.834  16.192 -0.2088  1.8402  1.7892
 7637TIP3   OH244325   5.066   2.085   1.771 -0.6252  0.6675 -0.2430
 7637TIP3    H144326   4.979   2.060   1.738 -0.1930 -1.9883  0.3532
 7637TIP3    H244327   5.114   2.115   1.694 -1.0081 -1.2222 -1.2803
 7638TIP3   OH244328   6.222   4.914  16.015 -0.1218  0.2834  0.3326
 7638TIP3    H144329   6.170   4.855  16.070  0.5769  0.6422  1.3973
 7638TIP3    H244330   6.204   5.001  16.050 -2.1452  0.9124 -2.0292
 7639TIP3   OH244331   2.681   4.315   2.104 -0.2593 -0.3343 -0.5527
 7639TIP3    H144332   2.737   4.266   2.043 -2.3869 -1.6240 -1.5756
 7639TIP3    H244333   2.636   4.378   2.049  0.0445  0.6002  0.2424
 7640TIP3   OH244334   5.910   0.113  15.601 -0.7902  0.1534 -0.1306
 7640TIP3    H144335   5.927   0.033  15.651  0.9348  1.5414  1.6635
 7640TIP3    H244336   5.878   0.081  15.516 -0.0142 -2.4370  0.4462
 7641TIP3   OH244337   1.639   0.987  15.716  0.2789  0.1562  0.6688
 7641TIP3    H144338   1.566   1.043  15.690  0.2426  0.6257  1.7428
 7641TIP3    H244339   1.648   0.925  15.644 -0.6122  0.6401  0.1207
 7642TIP3   OH244340   3.345   6.470   4.264 -0.4238 -0.1427 -0.1875
 7642TIP3    H144341   3.396   6.542   4.300 -2.3685  1.7045 -0.9175
 7642TIP3    H244342   3.254   6.490   4.288 -1.1444 -1.8025 -1.3175
 7643TIP3   OH244343   4.197   1.115  11.130 -0.1382 -0.2910  0.4847
 7643TIP3    H144344   4.228   1.175  11.062  0.1009 -2.1176 -1.1105
 7643TIP3    H244345   4.114   1.152  11.158  0.6285  1.4904  0.5373
 7644TIP3   OH244346   6.104   4.410  13.435  0.4764 -0.3768 -0.1086
 7644TIP3    H144347   6.151   4.344  13.383 -1.8221 -0.8906 -1.7089
 7644TIP3    H244348   6.026   4.364  13.466  0.8349  0.4874  2.2703
 7645TIP3   OH244349   0.610   1.613  15.038 -0.0805 -0.0479 -0.1196
 7645TIP3    H144350   0.694   1.658  15.036 -0.2356  0.3801  1.3716
 7645TIP3    H244351   0.558   1.657  14.971  0.7339 -0.0271 -0.7529
 7646TIP3   OH244352   2.675   2.160   2.879  0.2029  0.0680  0.0953
 7646TIP3    H144353   2.753   2.203   2.843  0.4388 -0.8750 -0.5687
 7646TIP3    H244354   2.680   2.070   2.847 -1.9510  0.3487 -1.2925
 7647TIP3   OH244355   0.058   1.621  17.185  0.1386 -0.6796 -0.7080
 7647TIP3    H144356   0.085   1.686  17.119  2.4310 -0.7785  0.0534
 7647TIP3    H244357   0.084   1.537  17.148 -0.3869 -0.9319 -0.5170
 7648TIP3   OH244358   4.968   4.173   5.402 -0.8147 -0.0596  0.4261
 7648TIP3    H144359   4.972   4.085   5.364  0.3007  0.4120 -0.6031
 7648TIP3    H244360   4.934   4.228   5.332 -0.3471  0.5384  0.6596
 7649TIP3   OH244361   3.901   4.427  12.845  0.2905 -0.1190  0.1197
 7649TIP3    H144362   3.838   4.402  12.778 -0.5943  2.2887 -0.0382
 7649TIP3    H244363   3.966   4.356  12.845 -0.9874 -1.3526 -1.5608
 7650TIP3   OH244364   5.102   3.131   0.980 -0.1797 -0.5194 -0.1343
 7650TIP3    H144365   5.057   3.071   1.041  0.6861 -0.4191  0.6339
 7650TIP3    H244366   5.155   3.073   0.925 -2.0115 -0.7365 -1.7729
 7651TIP3   OH244367   1.124   0.113  15.288 -0.5356 -0.6353  0.3694
 7651TIP3    H144368   1.083   0.113  15.374 -0.5108  1.8023  0.4666
 7651TIP3    H244369   1.123   0.022  15.260  1.5661 -1.9516  3.9059
 7652TIP3   OH244370   5.833   6.379  14.672 -0.3149  0.2173 -0.3259
 7652TIP3    H144371   5.768   6.353  14.738  2.1511  1.1682  2.7098
 7652TIP3    H244372   5.887   6.301  14.660  0.2190  0.5040  0.1109
 7653TIP3   OH244373   0.212   6.371   4.899  0.7921  0.2888  0.3851
 7653TIP3    H144374   0.307   6.363   4.889  0.6593 -1.7393  0.3248
 7653TIP3    H244375   0.192   6.459   4.869  2.8969  1.5529  2.3518
 7654TIP3   OH244376   2.854   6.633  16.676 -0.2657 -0.4718 -0.2087
 7654TIP3    H144377   2.947   6.629  16.654 -0.3784 -1.7940 -0.5391
 7654TIP3    H244378   2.850   6.607  16.768 -0.2911 -0.1054 -0.1029
 7655TIP3   OH244379   5.076   4.189  14.464 -0.1887 -0.5997 -0.1835
 7655TIP3    H144380   5.093   4.175  14.371 -0.2833  0.0438 -0.3074
 7655TIP3    H244381   4.991   4.233  14.467 -0.0770 -0.3974  0.1862
 7656TIP3   OH244382   1.397   0.303  16.498  0.2139 -0.0998 -0.2917
 7656TIP3    H144383   1.454   0.243  16.450  1.2404  0.3644  0.3091
 7656TIP3    H244384   1.369   0.253  16.575 -0.7972 -0.5726 -0.9405
 7657TIP3   OH244385   2.297   1.418   1.596  0.0086 -0.0900  0.2001
 7657TIP3    H144386   2.382   1.422   1.640  0.3460  2.2239 -0.5652
 7657TIP3    H244387   2.288   1.502   1.552 -0.1513 -2.2431 -4.4452
 7658TIP3   OH244388   3.664   3.698  14.118  0.3385  0.5382  0.4245
 7658TIP3    H144389   3.671   3.756  14.193  0.9643  0.3908  0.4787
 7658TIP3    H244390   3.707   3.745  14.047  0.6879  0.2229  0.4236
 7659TIP3   OH244391   2.181   1.952  13.318 -0.2346 -0.3273  0.4277
 7659TIP3    H144392   2.245   2.020  13.337  0.0237 -1.1201  2.6623
 7659TIP3    H244393   2.107   1.971  13.376 -1.4308 -0.2904 -1.0401
 7660TIP3   OH244394   0.577   3.181  10.428  0.0175  0.6882 -0.7068
 7660TIP3    H144395   0.592   3.251  10.492 -0.7505  0.3066 -0.0935
 7660TIP3    H244396   0.486   3.156  10.441  0.4962 -0.9966 -0.3153
 7661TIP3   OH244397   1.521   2.754  16.973 -0.6325  0.4629  0.1240
 7661TIP3    H144398   1.482   2.693  16.910  1.5347  0.1255 -0.9777
 7661TIP3    H244399   1.585   2.702  17.021  0.5732  1.6029 -0.1747
 7662TIP3   OH244400   3.110   5.660  16.431 -0.5892 -0.1303 -0.4466
 7662TIP3    H144401   3.036   5.709  16.467 -0.4630 -1.2678  1.5294
 7662TIP3    H244402   3.186   5.690  16.481 -0.6616 -2.9444  1.6011
 7663TIP3   OH244403   4.376   6.523  13.091  0.3941 -0.0160  0.7016
 7663TIP3    H144404   4.359   6.460  13.021  0.7096  0.9746 -0.3110
 7663TIP3    H244405   4.378   6.471  13.171 -3.6476 -0.7847  0.5321
 7664TIP3   OH244406   1.498   3.587   5.286  0.1382  0.3853  0.1420
 7664TIP3    H144407   1.472   3.503   5.246  1.4101  0.7167 -1.5022
 7664TIP3    H244408   1.520   3.565   5.376 -1.7617 -0.6225  0.4130
 7665TIP3   OH244409   6.559   4.527   3.812  0.4273 -0.2816  0.3017
 7665TIP3    H144410   6.565   4.453   3.872 -0.5463 -0.8058 -0.2163
 7665TIP3    H244411   6.633   4.515   3.752  0.0068 -1.1041 -0.0626
 7666TIP3   OH244412   4.444   3.084   2.910  0.1102 -0.3008  0.4535
 7666TIP3    H144413   4.365   3.134   2.892  0.9300  0.3813 -1.4406
 7666TIP3    H244414   4.478   3.120   2.992 -0.4149  0.8156  0.1866
 7667TIP3   OH244415   4.304   6.120   3.901 -0.1303 -0.2603 -0.3553
 7667TIP3    H144416   4.347   6.095   3.819 -2.7110 -0.9792 -1.6198
 7667TIP3    H244417   4.213   6.135   3.875 -1.1138 -0.8503  2.4560
 7668TIP3   OH244418   5.363   5.695  13.958 -0.1170 -0.6401 -0.4026
 7668TIP3    H144419   5.367   5.788  13.935  0.1441 -1.0029 -1.9286
 7668TIP3    H244420   5.274   5.668  13.935 -0.4708 -0.5836  0.8484
 7669TIP3   OH244421   5.412   5.477  15.410  0.0223 -0.1301  0.5198
 7669TIP3    H144422   5.448   5.397  15.449  0.7056 -0.5301 -0.8708
 7669TIP3    H244423   5.375   5.448  15.326 -0.1940  0.9274  0.2307
 7670TIP3   OH244424   0.114   3.492   2.906 -0.0065  0.4705 -0.0618
 7670TIP3    H144425   0.144   3.420   2.962 -1.4379  0.5193  0.8047
 7670TIP3    H244426   0.041   3.455   2.857  0.3609  0.8386 -0.8975
 7671TIP3   OH244427   6.303   3.991  14.634  0.1184  0.2855  0.2024
 7671TIP3    H144428   6.219   3.983  14.678  0.6319 -3.3646  0.8424
 7671TIP3    H244429   6.282   3.996  14.541 -0.8160  0.3014  0.4077
 7672TIP3   OH244430   0.346   0.731   1.655  0.0444 -0.3208 -0.5264
 7672TIP3    H144431   0.327   0.758   1.565 -0.2104  0.4603 -0.2428
 7672TIP3    H244432   0.271   0.678   1.680  0.4525 -1.1616 -1.0142
 7673TIP3   OH244433   0.165   1.228  13.489  0.2987  0.3648 -0.1797
 7673TIP3    H144434   0.118   1.311  13.499 -0.8021 -0.4639  2.6034
 7673TIP3    H244435   0.218   1.239  13.410 -1.2388  2.9864 -0.9567
 7674TIP3   OH244436   1.055   6.133   0.909  0.0183  0.4592 -0.6248
 7674TIP3    H144437   1.073   6.044   0.939  0.7015  0.4137 -1.1475
 7674TIP3    H244438   1.141   6.172   0.896 -0.2749  1.0636 -0.8020
 7675TIP3   OH244439   1.683   0.319   3.978  0.0637 -0.1553  0.0650
 7675TIP3    H144440   1.599   0.337   3.935 -0.5200 -0.4403  1.0520
 7675TIP3    H244441   1.694   0.391   4.040  0.7004  0.0310 -0.2505
 7676TIP3   OH244442   4.995   4.669   5.724  0.3326  0.0210  0.0369
 7676TIP3    H144443   5.087   4.687   5.706  0.8651 -1.8186  0.7494
 7676TIP3    H244444   4.991   4.653   5.818 -1.2718  2.9498  0.5982
 7677TIP3   OH244445   3.895   1.415  11.645 -0.4336  0.3031 -0.5239
 7677TIP3    H144446   3.926   1.407  11.555 -1.6420 -0.2754 -0.9192
 7677TIP3    H244447   3.852   1.331  11.663 -0.5403  0.5581  0.4522
 7678TIP3   OH244448   0.479   3.692   5.286  1.0129  0.3567  0.6144
 7678TIP3    H144449   0.511   3.728   5.370  2.7342  0.1186  0.1032
 7678TIP3    H244450   0.395   3.652   5.308  0.4955  1.9881  1.8349
 7679TIP3   OH244451   2.771   6.651  16.239 -0.1152  0.2539 -0.1999
 7679TIP3    H144452   2.787   6.742  16.264 -3.3094  0.9322 -0.2264
 7679TIP3    H244453   2.711   6.657  16.165 -1.3795 -1.8675  0.5635
 7680TIP3   OH244454   3.022   5.458  11.423  0.3251 -0.2633 -0.3243
 7680TIP3    H144455   3.014   5.366  11.401 -1.0399 -0.6554  1.5956
 7680TIP3    H244456   2.987   5.504  11.346  3.2546 -1.1442 -2.3684
 7681TIP3   OH244457   4.157   3.538   2.054 -0.6261 -0.1732 -0.4566
 7681TIP3    H144458   4.190   3.493   1.976  0.6561  1.0045 -0.6320
 7681TIP3    H244459   4.184   3.482   2.127  1.4995  0.5441 -0.6269
 7682TIP3   OH244460   3.069   2.204  11.848 -0.0610  0.0451  0.1244
 7682TIP3    H144461   2.982   2.164  11.855  0.2416 -0.8634 -0.9866
 7682TIP3    H244462   3.130   2.136  11.876  0.2778  0.9065  1.5662
 7683TIP3   OH244463   4.471   5.007  17.287  0.3170  0.0066 -0.6295
 7683TIP3    H144464   4.471   5.095  17.325  1.5522 -0.2258 -0.0329
 7683TIP3    H244465   4.526   5.014  17.209 -0.5785  0.0190 -1.2833
 7684TIP3   OH244466   4.278   1.959   2.800 -0.0450 -0.0024  0.0681
 7684TIP3    H144467   4.273   1.876   2.751  2.3703 -0.4038  0.4007
 7684TIP3    H244468   4.207   2.012   2.763 -0.9775 -1.8191 -0.9008
 7685TIP3   OH244469   6.213   0.428  15.850  0.6633 -0.1967 -0.6951
 7685TIP3    H144470   6.165   0.482  15.913 -0.8045 -1.4564 -0.6948
 7685TIP3    H244471   6.277   0.381  15.904 -0.7100 -1.4097 -0.0778
 7686TIP3   OH244472   4.682   5.957   3.596  0.2628  0.2038 -0.4701
 7686TIP3    H144473   4.683   5.988   3.505 -1.1823  1.4693 -0.1006
 7686TIP3    H244474   4.771   5.970   3.627  0.8723 -0.5798 -1.7932
 7687TIP3   OH244475   2.476   6.774   4.616  0.0281  0.4864  0.4230
 7687TIP3    H144476   2.393   6.741   4.653  0.0483  0.2059  0.2231
 7687TIP3    H244477   2.487   6.724   4.535  2.1803 -2.1347  2.1278
 7688TIP3   OH244478   4.368   0.350   4.418 -0.0983 -0.7093 -0.1025
 7688TIP3    H144479   4.353   0.417   4.485 -0.7616  0.3103 -1.2222
 7688TIP3    H244480   4.408   0.277   4.465  1.5186  0.8118  1.0342
 7689TIP3   OH244481   2.677   6.425  11.766  0.0482 -0.0615  0.7457
 7689TIP3    H144482   2.661   6.395  11.855  0.8026 -1.2877  0.4854
 7689TIP3    H244483   2.754   6.483  11.774  0.5310 -0.7023  0.8008
 7690TIP3   OH244484   0.306   1.937  14.339  0.3360  0.3608  0.2168
 7690TIP3    H144485   0.381   1.950  14.397  1.1173  1.3769 -0.9523
 7690TIP3    H244486   0.342   1.949  14.251 -0.7488 -1.3969 -0.5184
 7691TIP3   OH244487   1.587   3.020  16.938 -0.2738  0.1381 -0.2310
 7691TIP3    H144488   1.601   3.029  16.844 -1.5179 -0.8246 -0.5400
 7691TIP3    H244489   1.575   2.926  16.951 -1.2304  0.3682  0.7004
 7692TIP3   OH244490   2.376   3.622  14.965 -0.2215 -0.6743 -0.0747
 7692TIP3    H144491   2.456   3.579  14.935  0.9101  1.2388  0.0688
 7692TIP3    H244492   2.390   3.638  15.058 -0.4706  0.2796 -0.1913
 7693TIP3   OH244493   4.029   5.745   6.573  0.1793  0.3889  0.2133
 7693TIP3    H144494   4.125   5.744   6.564  0.2453  1.6370  0.5306
 7693TIP3    H244495   4.008   5.662   6.614  1.0757 -0.1385 -0.3615
 7694TIP3   OH244496   2.186   6.337   5.776  0.2310  0.0435  0.1654
 7694TIP3    H144497   2.185   6.242   5.765 -1.0510 -0.0970  1.3001
 7694TIP3    H244498   2.106   6.357   5.824  1.6231  1.4354  2.0689
 7695TIP3   OH244499   5.245   4.333   5.439  0.2631  0.4458  0.6408
 7695TIP3    H144500   5.180   4.400   5.418 -0.1088  0.0128  0.3831
 7695TIP3    H244501   5.202   4.278   5.504  0.8181  0.8498  1.3531
 7696TIP3   OH244502   3.142   0.990   2.478  0.3166  0.2455  0.2790
 7696TIP3    H144503   3.075   0.954   2.537  1.3348 -1.2979  0.5436
 7696TIP3    H244504   3.148   0.927   2.407  2.8276 -0.6824  1.2315
 7697TIP3   OH244505   5.212   2.822   5.785  0.1795 -0.2803  0.2834
 7697TIP3    H144506   5.181   2.744   5.740 -1.4597  0.9305 -0.7801
 7697TIP3    H244507   5.148   2.837   5.854 -0.1983  0.7560 -0.2661
 7698TIP3   OH244508   6.185   6.042  13.900 -0.4775  0.1767 -0.4296
 7698TIP3    H144509   6.266   6.007  13.863 -1.1594 -0.4715 -1.3598
 7698TIP3    H244510   6.149   6.098  13.830 -0.6731  0.7290  0.1027
 7699TIP3   OH244511   1.350   1.984  13.569 -0.0022  0.4779  0.6364
 7699TIP3    H144512   1.312   1.911  13.618 -0.0038  0.2719  0.3297
 7699TIP3    H244513   1.409   1.943  13.506 -1.1614  0.6371 -0.5922
 7700TIP3   OH244514   5.030   1.303  14.879 -0.3081  0.2891  0.0300
 7700TIP3    H144515   4.977   1.370  14.836  1.3163  1.6958  0.0844
 7700TIP3    H244516   5.097   1.353  14.926  0.4589 -1.3707  0.7706
 7701TIP3   OH244517   2.165   4.396  14.157  0.8791  0.1615  0.8096
 7701TIP3    H144518   2.221   4.339  14.210  0.1105  0.0193  1.4870
 7701TIP3    H244519   2.215   4.477  14.148  0.9356  0.2768  1.9661
 7702TIP3   OH244520   6.279   4.041   1.158  0.0783 -0.0828  0.2675
 7702TIP3    H144521   6.258   4.132   1.181  1.2369  0.3672 -0.3698
 7702TIP3    H244522   6.263   4.036   1.064 -1.6009 -1.0317  0.5715
 7703TIP3   OH244523   2.455   0.106   3.588  0.6213  0.1054  0.1795
 7703TIP3    H144524   2.452   0.136   3.679 -2.7764 -0.0918  0.2590
 7703TIP3    H244525   2.479   0.013   3.594  1.4574  0.3577  0.7821
 7704TIP3   OH244526   1.922   0.946   5.054 -0.1210 -0.4051 -0.0754
 7704TIP3    H144527   2.006   0.972   5.091 -0.4222  0.5927 -0.0585
 7704TIP3    H244528   1.900   0.864   5.100  0.3822 -0.1637  0.6208
 7705TIP3   OH244529   5.131   4.474   2.218 -0.2393 -0.3273  0.2223
 7705TIP3    H144530   5.035   4.475   2.213 -0.1973 -0.0904 -0.7855
 7705TIP3    H244531   5.151   4.494   2.310 -1.1560 -0.6491  0.5016
 7706TIP3   OH244532   5.779   2.848   2.124  0.1399 -0.0856 -0.7014
 7706TIP3    H144533   5.793   2.765   2.080 -0.7208 -0.1626 -0.8485
 7706TIP3    H244534   5.684   2.856   2.132  0.2410 -0.0937  1.1629
 7707TIP3   OH244535   3.970   6.035   5.064  0.8032  0.3006  0.3229
 7707TIP3    H144536   4.057   6.011   5.095 -0.2102 -1.2182  2.2114
 7707TIP3    H244537   3.949   5.971   4.997  0.4271 -0.5221  1.2050
 7708TIP3   OH244538   4.834   1.495  11.376 -0.2374 -0.2566 -0.1379
 7708TIP3    H144539   4.874   1.581  11.386 -1.2918  0.4914 -1.7366
 7708TIP3    H244540   4.740   1.512  11.382 -0.4482 -1.3446 -0.1482
 7709TIP3   OH244541   2.901   4.899   3.118 -0.3790  0.2229 -0.0778
 7709TIP3    H144542   2.902   4.953   3.039 -0.1130  1.2079  0.5868
 7709TIP3    H244543   2.967   4.938   3.175  0.2326 -1.1574  0.1961
 7710TIP3   OH244544   3.318   4.648  13.453  0.3290  0.3572  1.0043
 7710TIP3    H144545   3.320   4.660  13.358 -1.3973  0.5706  0.9756
 7710TIP3    H244546   3.226   4.656  13.477  0.3230 -2.5092  2.3542
 7711TIP3   OH244547   1.928   1.700   3.894 -0.4165 -0.0998 -0.0704
 7711TIP3    H144548   2.003   1.685   3.836  1.5028 -2.4852  2.7043
 7711TIP3    H244549   1.929   1.794   3.910  1.9801 -0.0288 -0.1949
 7712TIP3   OH244550   0.169   4.928   1.537  0.0736 -0.4624 -0.3150
 7712TIP3    H144551   0.200   4.980   1.611 -0.9600 -0.2506 -0.0109
 7712TIP3    H244552   0.203   4.840   1.552  0.9261 -0.1278 -0.2622
 7713TIP3   OH244553   5.931   5.230  12.354  0.5227 -0.3120  0.0416
 7713TIP3    H144554   5.877   5.309  12.365  0.6532 -0.3268  0.8979
 7713TIP3    H244555   5.943   5.197  12.443  2.6898  0.1958  0.0095
 7714TIP3   OH244556   0.578   0.544   4.792 -0.5672  0.3941  0.3135
 7714TIP3    H144557   0.594   0.522   4.700 -1.9060  0.1799  0.1195
 7714TIP3    H244558   0.485   0.526   4.806  0.2190 -2.7005  2.5825
 7715TIP3   OH244559   2.937   1.772   0.849 -0.7498 -0.3813 -0.0599
 7715TIP3    H144560   2.886   1.806   0.922 -0.6739 -1.9190  0.7300
 7715TIP3    H244561   3.027   1.800   0.868 -0.5356 -1.7533  1.0672
 7716TIP3   OH244562   3.500   1.821   2.545  0.2512 -0.1064  0.0466
 7716TIP3    H144563   3.423   1.845   2.494 -0.2612  0.3570  1.0178
 7716TIP3    H244564   3.559   1.780   2.481  0.6496  2.5477 -1.4786
 7717TIP3   OH244565   4.653   1.030   4.420  0.2404 -0.6830  0.2606
 7717TIP3    H144566   4.662   1.088   4.496 -0.5206  1.5830 -1.3021
 7717TIP3    H244567   4.739   1.030   4.379 -0.0255  0.2389 -0.3254
 7718TIP3   OH244568   4.993   3.884  14.411 -0.8869 -0.1711 -0.2721
 7718TIP3    H144569   5.049   3.812  14.439  0.4960  0.5598 -1.0612
 7718TIP3    H244570   5.011   3.954  14.474  0.0710  0.4914 -1.2442
 7719TIP3   OH244571   5.006   3.986  10.926  0.1486  0.2718  0.1851
 7719TIP3    H144572   5.065   3.912  10.911 -2.9586 -2.3488 -0.3133
 7719TIP3    H244573   4.992   4.024  10.839  0.5951  0.5082  0.2141
 7720TIP3   OH244574   2.468   1.220  15.718 -1.0653 -0.0443  0.1767
 7720TIP3    H144575   2.411   1.242  15.643 -0.3422  0.9773 -0.0899
 7720TIP3    H244576   2.535   1.162  15.680 -0.0470  1.3637 -0.2399
 7721TIP3   OH244577   6.211   1.369   5.773  0.0113  0.8630 -0.6991
 7721TIP3    H144578   6.250   1.410   5.696 -0.3624  0.3290 -1.1844
 7721TIP3    H244579   6.176   1.442   5.824  1.1381  1.2944 -0.5346
 7722TIP3   OH244580   3.046   3.504  12.509  0.0014 -0.4002 -0.1559
 7722TIP3    H144581   2.990   3.443  12.557  0.7339 -0.4387  0.6672
 7722TIP3    H244582   3.085   3.559  12.577  1.4911 -0.8080 -0.6422
 7723TIP3   OH244583   2.916   2.344  13.816  0.1606  0.4389  0.0725
 7723TIP3    H144584   2.911   2.249  13.826  1.7474  0.3484  0.1651
 7723TIP3    H244585   2.831   2.368  13.777 -0.2076 -1.0190 -0.0904
 7724TIP3   OH244586   6.361   3.829   4.656  0.4873  0.7764 -0.2142
 7724TIP3    H144587   6.415   3.894   4.699  1.4596 -0.1477 -0.0049
 7724TIP3    H244588   6.320   3.876   4.583 -0.3108  2.0683  1.0216
 7725TIP3   OH244589   1.626   5.867  13.064  0.0656 -0.0296  0.1131
 7725TIP3    H144590   1.648   5.826  13.148 -0.5473  1.7708  1.1867
 7725TIP3    H244591   1.562   5.808  13.024 -2.0150  0.5640  2.3421
 7726TIP3   OH244592   5.484   4.173   1.242 -0.0040 -0.2499  0.0418
 7726TIP3    H144593   5.482   4.141   1.152 -1.7189  1.1517 -0.4625
 7726TIP3    H244594   5.421   4.117   1.288 -0.8396  0.4757 -0.1848
 7727TIP3   OH244595   1.594   1.862   3.026 -0.1531  0.1922  0.9789
 7727TIP3    H144596   1.688   1.845   3.038 -0.3705 -1.7425  0.2964
 7727TIP3    H244597   1.556   1.850   3.113  0.2616  1.2368  1.3091
 7728TIP3   OH244598   3.699   0.081   5.488  0.3625  0.4451  0.0972
 7728TIP3    H144599   3.724   0.121   5.404 -0.1736  4.1159  1.4996
 7728TIP3    H244600   3.604   0.080   5.487  0.3644 -0.2914  0.3372
 7729TIP3   OH244601   3.382   6.665  12.969 -0.1691 -0.0183 -0.0615
 7729TIP3    H144602   3.411   6.757  12.971 -0.4782  0.1656 -2.2002
 7729TIP3    H244603   3.412   6.629  13.053  1.2885  1.6288  0.1844
 7730TIP3   OH244604   1.862   3.911  13.554 -0.0659 -0.0874 -0.4774
 7730TIP3    H144605   1.812   3.845  13.602  1.2584 -1.0761 -0.4007
 7730TIP3    H244606   1.797   3.976  13.527 -1.1099 -0.4521  1.0688
 7731TIP3   OH244607   0.565   5.808   0.081  0.2243  0.3457 -0.5888
 7731TIP3    H144608   0.631   5.739   0.091 -0.3329 -0.2625 -0.9785
 7731TIP3    H244609   0.612   5.889   0.097  1.0655 -0.0785 -0.8420
 7732TIP3   OH244610   1.286   0.182   1.752 -0.5961 -0.0704  0.0672
 7732TIP3    H144611   1.315   0.093   1.733 -2.6369 -0.7241 -0.2245
 7732TIP3    H244612   1.306   0.231   1.672 -3.9468 -1.5028 -1.8838
 7733TIP3   OH244613   4.750   4.515   3.995 -0.5761  0.0886 -0.3275
 7733TIP3    H144614   4.767   4.477   3.909  0.3200  1.6986 -0.9234
 7733TIP3    H244615   4.835   4.547   4.024 -1.0270  0.3422  0.7668
 7734TIP3   OH244616   4.771   3.763  17.263 -0.7731  0.4465 -0.1963
 7734TIP3    H144617   4.849   3.817  17.275  2.8339 -3.8180 -1.6594
 7734TIP3    H244618   4.755   3.764  17.168 -0.1203 -1.4266 -0.3804
 7735TIP3   OH244619   2.548   2.146   0.140  0.3345  0.0532 -0.5692
 7735TIP3    H144620   2.514   2.062   0.111  0.5029  0.0113 -0.6459
 7735TIP3    H244621   2.521   2.208   0.072 -0.7832  0.2714  0.0557
 7736TIP3   OH244622   1.400   3.424  11.799 -0.0702  0.2408  0.2373
 7736TIP3    H144623   1.347   3.457  11.872  0.5919  0.8927  0.4398
 7736TIP3    H244624   1.487   3.461  11.815  0.2613 -0.2143 -0.4893
 7737TIP3   OH244625   3.196   6.036  14.190  0.0251 -0.0546  0.4507
 7737TIP3    H144626   3.244   5.955  14.170 -0.3638 -0.4008  0.8986
 7737TIP3    H244627   3.106   6.007  14.205  0.0400  0.3665  1.3765
 7738TIP3   OH244628   6.205   2.765   2.620 -0.7226 -0.8962  0.2527
 7738TIP3    H144629   6.293   2.772   2.657 -1.0514  0.4241  0.8277
 7738TIP3    H244630   6.147   2.801   2.688 -1.3362  1.7052 -1.5070
 7739TIP3   OH244631   0.417   2.360  14.187 -0.1063 -0.1349 -0.1259
 7739TIP3    H144632   0.418   2.301  14.113  1.0616 -0.3166  0.0228
 7739TIP3    H244633   0.390   2.444  14.150 -1.2883 -0.6213 -0.4202
 7740TIP3   OH244634   3.353   5.451   5.105 -0.5754  0.2367 -0.5377
 7740TIP3    H144635   3.445   5.462   5.126 -0.7582  0.0479  0.4097
 7740TIP3    H244636   3.308   5.461   5.189 -1.5454  1.8110 -1.1847
 7741TIP3   OH244637   0.628   3.203   2.164 -0.6273 -0.1156 -0.5486
 7741TIP3    H144638   0.662   3.288   2.135 -0.5109  0.3015  0.7480
 7741TIP3    H244639   0.626   3.210   2.260 -0.4343 -1.6452 -0.4131
 7742TIP3   OH244640   6.259   3.285   2.992 -0.3273 -0.3891  0.4375
 7742TIP3    H144641   6.251   3.313   3.083 -0.0214 -0.3303  0.4448
 7742TIP3    H244642   6.350   3.302   2.969 -0.6106  0.3818 -0.1374
 7743TIP3   OH244643   0.011   1.090   3.159  0.0681  1.0063  0.3595
 7743TIP3    H144644   0.000   1.184   3.174 -0.5696  1.0062 -0.0398
 7743TIP3    H244645  -0.077   1.055   3.166  0.3409  0.3979  0.7460
 7744TIP3   OH244646   5.013   1.531   2.795  0.2390 -0.1645 -0.1374
 7744TIP3    H144647   5.063   1.450   2.803  2.1083  0.9814  0.1813
 7744TIP3    H244648   5.079   1.599   2.780 -1.2222  1.4278  0.3919
 7745TIP3   OH244649   4.271   1.264  14.265  0.2907  0.2635 -0.2559
 7745TIP3    H144650   4.177   1.270  14.252  0.3647 -0.9459 -1.6034
 7745TIP3    H244651   4.288   1.171  14.277  1.5364  0.1915 -2.1919
 7746TIP3   OH244652   3.887   0.534   3.399 -0.5165 -0.5507  0.6819
 7746TIP3    H144653   3.841   0.538   3.315  0.2646  0.0063  0.2652
 7746TIP3    H244654   3.959   0.597   3.390 -0.2717 -0.6721  1.6783
 7747TIP3   OH244655   5.741   2.536   5.404  0.1084  0.1139  0.4141
 7747TIP3    H144656   5.675   2.577   5.348  0.4507  1.0826  0.6873
 7747TIP3    H244657   5.778   2.609   5.454  1.0621 -0.4755  0.5982
 7748TIP3   OH244658   0.399   6.070  12.474 -0.9728  0.4276 -0.2900
 7748TIP3    H144659   0.348   6.131  12.528 -0.3211  1.7873 -1.1722
 7748TIP3    H244660   0.489   6.102  12.479 -0.8517  0.4386 -1.9635
 7749TIP3   OH244661   3.701   4.708   0.389  0.2387  0.0836 -0.6725
 7749TIP3    H144662   3.731   4.654   0.316 -0.0525  0.6186 -1.1934
 7749TIP3    H244663   3.772   4.702   0.454  0.7378  0.0306 -1.2127
 7750TIP3   OH244664   2.526   1.278  12.855 -0.2363  0.0793 -0.3366
 7750TIP3    H144665   2.446   1.289  12.907  0.3862 -0.5752  0.8020
 7750TIP3    H244666   2.551   1.186  12.868 -0.7701 -0.5138 -2.8885
 7751TIP3   OH244667   1.674   2.258  17.120  0.2186 -0.1481  0.2600
 7751TIP3    H144668   1.676   2.239  17.214 -1.4855 -0.5414  0.2488
 7751TIP3    H244669   1.607   2.199  17.085  0.9322 -0.1101 -1.2395
 7752TIP3   OH244670   5.639   6.170   2.738  0.2040  0.5977 -0.7721
 7752TIP3    H144671   5.597   6.244   2.782 -0.7254 -0.1752 -0.3144
 7752TIP3    H244672   5.575   6.100   2.744 -0.5086  0.7747 -4.4388
 7753TIP3   OH244673   4.376   2.132   3.217 -0.7270  0.3987  0.1678
 7753TIP3    H144674   4.284   2.106   3.226 -0.3427 -0.6274  1.3719
 7753TIP3    H244675   4.380   2.220   3.256 -0.6040 -0.9014  3.3962
 7754TIP3   OH244676   1.041   0.435  10.590  0.2541 -0.8509  0.0114
 7754TIP3    H144677   0.973   0.430  10.657  0.7932 -0.4838  0.5885
 7754TIP3    H244678   1.117   0.393  10.630  0.7631 -0.0751 -0.1317
 7755TIP3   OH244679   4.070   2.219  15.559 -0.3105  0.7075  0.0254
 7755TIP3    H144680   4.033   2.144  15.605 -0.4386  0.0198 -1.1706
 7755TIP3    H244681   4.150   2.240  15.607  0.7175 -1.3605 -0.6872
 7756TIP3   OH244682   2.515   4.224   0.664  0.0630  0.5566  0.5908
 7756TIP3    H144683   2.575   4.227   0.738  0.6874  1.2347  0.0730
 7756TIP3    H244684   2.437   4.269   0.694  0.8221  2.0505  0.4130
 7757TIP3   OH244685   4.445   4.541  14.046 -0.1720 -0.3276  0.6238
 7757TIP3    H144686   4.501   4.567  14.118  0.9027 -0.4963 -0.1282
 7757TIP3    H244687   4.489   4.466  14.007  0.9731  1.5671 -2.0885
 7758TIP3   OH244688   3.767   1.003  13.771  0.1257  0.5117  0.1272
 7758TIP3    H144689   3.772   0.927  13.714 -0.6768  0.0020  0.7204
 7758TIP3    H244690   3.762   1.078  13.710 -0.7177 -0.0184 -0.4719
 7759TIP3   OH244691   3.242   2.433  10.856  0.0717  0.2129  0.3036
 7759TIP3    H144692   3.276   2.522  10.867  2.0445 -0.2450 -1.4406
 7759TIP3    H244693   3.316   2.383  10.821 -1.2749 -1.8861  0.2588
 7760TIP3   OH244694   5.811   3.352  13.100 -0.0157  0.1948 -0.0740
 7760TIP3    H144695   5.817   3.402  13.019  1.3591  0.9583  0.4581
 7760TIP3    H244696   5.813   3.419  13.169 -2.0388 -0.3710  0.6046
 7761TIP3   OH244697   3.866   1.620   4.287  0.3888  0.2601  0.3444
 7761TIP3    H144698   3.846   1.706   4.250  1.4539 -0.6144 -2.6110
 7761TIP3    H244699   3.848   1.559   4.215 -0.0939 -1.9993  2.2554
 7762TIP3   OH244700   3.058   2.160   1.486  0.3537 -0.6613  0.1922
 7762TIP3    H144701   3.026   2.228   1.427  2.3287 -1.7149 -2.2892
 7762TIP3    H244702   3.005   2.083   1.464 -0.3480 -0.5527  1.3943
 7763TIP3   OH244703   3.677   0.719   0.696  0.2942  0.5343  0.2939
 7763TIP3    H144704   3.588   0.737   0.726 -0.3202 -0.5662 -0.7585
 7763TIP3    H244705   3.732   0.776   0.749 -1.1345  2.2280  0.0861
 7764TIP3   OH244706   3.086   2.851   3.478  0.2800  1.0087 -0.1382
 7764TIP3    H144707   3.086   2.938   3.518  1.5511  1.0787 -0.2270
 7764TIP3    H244708   3.174   2.842   3.441 -0.2643  0.1963 -1.2848
 7765TIP3   OH244709   3.112   2.748   6.005 -0.0098 -0.9531 -0.2966
 7765TIP3    H144710   3.116   2.686   6.078  0.9557 -0.6465 -0.0806
 7765TIP3    H244711   3.195   2.794   6.007 -0.1440 -0.6251 -1.3256
 7766TIP3   OH244712   4.948   0.126   5.097  0.2732 -0.0790  0.1117
 7766TIP3    H144713   4.984   0.062   5.036  1.3469 -0.5833  1.2260
 7766TIP3    H244714   4.957   0.210   5.051 -2.0222 -0.7524 -1.7543
 7767TIP3   OH244715   0.174   4.866   2.450  0.5445 -0.1226 -0.1764
 7767TIP3    H144716   0.241   4.847   2.384 -0.3004  0.3628 -1.1975
 7767TIP3    H244717   0.206   4.822   2.529  1.1014 -1.5588 -1.1507
 7768TIP3   OH244718   4.723   3.026  11.024  0.3885 -0.1203 -0.4139
 7768TIP3    H144719   4.631   3.032  11.049  0.5310  0.8326 -0.0784
 7768TIP3    H244720   4.723   2.972  10.945 -0.8189  2.4337 -2.2870
 7769TIP3   OH244721   4.558   6.142   1.957  0.7325 -0.0099 -0.3080
 7769TIP3    H144722   4.623   6.210   1.976 -0.3730  0.6439  1.3260
 7769TIP3    H244723   4.603   6.060   1.979  1.0154  0.4345  0.8488
 7770TIP3   OH244724   4.022   4.427   0.536  0.3399  0.6084 -0.1894
 7770TIP3    H144725   4.087   4.360   0.557  0.8504  1.1216 -0.0872
 7770TIP3    H244726   4.049   4.460   0.450 -0.7372 -0.2891 -0.8960
 7771TIP3   OH244727   4.850   6.251  14.522 -0.2953  0.1707 -0.3262
 7771TIP3    H144728   4.798   6.184  14.478 -0.2937  0.3636 -0.6241
 7771TIP3    H244729   4.919   6.203  14.566 -1.0367 -0.1468  0.5283
 7772TIP3   OH244730   0.528   6.469  12.760 -0.1876 -0.1421  0.9473
 7772TIP3    H144731   0.555   6.504  12.675  1.1312 -0.9231  1.0028
 7772TIP3    H244732   0.440   6.436  12.746 -0.0040 -0.2152 -0.1113
 7773TIP3   OH244733   2.450   1.213  16.138 -0.4589 -0.0920  0.1566
 7773TIP3    H144734   2.397   1.142  16.102  0.6769  0.0656 -2.0057
 7773TIP3    H244735   2.473   1.266  16.062  3.4587 -0.6252  0.7328
 7774TIP3   OH244736   0.578   2.458   4.311  0.0463  0.3718  0.2659
 7774TIP3    H144737   0.565   2.474   4.218  0.0333 -0.2470  0.1613
 7774TIP3    H244738   0.657   2.404   4.316 -1.0986 -1.3365  0.4664
 7775TIP3   OH244739   3.017   1.711  11.092  0.0707  0.1075 -0.5187
 7775TIP3    H144740   2.935   1.722  11.044 -1.1326  1.8456  1.7320
 7775TIP3    H244741   3.083   1.749  11.035 -1.2466  1.8637 -0.9676
 7776TIP3   OH244742   5.688   2.186   2.775  0.2774  0.0114 -0.4467
 7776TIP3    H144743   5.598   2.174   2.745 -0.3188  0.5627  1.0517
 7776TIP3    H244744   5.709   2.104   2.820  0.6663 -0.2491 -1.0808
 7777TIP3   OH244745   4.499   1.325   1.080  0.0140 -0.1639 -0.0628
 7777TIP3    H144746   4.575   1.350   1.028  0.2129  0.3321  0.4422
 7777TIP3    H244747   4.517   1.363   1.167  0.0954 -1.6887  0.6134
 7778TIP3   OH244748   5.915   6.406   1.714  0.2711  0.1094 -0.3895
 7778TIP3    H144749   5.976   6.338   1.739 -0.6260 -0.3472  0.6225
 7778TIP3    H244750   5.911   6.401   1.619  0.6475 -0.8587 -0.3593
 7779TIP3   OH244751   2.897   4.355   1.814 -0.8596 -0.4780  0.1652
 7779TIP3    H144752   2.965   4.387   1.873 -0.1986 -0.2041 -0.7221
 7779TIP3    H244753   2.944   4.333   1.733 -1.6876 -1.2110 -0.1306
 7780TIP3   OH244754   2.667   3.296   4.709 -0.1193 -0.1643 -0.0517
 7780TIP3    H144755   2.753   3.320   4.742 -0.2660  0.3235 -0.0191
 7780TIP3    H244756   2.627   3.246   4.781  0.1722 -0.4901 -0.1095
 7781TIP3   OH244757   3.867   3.247   3.822 -0.0384  0.3079 -0.3748
 7781TIP3    H144758   3.817   3.216   3.897  0.9104 -0.1865  0.0584
 7781TIP3    H244759   3.806   3.240   3.748 -0.7307  0.0855  0.2093
 7782TIP3   OH244760   5.671   3.711  14.709  0.3202 -0.4556  0.1032
 7782TIP3    H144761   5.649   3.778  14.775  0.8075 -0.9093  0.7429
 7782TIP3    H244762   5.587   3.670  14.688  0.3846 -1.6524  1.9383
 7783TIP3   OH244763   1.898   1.683  14.990 -0.7050  0.0961  0.3571
 7783TIP3    H144764   1.934   1.765  15.024  0.0771 -0.0302 -0.1265
 7783TIP3    H244765   1.942   1.672  14.905  0.6720 -1.8025  1.2603
 7784TIP3   OH244766   1.733   1.262   5.213  0.2845  0.2914  0.0716
 7784TIP3    H144767   1.827   1.247   5.208  0.3144  0.6540 -0.4984
 7784TIP3    H244768   1.694   1.183   5.176  0.4012  0.7555 -1.0782
 7785TIP3   OH244769   1.391   5.016  12.198  0.0961 -0.0409 -0.3731
 7785TIP3    H144770   1.467   5.022  12.140  0.2466  2.5206 -0.0268
 7785TIP3    H244771   1.327   5.076  12.159 -1.0362 -0.7281  0.3861
 7786TIP3   OH244772   4.116   0.484  16.112 -0.0340 -0.2557 -0.3384
 7786TIP3    H144773   4.027   0.453  16.095  0.2204 -0.5459 -1.1838
 7786TIP3    H244774   4.161   0.410  16.151 -0.8903  0.6945  2.7573
 7787TIP3   OH244775   5.379   3.884   1.702  0.0391  0.3623 -0.1574
 7787TIP3    H144776   5.328   3.937   1.763  2.2704  0.5384  1.7071
 7787TIP3    H244777   5.380   3.936   1.621 -0.6326  1.5246  0.5453
 7788TIP3   OH244778   2.968   4.274   5.534 -0.2949 -0.5586  0.1175
 7788TIP3    H144779   3.063   4.263   5.536 -0.3938 -1.5312 -0.0618
 7788TIP3    H244780   2.934   4.191   5.499 -1.1815 -0.0471 -0.2818
 7789TIP3   OH244781   1.907   6.419  12.214 -0.6200 -0.1567  0.0475
 7789TIP3    H144782   1.979   6.478  12.236 -0.2505 -1.0288  1.3036
 7789TIP3    H244783   1.831   6.476  12.203  0.1302  0.7181 -0.7158
 7790TIP3   OH244784   4.597   1.312  12.501 -0.3123  0.0884  0.0943
 7790TIP3    H144785   4.637   1.398  12.485 -1.5350  0.8574  1.0674
 7790TIP3    H244786   4.503   1.328  12.497 -0.5877 -0.8373  2.1167
 7791TIP3   OH244787   0.316   2.625   0.998  0.2078  0.0218 -0.2213
 7791TIP3    H144788   0.294   2.540   0.960 -3.5037  0.2601  1.0358
 7791TIP3    H244789   0.360   2.603   1.080  0.9234 -0.6259 -0.7628
 7792TIP3   OH244790   3.487   4.335   2.534 -0.2380  0.0371 -0.5605
 7792TIP3    H144791   3.396   4.314   2.515 -0.3368 -1.0213  0.9486
 7792TIP3    H244792   3.483   4.421   2.576 -0.5468 -0.0425 -0.4242
 7793TIP3   OH244793   5.387   2.819   6.028 -1.1984 -0.1945  0.1758
 7793TIP3    H144794   5.418   2.897   6.075 -0.8822 -0.4387  0.3714
 7793TIP3    H244795   5.297   2.841   6.004 -0.7204  0.7350 -0.8677
 7794TIP3   OH244796   0.703   0.605   0.233  0.2049  0.0347 -0.2206
 7794TIP3    H144797   0.749   0.637   0.310 -1.5475  1.6174  0.2133
 7794TIP3    H244798   0.628   0.557   0.267 -0.3507  0.3823 -0.9202
 7795TIP3   OH244799   1.190   6.029   1.523 -0.3573 -0.5013  0.2633
 7795TIP3    H144800   1.187   6.095   1.453 -3.6501  0.9116  1.5361
 7795TIP3    H244801   1.171   5.947   1.479 -2.0447  0.3110 -0.6347
 7796TIP3   OH244802   1.205   1.428  11.898  0.0796  0.3839  0.1442
 7796TIP3    H144803   1.231   1.355  11.842 -1.0848 -0.6737  0.9156
 7796TIP3    H244804   1.129   1.467  11.854  0.6974  1.1591 -0.2667
 7797TIP3   OH244805   0.105   4.768  13.833  0.0108 -0.3784 -0.5388
 7797TIP3    H144806   0.028   4.754  13.888  1.1778 -3.2056  0.5751
 7797TIP3    H244807   0.144   4.848  13.867 -1.4536  0.1277  0.0573
 7798TIP3   OH244808   3.297   2.057   1.557 -0.0108 -0.5761 -0.1779
 7798TIP3    H144809   3.211   2.087   1.527  0.0349 -3.4380 -4.0166
 7798TIP3    H244810   3.288   2.047   1.651 -2.4555  3.1530  0.1802
 7799TIP3   OH244811   1.244   6.090   5.224 -0.0552  0.3640 -0.0445
 7799TIP3    H144812   1.315   6.117   5.281  0.4608  1.4340 -1.1471
 7799TIP3    H244813   1.287   6.055   5.146 -0.7119  1.1258 -0.7745
 7800TIP3   OH244814   2.036   4.287  13.345 -0.1933  0.1655 -0.0003
 7800TIP3    H144815   2.041   4.333  13.429 -0.2581 -0.2428  0.2281
 7800TIP3    H244816   1.947   4.303  13.315 -0.2205  0.1783  0.0857
 7801TIP3   OH244817   6.662   4.696   2.258  0.2096  0.0811 -0.1213
 7801TIP3    H144818   6.652   4.680   2.352 -1.2284 -0.7322 -0.3793
 7801TIP3    H244819   6.756   4.691   2.243  0.3221 -2.9110  0.7994
 7802TIP3   OH244820   5.121   4.751  11.017 -0.3303 -0.0017 -0.0498
 7802TIP3    H144821   5.135   4.731  10.925 -1.2005  0.7035 -0.3520
 7802TIP3    H244822   5.184   4.820  11.037 -0.3478  0.0561 -0.1952
 7803TIP3   OH244823   0.822   1.594  13.403 -0.2365 -0.0119 -0.1888
 7803TIP3    H144824   0.817   1.592  13.499 -0.0791 -1.7098 -0.1806
 7803TIP3    H244825   0.738   1.630  13.376 -0.4020  0.2087  0.5796
 7804TIP3   OH244826   3.878   6.007   3.099  0.2491  0.3826 -0.2659
 7804TIP3    H144827   3.889   6.100   3.119  0.3575  0.0188  1.4986
 7804TIP3    H244828   3.917   5.961   3.174 -4.5521 -1.0661  1.6706
 7805TIP3   OH244829   3.518   6.624  13.666  0.2278 -0.1442 -0.2740
 7805TIP3    H144830   3.599   6.656  13.626  0.3211 -0.5903 -0.4453
 7805TIP3    H244831   3.457   6.616  13.593  0.0804  0.0146 -0.1707
 7806TIP3   OH244832   5.768   4.508   4.112  0.0105  0.5840 -0.1172
 7806TIP3    H144833   5.763   4.530   4.019 -1.6549 -2.2565 -0.8017
 7806TIP3    H244834   5.700   4.561   4.152 -0.3281  0.6583 -0.7761
 7807TIP3   OH244835   2.304   6.135  13.925  0.1254  0.0612  0.6932
 7807TIP3    H144836   2.390   6.165  13.895 -0.0169 -0.4575 -0.2885
 7807TIP3    H244837   2.313   6.129  14.021  0.9942  0.5728  0.6545
 7808TIP3   OH244838   0.516   0.254   2.241 -0.5563  0.3252 -0.0803
 7808TIP3    H144839   0.586   0.283   2.181 -1.4491 -0.8295 -1.7656
 7808TIP3    H244840   0.461   0.332   2.253  1.0267  1.2904  1.3717
 7809TIP3   OH244841   2.738   2.311   4.002 -0.1485 -0.3686  0.0054
 7809TIP3    H144842   2.816   2.327   4.055  0.1481 -0.6432 -0.3475
 7809TIP3    H244843   2.747   2.370   3.928 -0.2102 -0.4973 -0.1050
 7810TIP3   OH244844   3.423   3.578  13.675 -0.3772  0.3024  0.1548
 7810TIP3    H144845   3.495   3.542  13.728 -0.2062 -0.1037 -0.3505
 7810TIP3    H244846   3.381   3.641  13.733 -0.1746 -0.1159  0.7761
 7811TIP3   OH244847   6.016   4.392   1.400  0.5478 -0.4174 -0.7654
 7811TIP3    H144848   5.999   4.447   1.476  2.8514  0.1691 -0.6289
 7811TIP3    H244849   5.929   4.362   1.373 -0.6390  1.9924  0.1065
 7812TIP3   OH244850   3.802   1.665  11.610  0.0901  0.0841  0.1050
 7812TIP3    H144851   3.838   1.577  11.625 -1.0902 -0.1405  2.0651
 7812TIP3    H244852   3.777   1.666  11.518  4.0786 -0.0547 -1.1642
 7813TIP3   OH244853   6.578   6.769   2.544  0.0600  0.2506 -0.4312
 7813TIP3    H144854   6.654   6.712   2.556  0.1949  0.8854  2.3412
 7813TIP3    H244855   6.505   6.709   2.528  0.3298 -0.7086  1.6509
 7814TIP3   OH244856   0.726   5.434  16.688  0.5351  1.0302  0.5660
 7814TIP3    H144857   0.791   5.498  16.718  1.3833  0.3501  0.2006
 7814TIP3    H244858   0.711   5.378  16.764  0.3750  1.1791  0.6458
 7815TIP3   OH244859   1.137   2.358  16.815  0.2566 -0.6032  0.4691
 7815TIP3    H144860   1.135   2.415  16.738  0.3502 -0.3806  0.6326
 7815TIP3    H244861   1.119   2.416  16.889  0.3183 -0.7922  0.6322
 7816TIP3   OH244862   4.337   0.140   0.296  0.5886  0.3757 -0.0088
 7816TIP3    H144863   4.331   0.228   0.332  0.6580  0.0765  0.7363
 7816TIP3    H244864   4.403   0.147   0.227  2.5663  0.3385  1.7939
 7817TIP3   OH244865   5.138   5.516  17.268 -0.0525 -0.1820 -0.3537
 7817TIP3    H144866   5.063   5.473  17.308  0.9857 -1.0675  0.7325
 7817TIP3    H244867   5.162   5.586  17.329 -0.4786  0.6318 -1.0995
 7818TIP3   OH244868   1.162   1.211   1.686  0.7833 -0.4492  0.3194
 7818TIP3    H144869   1.108   1.176   1.757 -0.9800 -1.8117 -1.5584
 7818TIP3    H244870   1.125   1.298   1.669 -0.0849 -0.9026 -0.1804
 7819TIP3   OH244871   2.843   3.385  13.316 -0.1753 -0.3213 -0.0960
 7819TIP3    H144872   2.875   3.413  13.401 -2.4026  0.0199  0.6902
 7819TIP3    H244873   2.871   3.294  13.309  3.2538  0.6617 -0.7149
 7820TIP3   OH244874   3.668   0.239   6.036  0.2448  0.6053 -0.4791
 7820TIP3    H144875   3.584   0.285   6.033  0.7889  1.6916  0.2240
 7820TIP3    H244876   3.719   0.288   6.100  0.8307 -1.0509  0.3758
 7821TIP3   OH244877   4.271   3.252  15.515  0.2568 -0.3154 -0.0397
 7821TIP3    H144878   4.211   3.250  15.441  1.1498  1.7056 -0.9045
 7821TIP3    H244879   4.280   3.161  15.542 -0.6837 -1.0117 -1.9412
 7822TIP3   OH244880   4.767   3.846  16.985 -0.1374  0.1551  0.2632
 7822TIP3    H144881   4.774   3.867  16.892 -0.4091 -2.2511 -0.3698
 7822TIP3    H244882   4.857   3.848  17.017  0.5197 -2.6469 -1.0302
 7823TIP3   OH244883   2.663   1.562  13.830  0.4023 -0.1279 -0.0439
 7823TIP3    H144884   2.704   1.647  13.811 -0.8211  0.3476 -0.6811
 7823TIP3    H244885   2.641   1.566  13.923 -0.5121  0.6617 -0.2759
 7824TIP3   OH244886   1.179   0.066   2.057 -0.0366  0.0655  0.1087
 7824TIP3    H144887   1.217  -0.022   2.069  0.2452  0.1888  0.1307
 7824TIP3    H244888   1.238   0.124   2.104  1.2351  0.5936 -1.9726
 7825TIP3   OH244889   4.760   0.345  15.846  0.4267  0.2245  0.2884
 7825TIP3    H144890   4.790   0.255  15.832 -0.4318 -0.2110  1.1576
 7825TIP3    H244891   4.678   0.352  15.798  0.2805  0.4124  0.5581
 7826TIP3   OH244892   1.766   0.589  16.518 -0.0713 -0.2179 -0.5845
 7826TIP3    H144893   1.819   0.530  16.464  0.4919  0.2264 -0.5264
 7826TIP3    H244894   1.767   0.549  16.605 -1.6843 -1.3946 -1.0474
 7827TIP3   OH244895   1.411   3.053   5.271  0.0576  0.2889  0.1468
 7827TIP3    H144896   1.338   2.990   5.272  0.5039 -0.2596 -0.5482
 7827TIP3    H244897   1.432   3.068   5.363  2.0136 -3.0323  0.3868
 7828TIP3   OH244898   1.893   3.996  16.460  0.2345  0.2861 -0.4880
 7828TIP3    H144899   1.834   3.927  16.492 -0.1577  1.3379  1.1632
 7828TIP3    H244900   1.884   3.993  16.365  0.2607 -1.9599 -0.4839
 7829TIP3   OH244901   0.585   0.098  11.611 -0.7454  0.6362  0.2501
 7829TIP3    H144902   0.508   0.155  11.606 -0.5101  1.1837  2.2618
 7829TIP3    H244903   0.600   0.071  11.520 -0.6667  4.0273 -0.8862
 7830TIP3   OH244904   0.338   5.188   4.217 -0.1661  0.6376  0.2036
 7830TIP3    H144905   0.364   5.268   4.264  3.1530  0.4576 -1.0127
 7830TIP3    H244906   0.399   5.121   4.249 -0.9147 -0.6343 -0.9693
 7831TIP3   OH244907   0.156   3.428   4.819 -0.0560  0.4514  0.6581
 7831TIP3    H144908   0.199   3.351   4.858 -0.5703 -0.3072 -0.2382
 7831TIP3    H244909   0.228   3.490   4.805  0.3605  0.1680  1.4315
 7832TIP3   OH244910   6.329   0.113   4.458 -0.1175 -0.6870 -0.1589
 7832TIP3    H144911   6.408   0.127   4.510 -0.9176  1.3625  0.6264
 7832TIP3    H244912   6.288   0.035   4.497 -0.7475  0.8312  2.4844
 7833TIP3   OH244913   0.703   5.760  11.638  0.5056  0.6503 -0.0270
 7833TIP3    H144914   0.610   5.770  11.655  0.5832 -0.1138  0.9307
 7833TIP3    H244915   0.736   5.850  11.630 -0.2456  0.9277 -0.0315
 7834TIP3   OH244916   4.100   3.553   0.810 -0.2091 -0.2692 -0.3248
 7834TIP3    H144917   4.162   3.481   0.797  0.3192  0.3770 -1.5101
 7834TIP3    H244918   4.132   3.623   0.754  0.4827  1.6766  2.2894
 7835TIP3   OH244919   0.201   6.539   4.276 -0.2528  0.4672 -0.6548
 7835TIP3    H144920   0.238   6.512   4.361 -0.4943  1.5626 -0.1812
 7835TIP3    H244921   0.209   6.462   4.221 -1.5247 -0.8012  0.8330
 7836TIP3   OH244922   3.884   2.560  17.042  0.1479 -0.1222  0.1756
 7836TIP3    H144923   3.804   2.533  16.998 -0.4740  1.5621  0.2398
 7836TIP3    H244924   3.867   2.543  17.135 -0.0934  0.1312  0.1781
 7837TIP3   OH244925   0.527   1.958  15.290  0.4659  0.4077 -0.1179
 7837TIP3    H144926   0.516   2.052  15.304  1.7858  0.4406  0.9067
 7837TIP3    H244927   0.621   1.946  15.279  0.4767 -0.9379  1.0369
 7838TIP3   OH244928   3.553   4.156  11.946  0.2503  0.3411 -0.3246
 7838TIP3    H144929   3.495   4.080  11.935  0.6327 -0.7264  3.4736
 7838TIP3    H244930   3.499   4.221  11.991  0.7167  1.2306 -1.0185
 7839TIP3   OH244931   6.646   6.281  11.902  0.0507 -0.2613  0.5212
 7839TIP3    H144932   6.634   6.304  11.810  1.1253  0.0183  0.4431
 7839TIP3    H244933   6.699   6.201  11.900 -0.3260 -0.5289  0.8957
 7840TIP3   OH244934   1.847   2.982   3.025 -0.3681 -0.6268  0.5950
 7840TIP3    H144935   1.845   3.078   3.035  1.7544 -0.4727  0.0438
 7840TIP3    H244936   1.932   2.964   2.983 -0.1358 -2.8624  1.8677
 7841TIP3   OH244937   4.375   3.960  12.890 -0.1987 -0.0987 -0.1057
 7841TIP3    H144938   4.380   4.055  12.877  1.1237  0.1660  1.8000
 7841TIP3    H244939   4.437   3.943  12.961 -0.9620 -2.3014  0.1053
 7842TIP3   OH244940   4.927   4.942  11.022  0.8268 -0.0943  0.3033
 7842TIP3    H144941   4.972   4.954  11.105 -0.2295 -0.9641  1.0206
 7842TIP3    H244942   4.961   4.859  10.988  0.3782 -0.3393  0.4475
 7843TIP3   OH244943   2.964   4.802  12.144  0.3375 -0.5337 -0.4387
 7843TIP3    H144944   2.874   4.819  12.171  0.0325 -1.1545 -1.0582
 7843TIP3    H244945   2.997   4.887  12.115  0.0102 -0.2739 -0.0549
 7844TIP3   OH244946   3.729   0.822   1.796 -0.4785 -0.2970 -0.2501
 7844TIP3    H144947   3.743   0.831   1.890 -0.5104 -0.7033 -0.2050
 7844TIP3    H244948   3.737   0.911   1.761 -0.0817 -0.2029  0.0847
 7845TIP3   OH244949   0.940   1.835   3.431  0.2128  0.2670 -0.3233
 7845TIP3    H144950   1.030   1.805   3.446 -0.0649 -0.8219 -0.7058
 7845TIP3    H244951   0.885   1.765   3.465 -0.4604 -0.0470 -1.9346
 7846TIP3   OH244952   3.611   6.342   1.999  0.6401  0.2014  0.5427
 7846TIP3    H144953   3.669   6.346   2.075 -0.6485  1.0832  1.5299
 7846TIP3    H244954   3.526   6.318   2.035 -0.4808  2.6131 -0.2905
 7847TIP3   OH244955   0.684   0.392   4.156 -0.0628 -0.7407 -0.2229
 7847TIP3    H144956   0.654   0.439   4.234  0.4142 -1.4779  0.4198
 7847TIP3    H244957   0.603   0.365   4.113 -0.3443  0.5159 -0.5301
 7848TIP3   OH244958   5.899   3.314   2.058  0.4670 -0.4870 -0.0548
 7848TIP3    H144959   5.812   3.324   2.097 -0.5082  1.0821 -2.3430
 7848TIP3    H244960   5.946   3.394   2.084 -0.0805  0.4127 -1.6567
 7849TIP3   OH244961   6.662   3.571  11.492 -0.2435  0.1087  0.1605
 7849TIP3    H144962   6.741   3.517  11.482  0.5239  1.3090 -0.4883
 7849TIP3    H244963   6.631   3.551  11.580  0.8057 -0.3750  0.4465
 7850TIP3   OH244964   0.176   2.607   1.810 -0.3334  0.8893  0.4366
 7850TIP3    H144965   0.089   2.572   1.792 -0.7350  1.5298  1.0901
 7850TIP3    H244966   0.170   2.642   1.898  0.1605  2.2338 -0.0407
 7851TIP3   OH244967   5.501   6.452  15.116 -0.2767 -0.0880  0.1146
 7851TIP3    H144968   5.478   6.535  15.073  1.8870  0.7096  0.3849
 7851TIP3    H244969   5.581   6.471  15.164 -0.1540 -2.1649  0.8379
 7852TIP3   OH244970   1.896   6.747  10.627  0.1552  0.5792  0.1708
 7852TIP3    H144971   1.944   6.673  10.667  0.5220  1.3566  1.2141
 7852TIP3    H244972   1.811   6.747  10.672  0.2172  0.8851  0.2879
 7853TIP3   OH244973   5.292   1.423  14.410 -0.2080 -0.2356 -0.2375
 7853TIP3    H144974   5.209   1.449  14.368  0.2427  1.2494 -0.2819
 7853TIP3    H244975   5.329   1.506  14.442  0.8124 -0.9999  0.6116
 7854TIP3   OH244976   2.212   0.019  12.978  0.2919 -0.0346  1.2961
 7854TIP3    H144977   2.253   0.041  12.894  0.9739  0.5891  1.7825
 7854TIP3    H244978   2.285   0.013  13.039 -0.1984 -0.5346  1.8435
 7855TIP3   OH244979   3.694   3.746  11.454  0.2311 -0.4873  0.0856
 7855TIP3    H144980   3.699   3.768  11.361  2.0257  0.9267  0.4614
 7855TIP3    H244981   3.640   3.816  11.492  1.2758  0.1504  0.4204
 7856TIP3   OH244982   5.968   5.872   3.960  0.9439 -0.0572 -0.5762
 7856TIP3    H144983   6.016   5.954   3.972  1.0896 -0.1082 -0.7897
 7856TIP3    H244984   6.004   5.813   4.026  1.3633 -0.1749 -0.9058
 7857TIP3   OH244985   0.074   6.259  16.248 -0.1039 -0.6527  0.1045
 7857TIP3    H144986   0.127   6.201  16.193  0.6021  0.9078 -0.9554
 7857TIP3    H244987   0.132   6.331  16.270 -1.1374 -0.0114  0.8399
 7858TIP3   OH244988   3.205   0.674  11.856 -0.0745  0.0279 -0.4235
 7858TIP3    H144989   3.189   0.719  11.939  1.4301 -0.1838  0.0115
 7858TIP3    H244990   3.299   0.683  11.841 -0.2157 -0.4635 -1.8075
 7859TIP3   OH244991   2.328   0.084  12.750  0.1861  0.1045 -0.0613
 7859TIP3    H144992   2.404   0.111  12.699  0.4564  0.8437  0.7178
 7859TIP3    H244993   2.254   0.094  12.689  0.7012 -0.6438 -0.8237
 7860TIP3   OH244994   0.505   4.927   3.135  0.1107  0.0856  0.4160
 7860TIP3    H144995   0.427   4.914   3.189 -0.3125  1.4222  0.1715
 7860TIP3    H244996   0.503   4.854   3.073 -2.0905  1.1554 -0.8962
 7861TIP3   OH244997   3.164   3.718   0.209 -0.2552 -0.2770 -0.2201
 7861TIP3    H144998   3.190   3.805   0.239 -0.9313  0.1247 -0.7969
 7861TIP3    H244999   3.236   3.661   0.237 -0.2558  0.2989  1.0131
 7862TIP3   OH245000   5.564   5.353  16.046 -0.2034  0.3760 -0.6140
 7862TIP3    H145001   5.582   5.262  16.023  0.1287 -0.4122  2.3155
 7862TIP3    H245002   5.645   5.400  16.028  0.5511 -0.5025  0.3809
 7863TIP3   OH245003   3.140   3.959   2.414  0.0325  0.4889 -0.5198
 7863TIP3    H145004   3.150   3.865   2.431 -1.1775  0.0788 -1.8381
 7863TIP3    H245005   3.225   3.987   2.381  1.2155  0.4792  2.2799
 7864TIP3   OH245006   0.240   4.003  12.748  0.2241  0.0961 -0.2485
 7864TIP3    H145007   0.168   3.980  12.807  1.5188  1.2046  1.8915
 7864TIP3    H245008   0.317   4.004  12.804  1.4022  2.0452 -1.7853
 7865TIP3   OH245009   0.310   4.974   1.207 -0.3971  0.0395  0.4388
 7865TIP3    H145010   0.391   4.925   1.197 -0.8657 -0.8554  0.8659
 7865TIP3    H245011   0.245   4.908   1.233 -0.4705  1.2147  3.8142
 7866TIP3   OH245012   2.675   3.297  16.899  0.4854 -0.2558  0.5895
 7866TIP3    H145013   2.685   3.227  16.834 -0.6109  0.2625 -0.1775
 7866TIP3    H245014   2.584   3.290  16.928  0.6517  0.2253  1.2553
 7867TIP3   OH245015   6.749   0.974  16.951 -0.0975  0.2767  0.5852
 7867TIP3    H145016   6.727   0.887  16.918 -1.6405  0.4619  1.0215
 7867TIP3    H245017   6.840   0.967  16.980  0.7295 -0.3861 -1.9691
 7868TIP3   OH245018   2.455   1.601  13.385  0.4098 -0.3699 -0.1548
 7868TIP3    H145019   2.382   1.633  13.332  0.2348  2.2726  1.4831
 7868TIP3    H245020   2.533   1.629  13.337  0.2762  0.0554 -0.1326
 7869TIP3   OH245021   2.112   5.207   0.013 -0.2404  0.5636 -0.4305
 7869TIP3    H145022   2.099   5.131   0.068  0.4079  1.5634  1.1589
 7869TIP3    H245023   2.023   5.239  -0.005 -0.5599 -0.8289 -1.5986
 7870TIP3   OH245024   4.223   3.327  12.792 -0.2860  0.1484  0.2864
 7870TIP3    H145025   4.311   3.295  12.773 -0.6791 -0.9999  0.3195
 7870TIP3    H245026   4.224   3.349  12.886 -0.6939 -2.2031  0.8947
 7871TIP3   OH245027   6.100   2.527   4.531  0.1205  0.1525  0.5918
 7871TIP3    H145028   6.039   2.486   4.469 -1.6482  1.0206  1.6509
 7871TIP3    H245029   6.103   2.619   4.503  0.5543  0.2216  0.8611
 7872TIP3   OH245030   0.138   5.123  15.559  0.1785 -0.1734  0.3551
 7872TIP3    H145031   0.144   5.160  15.471 -0.4706 -3.0859 -1.0395
 7872TIP3    H245032   0.049   5.089  15.565  0.6928 -1.4029  1.5529
 7873TIP3   OH245033   0.003   1.350  11.743 -0.1049  0.4067  0.0462
 7873TIP3    H145034   0.098   1.357  11.755  0.1618 -1.1669 -0.7350
 7873TIP3    H245035  -0.022   1.431  11.699  0.6294  1.4338  1.4525
 7874TIP3   OH245036   1.619   0.840  13.789 -0.1260 -0.2823  0.0335
 7874TIP3    H145037   1.688   0.897  13.755 -0.9535  1.6949  1.5216
 7874TIP3    H245038   1.539   0.872  13.748 -0.6204 -0.2595  0.9871
 7875TIP3   OH245039   6.415   4.366   4.655 -0.4749 -0.8361 -0.4582
 7875TIP3    H145040   6.418   4.459   4.632  1.8029  0.0435  2.7314
 7875TIP3    H245041   6.340   4.358   4.714 -1.5178 -1.4259 -1.7868
 7876TIP3   OH245042   3.777   6.575   5.128 -0.2540  0.4043  0.2655
 7876TIP3    H145043   3.693   6.533   5.110 -1.2727  1.5565  2.0284
 7876TIP3    H245044   3.833   6.549   5.056 -1.5985 -1.8352 -0.0480
 7877TIP3   OH245045   1.231   5.452   3.605 -0.3908  0.5237 -0.2605
 7877TIP3    H145046   1.180   5.455   3.524  0.0818  1.9646 -0.5387
 7877TIP3    H245047   1.169   5.424   3.672 -1.1670  0.7768 -0.8598
 7878TIP3   OH245048   2.371   4.826   3.282  0.0788  0.2303 -0.0825
 7878TIP3    H145049   2.451   4.836   3.231 -0.2064  0.3037 -0.5110
 7878TIP3    H245050   2.391   4.869   3.366  1.0807 -1.1907  0.4602
 7879TIP3   OH245051   1.463   0.188   5.267 -0.2745 -0.0697  0.0822
 7879TIP3    H145052   1.503   0.224   5.346 -0.5564 -1.3217  0.8167
 7879TIP3    H245053   1.370   0.179   5.288 -0.0607 -2.2109  0.3401
 7880TIP3   OH245054   4.282   6.396  13.346  0.1843  0.0975  0.1678
 7880TIP3    H145055   4.358   6.346  13.376 -0.0641 -0.8215 -0.6730
 7880TIP3    H245056   4.207   6.354  13.389 -0.0162 -0.2147 -0.4649
 7881TIP3   OH245057   5.470   1.809  16.485  0.7864 -0.1610 -0.5369
 7881TIP3    H145058   5.563   1.830  16.498  1.4438 -1.1677 -3.0332
 7881TIP3    H245059   5.445   1.860  16.408 -1.0046  0.6720  0.5395
 7882TIP3   OH245060   2.522   2.811   5.124 -0.1439  0.1556 -0.0798
 7882TIP3    H145061   2.589   2.802   5.191 -0.6250 -0.3544  0.3450
 7882TIP3    H245062   2.559   2.766   5.048 -0.0896 -0.3163  0.2202
 7883TIP3   OH245063   2.546   1.768   3.207  0.1937  0.0639 -0.2866
 7883TIP3    H145064   2.491   1.834   3.248  1.9704  1.3419  0.1560
 7883TIP3    H245065   2.518   1.685   3.246 -0.7710  0.7815  0.5827
 7884TIP3   OH245066   0.882   2.297  15.369  0.2229  0.7067  0.6615
 7884TIP3    H145067   0.823   2.261  15.436 -1.7703  2.8376  0.1713
 7884TIP3    H245068   0.905   2.384  15.402 -1.2667  2.0458 -1.5970
 7885TIP3   OH245069   3.520   3.147  15.988  0.3375  0.1485 -0.3957
 7885TIP3    H145070   3.525   3.222  16.047 -0.8988  0.2417 -0.3873
 7885TIP3    H245071   3.555   3.180  15.905  0.5414  0.5006 -0.1717
 7886TIP3   OH245072   1.747   5.713  11.420  0.4242 -0.4964  0.3156
 7886TIP3    H145073   1.812   5.690  11.487  0.6916 -0.9440 -0.0930
 7886TIP3    H245074   1.793   5.700  11.337 -0.4897 -1.8126 -0.0171
 7887TIP3   OH245075   0.429   5.753  11.432  0.0795  0.5453  0.6029
 7887TIP3    H145076   0.517   5.748  11.394  0.4066 -0.0965  1.4231
 7887TIP3    H245077   0.377   5.692  11.380 -0.1045  1.5470 -0.4264
 7888TIP3   OH245078   2.144   4.226   0.542 -0.6978 -0.0195  0.1009
 7888TIP3    H145079   2.149   4.131   0.549  4.2362  0.0532  1.0529
 7888TIP3    H245080   2.152   4.244   0.448 -1.6121 -0.5136 -0.0776
 7889TIP3   OH245081   5.875   0.657   1.827 -0.2252  0.2003  0.1648
 7889TIP3    H145082   5.799   0.617   1.870  0.4700 -1.3847  0.0133
 7889TIP3    H245083   5.841   0.689   1.743 -0.3120 -2.9053 -1.1468
 7890TIP3   OH245084   3.790   0.885  15.519  0.0918  0.4160  0.0115
 7890TIP3    H145085   3.788   0.979  15.538 -1.6733  0.3700  0.2262
 7890TIP3    H245086   3.728   0.875  15.447 -0.3636 -0.6936  0.5488
 7891TIP3   OH245087   4.126   0.802   6.551 -0.0687  0.4800  0.3459
 7891TIP3    H145088   4.128   0.823   6.458  1.0995  0.6225  0.3986
 7891TIP3    H245089   4.186   0.863   6.592  0.8753 -0.7836  0.9372
 7892TIP3   OH245090   4.713   1.336   4.834  0.1141  0.0006  0.1997
 7892TIP3    H145091   4.795   1.379   4.855  0.2169 -0.6741  1.2681
 7892TIP3    H245092   4.650   1.407   4.821  0.9996  0.5443 -1.3315
 7893TIP3   OH245093   1.167   2.000   0.223 -0.1150 -0.5685  0.0178
 7893TIP3    H145094   1.102   1.991   0.293 -0.2039  1.4796  0.2456
 7893TIP3    H245095   1.122   2.051   0.155  0.6520 -0.7354 -0.6272
 7894TIP3   OH245096   4.943   3.181  17.186  0.0087 -0.2587  0.1842
 7894TIP3    H145097   4.906   3.234  17.115 -0.4032  0.3378  0.8249
 7894TIP3    H245098   4.882   3.108  17.195 -1.3246  0.9392  1.5147
 7895TIP3   OH245099   0.827   5.520   2.972  0.1168 -0.2563 -0.5643
 7895TIP3    H145100   0.762   5.451   2.958 -0.6582  0.4787 -0.6629
 7895TIP3    H245101   0.911   5.480   2.946 -0.2164 -1.3682  0.0208
 7896TIP3   OH245102   5.435   4.813  14.640 -0.2008  0.2240  0.2274
 7896TIP3    H145103   5.519   4.788  14.601  1.2620  1.7111  2.2323
 7896TIP3    H245104   5.409   4.891  14.590  1.1737  1.5409  1.4524
 7897TIP3   OH245105   3.076   0.265  15.975 -0.7047 -0.5983 -0.1083
 7897TIP3    H145106   3.026   0.285  16.053  1.2049 -1.7311  1.4969
 7897TIP3    H245107   3.164   0.299  15.993  0.0697 -1.8735 -1.2534
 7898TIP3   OH245108   4.202   3.951  16.022  0.0371 -0.2302 -0.6014
 7898TIP3    H145109   4.287   3.925  15.987  0.7402  1.9286 -0.6865
 7898TIP3    H245110   4.158   3.994  15.948 -0.0920  0.8224  0.0579
 7899TIP3   OH245111   5.868   0.989   2.517 -0.0134  0.1229 -0.0556
 7899TIP3    H145112   5.868   1.039   2.435 -1.7870 -1.7359 -1.3041
 7899TIP3    H245113   5.940   0.927   2.507  1.1270  1.2871  0.7616
 7900TIP3   OH245114   0.507   6.081  12.195  0.6932  0.3167 -0.1261
 7900TIP3    H145115   0.469   5.995  12.215  2.2195 -0.1234  1.0887
 7900TIP3    H245116   0.601   6.067  12.199  1.0046  1.7446 -1.3937
 7901TIP3   OH245117   0.412   6.216   3.896 -0.1097  0.1573  0.2782
 7901TIP3    H145118   0.442   6.206   3.986 -0.3411 -0.2560  0.3133
 7901TIP3    H245119   0.478   6.173   3.843  0.7957  1.6926  0.1182
 7902TIP3   OH245120   5.366   5.594  12.931 -0.0594  0.0738  0.4300
 7902TIP3    H145121   5.280   5.591  12.973 -0.3988  1.2855 -0.1127
 7902TIP3    H245122   5.423   5.636  12.995 -0.0774  0.0325  0.4727
 7903TIP3   OH245123   3.497   0.178  12.103 -0.8770 -0.1747  0.0756
 7903TIP3    H145124   3.589   0.161  12.123 -0.4813  0.8707 -0.7670
 7903TIP3    H245125   3.458   0.199  12.188 -0.7117 -2.1223  0.6766
 7904TIP3   OH245126   0.284   2.810   0.721 -0.0486  0.6938  0.0229
 7904TIP3    H145127   0.273   2.776   0.810  0.5203  1.0821  0.2478
 7904TIP3    H245128   0.250   2.900   0.727 -1.7223  0.1416 -0.6105
 7905TIP3   OH245129   1.860   3.145   1.739 -0.1081 -0.2267 -0.2222
 7905TIP3    H145130   1.884   3.154   1.831  0.1066 -1.4751 -0.1510
 7905TIP3    H245131   1.821   3.058   1.732 -0.8542  0.1670 -1.1587
 7906TIP3   OH245132   4.020   1.371   4.062 -0.1638 -0.7026  0.3320
 7906TIP3    H145133   3.949   1.435   4.065  0.8078  0.5106 -1.1019
 7906TIP3    H245134   4.033   1.345   4.153 -1.6282 -0.0616  0.7575
 7907TIP3   OH245135   5.097   1.586  15.210  0.3641 -0.0150  0.9661
 7907TIP3    H145136   5.006   1.580  15.184  0.3085 -1.1016  1.3862
 7907TIP3    H245137   5.103   1.670  15.257  0.1364  1.2411 -1.1329
 7908TIP3   OH245138   6.043   0.854  12.509 -0.4119  0.1776  0.6124
 7908TIP3    H145139   6.119   0.895  12.468 -1.0330  0.1653 -0.5828
 7908TIP3    H245140   6.078   0.812  12.587  1.0671 -0.9672 -0.6187
 7909TIP3   OH245141   5.398   4.495   2.971  0.0866 -0.2328 -0.4833
 7909TIP3    H145142   5.410   4.465   3.061  1.0279  0.8602 -0.2305
 7909TIP3    H245143   5.426   4.421   2.918  0.8948 -0.3724  0.1233
 7910TIP3   OH245144   4.508   1.773   0.975  0.5494 -0.1081 -0.0067
 7910TIP3    H145145   4.429   1.739   1.017 -0.0179  0.7003 -0.4095
 7910TIP3    H245146   4.572   1.703   0.986  0.4609  0.0879  2.2835
 7911TIP3   OH245147   6.482   0.673  14.471  0.5396  0.3293  0.6420
 7911TIP3    H145148   6.427   0.631  14.405  0.1153 -0.3678  1.4121
 7911TIP3    H245149   6.532   0.739  14.423  2.5678 -2.2029 -1.0003
 7912TIP3   OH245150   3.672   5.041  12.832 -0.0242  0.3186  1.5430
 7912TIP3    H145151   3.743   4.989  12.868 -0.9249 -1.2684  1.1171
 7912TIP3    H245152   3.606   4.977  12.806 -1.6485  1.7365  1.9856
 7913TIP3   OH245153   4.197   3.183   3.142  0.0320 -0.1905 -0.2224
 7913TIP3    H145154   4.185   3.260   3.198  3.7546  0.8383 -0.5994
 7913TIP3    H245155   4.190   3.217   3.053 -1.8933 -1.0664 -0.4503
 7914TIP3   OH245156   1.976   0.481   4.049  0.1283 -0.7303 -0.1816
 7914TIP3    H145157   2.066   0.451   4.044  0.2488 -0.4486  0.2899
 7914TIP3    H245158   1.947   0.460   4.137 -0.4683 -1.3658 -0.5170
 7915TIP3   OH245159   0.842   3.554  11.785  0.5761 -0.4237 -0.2340
 7915TIP3    H145160   0.801   3.516  11.862  0.5253  1.2384  0.6066
 7915TIP3    H245161   0.833   3.488  11.717  0.5321 -1.8888  1.1474
 7916TIP3   OH245162   6.188   6.457  15.474  0.0184 -0.1786  0.0821
 7916TIP3    H145163   6.200   6.483  15.566 -0.9848  0.5732  0.0312
 7916TIP3    H245164   6.156   6.367  15.478  3.2344 -1.4258  0.2898
 7917TIP3   OH245165   4.406   6.314   1.200 -0.2595  0.4225  0.5057
 7917TIP3    H145166   4.385   6.241   1.141  0.7936 -1.8996  2.8202
 7917TIP3    H245167   4.338   6.312   1.267  1.1510 -0.1240  1.9897
 7918TIP3   OH245168   2.317   1.410  11.935  0.2959  0.3132 -0.2523
 7918TIP3    H145169   2.410   1.406  11.953  0.4758  3.8343  0.3710
 7918TIP3    H245170   2.281   1.461  12.007 -1.5237  1.8248 -2.0944
 7919TIP3   OH245171   3.119   4.885   2.327  0.4352  0.1899  0.1559
 7919TIP3    H145172   3.081   4.859   2.411  0.6299  0.6977  0.4055
 7919TIP3    H245173   3.199   4.932   2.350  0.4789  0.3515 -0.3122
 7920TIP3   OH245174   6.303   1.503  13.673 -0.2571  0.3304  0.6198
 7920TIP3    H145175   6.226   1.556  13.655 -0.0031  0.4845 -0.0281
 7920TIP3    H245176   6.305   1.495  13.769 -0.9811  0.4572  0.6448
 7921TIP3   OH245177   2.975   5.910   4.012  0.1173 -0.1168  0.6250
 7921TIP3    H145178   3.020   5.834   4.050  2.6418  0.4362 -1.0042
 7921TIP3    H245179   3.038   5.981   4.020  0.1643  0.4179 -2.9544
 7922TIP3   OH245180   5.053   4.742   0.733  0.5726 -0.1191 -0.0785
 7922TIP3    H145181   5.148   4.756   0.731  0.5031  0.4348  0.2005
 7922TIP3    H245182   5.033   4.702   0.649  0.8751  0.9856 -0.7021
 7923TIP3   OH245183   3.495   6.257  17.035  0.4331  0.5434  0.2334
 7923TIP3    H145184   3.486   6.172  16.992 -0.3070  0.3041  0.8396
 7923TIP3    H245185   3.520   6.234  17.125 -0.6330  0.9313  0.6344
 7924TIP3   OH245186   5.927   1.190  13.515  0.1649  0.4589  0.2368
 7924TIP3    H145187   6.010   1.143  13.507  0.2297  0.6085  0.0471
 7924TIP3    H245188   5.941   1.253  13.585  0.8793  1.9075 -1.1481
 7925TIP3   OH245189   3.245   0.893   3.724  0.2207  0.5638 -0.0946
 7925TIP3    H145190   3.206   0.855   3.802 -2.2557  1.4075 -0.8347
 7925TIP3    H245191   3.338   0.872   3.731 -0.0264  0.0167  2.7067
 7926TIP3   OH245192   4.071   2.146   4.652  0.4226 -0.0071 -0.1864
 7926TIP3    H145193   4.115   2.076   4.700 -0.4022  0.3879  1.2007
 7926TIP3    H245194   4.037   2.103   4.573  1.1914 -0.8278 -0.0853
 7927TIP3   OH245195   3.173   5.802   0.890 -0.5120  0.1263  0.2178
 7927TIP3    H145196   3.088   5.816   0.848  0.9837  2.0382 -2.5314
 7927TIP3    H245197   3.191   5.883   0.937  0.4980  0.4535 -0.6885
 7928TIP3   OH245198   4.274   1.182  13.207 -0.0486  0.0920  0.6623
 7928TIP3    H145199   4.263   1.218  13.119  0.4883 -1.5857 -0.1455
 7928TIP3    H245200   4.358   1.218  13.237  0.2776 -0.1180  0.0419
 7929TIP3   OH245201   4.175   3.206   4.428  0.0271 -0.0018  0.9130
 7929TIP3    H145202   4.085   3.235   4.410 -0.1128 -0.7887  0.3388
 7929TIP3    H245203   4.201   3.258   4.505 -0.7886  0.4835  0.8761
 7930TIP3   OH245204   0.193   4.265   2.338 -0.1105 -0.0383  0.2876
 7930TIP3    H145205   0.191   4.179   2.380  1.6711 -0.1730  0.1729
 7930TIP3    H245206   0.143   4.321   2.397 -2.5639 -1.3951 -0.3462
 7931TIP3   OH245207   0.639   5.403   5.044 -0.1550 -0.2271  0.3081
 7931TIP3    H145208   0.599   5.413   4.957  0.0762  1.7684  0.3804
 7931TIP3    H245209   0.581   5.451   5.103  0.4286 -0.3710  1.0137
 7932TIP3   OH245210   1.461   6.553  13.454 -0.2674 -0.4272 -0.1289
 7932TIP3    H145211   1.376   6.520  13.424 -1.5668  2.8891 -0.4822
 7932TIP3    H245212   1.493   6.605  13.381  0.5147  0.9836  1.1810
 7933TIP3   OH245213   5.627   3.301  14.669  0.0672 -0.2372  0.2893
 7933TIP3    H145214   5.688   3.293  14.596 -0.5818  1.3658 -0.4804
 7933TIP3    H245215   5.541   3.303  14.629 -0.3352  0.0825  1.1379
 7934TIP3   OH245216   4.940   2.674   4.938 -0.5802 -0.1187  0.2331
 7934TIP3    H145217   4.915   2.695   4.848  1.8518  0.4121 -0.3993
 7934TIP3    H245218   4.985   2.752   4.969 -0.8475 -0.5295  1.7022
 7935TIP3   OH245219   1.129   1.146  16.138  0.1926 -0.4845 -0.5610
 7935TIP3    H145220   1.049   1.109  16.100  0.5732 -0.3521 -1.5383
 7935TIP3    H245221   1.151   1.087  16.210 -2.5123  1.1801  1.8707
 7936TIP3   OH245222   0.035   0.402  13.084 -0.3377  0.2254  0.2015
 7936TIP3    H145223   0.008   0.315  13.055 -0.7891  0.2119  0.6565
 7936TIP3    H245224   0.070   0.389  13.172 -0.1243  0.4545  0.1513
 7937TIP3   OH245225   1.693   2.399  15.324  0.2024  0.8743 -0.2588
 7937TIP3    H145226   1.599   2.397  15.342 -0.2193 -1.5962 -2.2700
 7937TIP3    H245227   1.700   2.446  15.241  1.3703  5.2906  1.9897
 7938TIP3   OH245228   5.563   5.335   3.070  0.4508  1.3223 -0.3822
 7938TIP3    H145229   5.485   5.356   3.018 -0.6132 -0.8548  0.2248
 7938TIP3    H245230   5.580   5.414   3.121 -0.8565  2.1213 -1.1324
 7939TIP3   OH245231   6.401   1.372   1.231 -0.5667  0.2837 -0.1194
 7939TIP3    H145232   6.436   1.447   1.182 -0.7669  0.3643 -0.1401
 7939TIP3    H245233   6.366   1.313   1.164  0.2574 -0.1794 -0.1546
 7940TIP3   OH245234   4.323   3.413  15.730  0.1877  0.0580  0.1582
 7940TIP3    H145235   4.309   3.373  15.644  2.1156 -0.5103  0.0563
 7940TIP3    H245236   4.333   3.506  15.712  0.7250 -0.0760 -0.2583
 7941TIP3   OH245237   6.660   2.429   5.460 -0.3449  0.2386  0.1763
 7941TIP3    H145238   6.738   2.423   5.405  0.2225  0.9516  0.8765
 7941TIP3    H245239   6.589   2.450   5.400 -0.4019 -2.3687 -0.7694
 7942TIP3   OH245240   6.397   1.316   3.604 -0.3234  0.2077  0.5979
 7942TIP3    H145241   6.402   1.410   3.620  0.2164  0.0082  1.6781
 7942TIP3    H245242   6.488   1.286   3.609 -0.2528 -0.1034 -1.6088
 7943TIP3   OH245243   2.704   2.657   2.975  0.4536 -0.2564  0.3623
 7943TIP3    H145244   2.795   2.645   2.949  0.2306 -0.3954 -0.3960
 7943TIP3    H245245   2.657   2.584   2.934 -0.2548  0.7444 -0.7238
 7944TIP3   OH245246   4.066   5.469   5.557  0.0849  0.1586 -0.0673
 7944TIP3    H145247   4.041   5.378   5.573 -0.5553  0.2956 -0.2769
 7944TIP3    H245248   3.983   5.517   5.553  0.3495  0.5555 -1.1573
 7945TIP3   OH245249   4.950   5.747  15.018 -0.4905 -0.2306 -0.3715
 7945TIP3    H145250   5.039   5.763  15.050 -0.2655  0.2174 -1.2069
 7945TIP3    H245251   4.953   5.659  14.981 -0.4002 -0.2165 -0.3980
 7946TIP3   OH245252   4.474   4.855   5.445 -0.0925  0.1229  0.1472
 7946TIP3    H145253   4.429   4.818   5.521 -0.0241  0.2145  0.2320
 7946TIP3    H245254   4.562   4.818   5.448  0.3722  1.2483  0.9331
 7947TIP3   OH245255   5.707   2.480   0.361 -0.3145 -0.0803 -0.0544
 7947TIP3    H145256   5.765   2.421   0.409 -2.1392 -1.8598  0.0868
 7947TIP3    H245257   5.763   2.555   0.338  1.5688 -0.9136  1.5140
 7948TIP3   OH245258   0.993   4.199   5.543  0.0460  0.2486 -0.0519
 7948TIP3    H145259   1.079   4.158   5.552  0.2615  0.4761 -1.0582
 7948TIP3    H245260   0.936   4.146   5.599  0.9006  0.3225  0.9217
 7949TIP3   OH245261   4.698   0.257  15.499 -0.7359 -0.5668  0.0049
 7949TIP3    H145262   4.695   0.191  15.568 -0.8858 -0.1939  0.3582
 7949TIP3    H245263   4.791   0.267  15.479 -0.7147 -0.8877 -0.0492
 7950TIP3   OH245264   6.117   2.557  12.162 -0.4609  0.1630 -0.3277
 7950TIP3    H145265   6.055   2.550  12.235 -1.3218  2.1629 -0.8024
 7950TIP3    H245266   6.187   2.613  12.195  0.0168 -0.3306 -0.4930
 7951TIP3   OH245267   5.140   3.533  14.346 -0.3016  0.0454  0.2426
 7951TIP3    H145268   5.138   3.440  14.324  2.2452  0.2034 -1.0726
 7951TIP3    H245269   5.083   3.574  14.281 -2.1190 -0.6122  1.3478
 7952TIP3   OH245270   5.940   1.920  13.429 -0.1481 -0.2888 -0.5924
 7952TIP3    H145271   5.910   1.946  13.516 -0.3956  0.1694 -0.8101
 7952TIP3    H245272   6.021   1.872  13.445  0.0011  0.1028 -0.1369
 7953TIP3   OH245273   1.845   0.131   0.978  0.4353  1.3414  0.2149
 7953TIP3    H145274   1.866   0.189   1.051 -0.6684  1.4221  0.4854
 7953TIP3    H245275   1.886   0.172   0.902  1.6164  1.2468  0.7723
 7954TIP3   OH245276   5.666   2.296  13.107  0.2013  0.0210 -0.2245
 7954TIP3    H145277   5.746   2.306  13.160  0.0487  0.1338 -0.0131
 7954TIP3    H245278   5.602   2.259  13.168  0.4572 -1.3144 -0.7339
 7955TIP3   OH245279   6.773   5.410   3.383 -0.8797  0.3379 -0.3263
 7955TIP3    H145280   6.754   5.404   3.290 -2.1759 -1.5609  0.0047
 7955TIP3    H245281   6.687   5.414   3.426 -0.3054  1.5898  0.7837
 7956TIP3   OH245282   3.157   4.878   5.724 -0.0328 -0.1939 -0.0099
 7956TIP3    H145283   3.209   4.912   5.797  0.7191 -1.7861  0.2260
 7956TIP3    H245284   3.201   4.797   5.698 -1.8012 -1.0402 -0.5059
 7957TIP3   OH245285   2.674   4.076  14.761 -0.3717 -0.1227 -0.4344
 7957TIP3    H145286   2.671   4.088  14.856  1.0917 -1.1540 -0.2386
 7957TIP3    H245287   2.674   3.982  14.748  1.9564 -0.0746 -1.3076
 7958TIP3   OH245288   0.762   4.228   4.857 -0.0983 -0.0082  0.0556
 7958TIP3    H145289   0.798   4.172   4.926 -1.1313  0.4555  1.0078
 7958TIP3    H245290   0.697   4.283   4.902 -1.1243 -0.0033 -1.3539
 7959TIP3   OH245291   3.007   0.537   4.780  0.0741 -0.2619 -0.2856
 7959TIP3    H145292   3.097   0.505   4.788  0.6664  1.4329  0.1255
 7959TIP3    H245293   2.998   0.558   4.687  1.0212  2.0109  0.0754
 7960TIP3   OH245294   2.484   2.914  12.706 -0.0192 -0.4476 -0.2404
 7960TIP3    H145295   2.416   2.975  12.736  3.2061  2.0670  2.8612
 7960TIP3    H245296   2.500   2.857  12.781 -1.1257 -3.6475 -2.2193
 7961TIP3   OH245297   4.155   5.000   2.497  0.1808  0.1447 -0.3728
 7961TIP3    H145298   4.127   5.068   2.559 -1.6640 -0.0921 -0.8883
 7961TIP3    H245299   4.096   4.926   2.515  0.4723 -0.3858 -1.5361
 7962TIP3   OH245300   3.213   4.830   4.772 -0.1953  0.2928 -0.0631
 7962TIP3    H145301   3.299   4.789   4.778  0.6516  2.0398  0.2708
 7962TIP3    H245302   3.211   4.894   4.844 -1.3648  0.9921 -0.6765
 7963TIP3   OH245303   3.918   3.122  17.271 -0.1714 -0.2159 -0.4612
 7963TIP3    H145304   3.885   3.211  17.282 -0.3363 -0.4099  0.7287
 7963TIP3    H245305   3.991   3.131  17.209 -1.3947  0.4448 -1.8663
 7964TIP3   OH245306   2.065   2.553  14.294 -0.2479  0.2762 -0.1721
 7964TIP3    H145307   2.016   2.492  14.238 -1.4506  0.7576  0.3070
 7964TIP3    H245308   2.077   2.631  14.240  2.8485 -0.9392 -1.4178
 7965TIP3   OH245309   5.102   4.089   2.789  0.0163  0.0835 -0.5197
 7965TIP3    H145310   5.057   4.087   2.874 -1.3317  0.4468 -1.1968
 7965TIP3    H245311   5.110   3.997   2.764  0.4543 -0.0284  0.0110
 7966TIP3   OH245312   6.715   2.496  13.319  0.5454 -0.2088  0.1745
 7966TIP3    H145313   6.639   2.474  13.373 -0.4462  3.2147  0.4453
 7966TIP3    H245314   6.781   2.526  13.382  0.9958 -0.3325 -0.2386
 7967TIP3   OH245315   4.967   6.326   2.200 -0.4300 -0.4984 -0.2770
 7967TIP3    H145316   5.026   6.252   2.187  0.6844  0.6992 -2.6068
 7967TIP3    H245317   5.025   6.402   2.212 -1.4722 -0.1067  4.1696
 7968TIP3   OH245318   0.068   4.772   0.274 -0.5776 -0.0387  0.0661
 7968TIP3    H145319   0.069   4.697   0.334  0.0634  0.3403  0.5422
 7968TIP3    H245320  -0.024   4.784   0.252 -0.8706  0.0205  1.2437
 7969TIP3   OH245321   3.055   1.847  13.560  0.0457  0.1984  0.0978
 7969TIP3    H145322   3.143   1.881  13.576 -0.5974  1.4778  1.0939
 7969TIP3    H245323   3.007   1.923  13.526 -0.2531 -0.9071 -2.1326
 7970TIP3   OH245324   3.262   5.465  15.544 -0.3954  0.1802  0.7153
 7970TIP3    H145325   3.239   5.541  15.490  0.0472 -0.6407 -0.6516
 7970TIP3    H245326   3.285   5.503  15.629 -0.7021  1.5358  0.2181
 7971TIP3   OH245327   4.302   3.542   4.415 -1.1668 -0.1642  0.7351
 7971TIP3    H145328   4.353   3.508   4.488  1.0180  0.8793 -0.1893
 7971TIP3    H245329   4.303   3.637   4.426 -1.2234 -0.0143 -0.3691
 7972TIP3   OH245330   2.685   1.828  11.898 -0.3570  0.2835  0.1098
 7972TIP3    H145331   2.625   1.864  11.832  0.9650  1.1341 -0.6900
 7972TIP3    H245332   2.750   1.897  11.911 -0.9557  0.4385  2.8778
 7973TIP3   OH245333   6.335   3.018  16.324  0.3675  0.3055 -0.2059
 7973TIP3    H145334   6.263   2.958  16.303  1.2743 -0.6049 -0.7887
 7973TIP3    H245335   6.413   2.962  16.329  0.6597  0.7360  3.3234
 7974TIP3   OH245336   3.534   4.540   0.134  0.6278 -0.6267  0.5501
 7974TIP3    H145337   3.535   4.472   0.201 -0.6605  0.6820  1.9750
 7974TIP3    H245338   3.457   4.593   0.155  0.6784  0.3336 -1.4727
 7975TIP3   OH245339   4.151   5.670   3.478 -0.1542 -0.2022  0.0401
 7975TIP3    H145340   4.219   5.616   3.439 -0.4349  0.4192 -1.3547
 7975TIP3    H245341   4.176   5.677   3.570  2.7817  1.6272 -0.7938
 7976TIP3   OH245342   2.960   0.962  15.703 -0.3049  0.4203  0.8677
 7976TIP3    H145343   2.901   1.032  15.675 -0.9392 -0.0150  1.0879
 7976TIP3    H245344   2.954   0.897  15.633  0.7004  0.8115  0.3991
 7977TIP3   OH245345   4.784   5.090   0.657 -0.0412 -0.0062  0.5373
 7977TIP3    H145346   4.690   5.080   0.668  0.0340 -0.8582  0.4521
 7977TIP3    H245347   4.822   5.050   0.735  0.2581  0.0395  0.4170
 7978TIP3   OH245348   3.397   1.590   5.222 -0.5528 -0.3317  0.1858
 7978TIP3    H145349   3.342   1.531   5.170  1.3743 -1.2142 -0.9513
 7978TIP3    H245350   3.337   1.627   5.287 -1.6871 -4.5515  1.8922
 7979TIP3   OH245351   1.992   1.178   3.543  0.4403 -0.1480  0.1900
 7979TIP3    H145352   1.936   1.166   3.620 -1.1741  2.1848 -0.4934
 7979TIP3    H245353   2.060   1.239   3.573  0.0420  0.4474 -0.0992
 7980TIP3   OH245354   3.355   1.880   0.207  0.0030  0.2043  0.0518
 7980TIP3    H145355   3.334   1.792   0.238 -1.0369  0.1779 -0.6716
 7980TIP3    H245356   3.290   1.937   0.249 -0.8203  0.2934 -1.2794
 7981TIP3   OH245357   5.432   5.160  14.222 -0.0028 -0.2262 -0.7616
 7981TIP3    H145358   5.486   5.085  14.194  1.6510  1.6512 -2.9561
 7981TIP3    H245359   5.426   5.215  14.145 -1.4587  1.7733  0.6869
 7982TIP3   OH245360   1.144   2.258   0.501 -0.1293 -0.2772  0.2555
 7982TIP3    H145361   1.059   2.273   0.542  0.0969  0.1247  0.5808
 7982TIP3    H245362   1.126   2.196   0.430 -0.7144 -0.0817  0.2323
 7983TIP3   OH245363   4.377   4.586  14.776  0.3023 -0.4562 -0.9355
 7983TIP3    H145364   4.462   4.556  14.807 -0.4707 -2.7707 -0.8698
 7983TIP3    H245365   4.329   4.607  14.856  0.5711  0.1941 -0.9401
 7984TIP3   OH245366   6.456   2.302   2.126 -0.4523  0.1028  0.3926
 7984TIP3    H145367   6.521   2.278   2.192  0.6159  0.1010 -0.6156
 7984TIP3    H245368   6.385   2.343   2.175 -0.3887 -1.2668  1.6937
 7985TIP3   OH245369   1.874   2.034   4.361  0.0550 -0.2864 -0.7294
 7985TIP3    H145370   1.829   2.058   4.281  0.7594  2.4329 -0.4086
 7985TIP3    H245371   1.865   1.939   4.366  0.7473 -0.7066 -4.4689
 7986TIP3   OH245372   3.375   4.991   3.401  0.2539 -0.1044 -0.1752
 7986TIP3    H145373   3.432   4.969   3.475 -0.0455  0.6720  0.3052
 7986TIP3    H245374   3.312   5.052   3.438  0.8202  1.2337 -1.3561
 7987TIP3   OH245375   5.596   0.782   0.219  0.3540 -0.1080  0.3694
 7987TIP3    H145376   5.538   0.859   0.222  0.1178 -0.2308 -0.7815
 7987TIP3    H245377   5.562   0.729   0.147  0.3537 -1.4378  1.3078
 7988TIP3   OH245378   5.986   1.139   1.547 -0.2888  0.5523 -0.2969
 7988TIP3    H145379   5.956   1.224   1.516  3.9989  2.8048  0.9077
 7988TIP3    H245380   6.066   1.158   1.595 -0.1280 -4.0327  1.7820
 7989TIP3   OH245381   6.080   3.154  16.335 -0.3091  0.3547  0.5267
 7989TIP3    H145382   6.163   3.106  16.340 -1.0199 -0.8868  0.9259
 7989TIP3    H245383   6.057   3.152  16.242  0.3194  1.0900  0.3507
 7990TIP3   OH245384   3.043   6.542  16.081 -0.6841  0.0663 -1.0138
 7990TIP3    H145385   3.032   6.448  16.097  0.1794  0.1882  0.5594
 7990TIP3    H245386   3.044   6.581  16.169 -2.5510  1.7602 -1.6774
 7991TIP3   OH245387   0.737   4.988   5.396  0.8569 -0.0076 -0.3379
 7991TIP3    H145388   0.649   4.988   5.433  0.7686 -1.2103 -0.5021
 7991TIP3    H245389   0.738   5.063   5.337 -0.1675 -0.1821 -0.5987
 7992TIP3   OH245390   1.587   4.047  12.432 -0.0685 -0.1043 -0.0230
 7992TIP3    H145391   1.601   4.128  12.482  0.1065  0.7108 -1.3253
 7992TIP3    H245392   1.615   4.069  12.343 -2.0863 -0.9040 -0.9306
 7993TIP3   OH245393   3.820   3.604  13.572 -0.6341  0.5621 -0.4216
 7993TIP3    H145394   3.884   3.565  13.631 -0.1173 -0.9661 -1.9081
 7993TIP3    H245395   3.824   3.698  13.591 -0.8575  0.0954  2.2600
 7994TIP3   OH245396   0.266   1.165  15.215 -1.0348 -0.5108 -0.0700
 7994TIP3    H145397   0.351   1.124  15.198 -1.5109 -1.3552 -0.5150
 7994TIP3    H245398   0.282   1.227  15.286  0.0913 -0.1564 -0.6224
 7995TIP3   OH245399   6.210   0.253   4.260  0.1463 -0.4970  0.1136
 7995TIP3    H145400   6.171   0.321   4.315  1.3548 -0.3679  0.8541
 7995TIP3    H245401   6.253   0.193   4.321  2.7656  0.4228 -0.6587
 7996TIP3   OH245402   0.112   1.202   3.839  0.1792 -0.3965 -0.0640
 7996TIP3    H145403   0.201   1.236   3.833  1.3250 -3.2751 -0.7200
 7996TIP3    H245404   0.094   1.195   3.932  0.4922  0.4771  0.0703
 7997TIP3   OH245405   3.088   4.733  16.808  0.0215 -0.4319  0.9078
 7997TIP3    H145406   3.085   4.820  16.848  0.3418 -0.7623  1.6650
 7997TIP3    H245407   3.176   4.726  16.772 -0.2045 -0.2088  0.3067
 7998TIP3   OH245408   0.400   0.846  14.291  0.2033 -0.0533 -0.1212
 7998TIP3    H145409   0.446   0.768  14.261 -0.3997 -0.1875 -0.7147
 7998TIP3    H245410   0.409   0.909  14.219 -2.0426 -0.6923 -1.0590
 7999TIP3   OH245411   1.375   4.159   5.453 -0.4840 -0.8014  0.2430
 7999TIP3    H145412   1.327   4.117   5.524  0.3264  0.0120  1.2986
 7999TIP3    H245413   1.311   4.219   5.413 -0.6308 -0.4481  0.9963
 8000TIP3   OH245414   6.166   0.921   1.285  0.0885 -0.5158  0.4176
 8000TIP3    H145415   6.089   0.965   1.248  0.2166 -1.4120 -0.9967
 8000TIP3    H245416   6.158   0.935   1.379 -1.7284 -0.4329  0.2948
 8001TIP3   OH245417   3.154   1.842  16.062  0.5719 -0.0175  1.1358
 8001TIP3    H145418   3.199   1.788  15.997  1.5313  1.0402  0.8899
 8001TIP3    H245419   3.088   1.890  16.011 -0.0190 -0.6526  1.2913
 8002TIP3   OH245420   0.551   4.071  16.192 -0.3157  0.0398  0.1935
 8002TIP3    H145421   0.494   4.016  16.137 -0.4280  0.6277 -0.2766
 8002TIP3    H245422   0.615   4.009  16.229  0.4709 -0.1953 -1.4878
 8003TIP3   OH245423   0.373   5.131  16.158  0.0968 -0.0860 -0.0670
 8003TIP3    H145424   0.425   5.118  16.079 -1.4031  1.8277 -1.4585
 8003TIP3    H245425   0.344   5.222  16.153 -0.1817  0.0595  2.6521
 8004TIP3   OH245426   2.701   3.981   0.193  0.4910  0.7241 -0.1208
 8004TIP3    H145427   2.658   3.896   0.197  0.6544  0.6319 -0.3243
 8004TIP3    H245428   2.703   4.003   0.100 -0.9254  1.6514  0.0378
 8005TIP3   OH245429   1.226   5.245   5.920  0.6752  0.0122 -0.1326
 8005TIP3    H145430   1.141   5.225   5.959  0.4291 -1.4730 -1.3190
 8005TIP3    H245431   1.226   5.340   5.909 -1.6888 -0.1108 -1.9250
 8006TIP3   OH245432   2.489   4.618  12.562  0.5596  0.0394  0.1209
 8006TIP3    H145433   2.462   4.599  12.472  0.9112 -1.1592  0.2587
 8006TIP3    H245434   2.471   4.711  12.572  0.2500  0.1373 -1.1000
 8007TIP3   OH245435   2.223   6.470  11.204 -0.7762 -0.8821  0.1590
 8007TIP3    H145436   2.186   6.431  11.283 -1.6690 -1.2338 -0.4179
 8007TIP3    H245437   2.151   6.471  11.142  0.0774 -1.1688 -0.8564
 8008TIP3   OH245438   1.086   0.816  10.972  0.8251 -0.3614 -0.1668
 8008TIP3    H145439   1.131   0.870  10.906 -1.3328  0.4168 -1.1149
 8008TIP3    H245440   1.084   0.871  11.050  1.5953 -0.4610 -0.0666
 8009TIP3   OH245441   0.334   6.751   0.392  0.1053  1.2192 -0.0339
 8009TIP3    H145442   0.241   6.732   0.382 -0.0254  1.6969  0.2930
 8009TIP3    H245443   0.357   6.716   0.478  0.5314 -0.0806 -0.6487
 8010TIP3   OH245444   1.924   1.091   4.595  0.6872  0.2142 -0.3596
 8010TIP3    H145445   1.954   1.012   4.641 -0.8931 -1.9927 -2.8535
 8010TIP3    H245446   1.856   1.127   4.651  0.5986 -0.8981  0.2811
 8011TIP3   OH245447   6.664   1.841   5.433  0.4144 -0.4039  0.0515
 8011TIP3    H145448   6.748   1.826   5.389  0.1753  0.2564 -0.6523
 8011TIP3    H245449   6.683   1.907   5.500  0.5698 -0.6627  0.2638
 8012TIP3   OH245450   4.040   1.904   3.026 -0.2528 -0.6423  0.0129
 8012TIP3    H145451   4.041   1.838   2.957 -0.8787  0.9489 -1.6125
 8012TIP3    H245452   4.019   1.985   2.980  0.2850  0.6581  1.9595
 8013TIP3   OH245453   6.148   1.183   1.750  0.1086  0.1611 -0.2511
 8013TIP3    H145454   6.170   1.151   1.837 -1.3910  1.9662  0.8757
 8013TIP3    H245455   6.113   1.271   1.765  2.5491  1.7756 -2.9680
 8014TIP3   OH245456   4.953   2.396  12.836  0.2335  0.0741  0.3609
 8014TIP3    H145457   4.877   2.450  12.861 -0.3815 -1.3581  1.7364
 8014TIP3    H245458   4.977   2.350  12.916  2.2807  0.0985 -0.1706
 8015TIP3   OH245459   5.723   2.953  11.958  0.1051  0.6279  0.0232
 8015TIP3    H145460   5.666   2.988  12.027  1.2352 -0.3526  1.5154
 8015TIP3    H245461   5.666   2.896  11.907 -0.2922 -0.3552  1.4974
 8016TIP3   OH245462   2.344   1.457   2.808  0.1067 -0.0539  0.0101
 8016TIP3    H145463   2.329   1.485   2.718 -1.6331  2.4589  0.9588
 8016TIP3    H245464   2.358   1.539   2.856 -1.3295 -1.1102  2.3899
 8017TIP3   OH245465   1.012   0.903  12.746  0.5325  0.0729 -0.5092
 8017TIP3    H145466   1.067   0.935  12.674  0.2740  0.2350 -0.6374
 8017TIP3    H245467   0.963   0.829  12.708 -0.5911  0.9866 -0.9056
 8018TIP3   OH245468   5.100   5.700  13.910  0.3919 -0.9196  0.3777
 8018TIP3    H145469   5.084   5.727  14.000  0.3879  2.1816 -0.4552
 8018TIP3    H245470   5.031   5.636  13.891 -0.9630  0.0294  1.9100
 8019TIP3   OH245471   0.698   2.928  16.047  0.1426 -0.6045  0.8498
 8019TIP3    H145472   0.612   2.937  16.005 -0.1243  0.4058  1.5641
 8019TIP3    H245473   0.761   2.941  15.976 -0.2952 -0.8926  0.4009
 8020TIP3   OH245474   4.524   5.474  12.142 -0.8127 -0.9928 -0.9092
 8020TIP3    H145475   4.483   5.388  12.146  0.1057 -1.4151  0.1889
 8020TIP3    H245476   4.556   5.489  12.232 -0.1023  0.0584 -1.3175
 8021TIP3   OH245477   5.761   3.473  14.079 -0.2367 -0.2283  0.4001
 8021TIP3    H145478   5.740   3.460  14.171 -0.6261 -1.6549  0.1375
 8021TIP3    H245479   5.829   3.540  14.079 -0.8020  0.3685  1.6635
 8022TIP3   OH245480   6.102   6.723  12.411 -0.1242  0.0872 -0.5196
 8022TIP3    H145481   6.043   6.693  12.342 -1.0671 -1.2424  0.7955
 8022TIP3    H245482   6.080   6.816  12.423  0.7206  0.6105 -2.5945
 8023TIP3   OH245483   4.573   5.359  15.052 -0.0439 -0.4205  0.1554
 8023TIP3    H145484   4.635   5.294  15.020  0.0521 -1.0522  1.5537
 8023TIP3    H245485   4.627   5.427  15.092 -0.1771  0.1603 -0.6325
 8024TIP3   OH245486   2.552   0.554   3.177 -0.0558  0.3740 -0.1112
 8024TIP3    H145487   2.611   0.503   3.121  0.7202  0.7023  0.3848
 8024TIP3    H245488   2.609   0.618   3.220 -0.5991  0.0540  1.1508
 8025TIP3   OH245489   4.125   0.240   2.748  0.0087 -0.6373 -0.0623
 8025TIP3    H145490   4.095   0.183   2.818 -2.5335  0.6474  0.0110
 8025TIP3    H245491   4.047   0.253   2.693  1.5712 -0.5244 -2.3708
 8026TIP3   OH245492   5.581   1.528  13.025  0.0374 -1.1365 -0.2990
 8026TIP3    H145493   5.526   1.601  12.998  2.5612  1.6908  1.4846
 8026TIP3    H245494   5.580   1.531  13.121  3.9175 -0.2037 -0.1314
 8027TIP3   OH245495   0.913   3.143  15.694  0.1972 -0.0071 -0.0814
 8027TIP3    H145496   0.881   3.120  15.606  0.2536  1.1213 -0.4243
 8027TIP3    H245497   0.878   3.075  15.751 -0.8853 -0.0922 -0.8059
 8028TIP3   OH245498   3.562   2.019  12.477  0.4486  0.0850  0.0469
 8028TIP3    H145499   3.482   1.968  12.459  1.1905 -2.1385  2.4236
 8028TIP3    H245500   3.630   1.974  12.427  0.3988  1.5389 -1.3940
 8029TIP3   OH245501   5.559   0.184   3.628 -0.9693  0.2293 -0.3272
 8029TIP3    H145502   5.533   0.268   3.667  0.0695  0.3532  0.1403
 8029TIP3    H245503   5.483   0.156   3.578 -1.0143  1.9226 -1.2938
 8030TIP3   OH245504   3.539   2.927  11.390  0.2963  0.7391  0.3042
 8030TIP3    H145505   3.603   2.980  11.437  0.2556  0.5284  0.6006
 8030TIP3    H245506   3.590   2.882  11.323  1.0548 -1.7159  2.3519
 8031TIP3   OH245507   2.165   0.960   1.565 -0.4165 -0.1226 -0.3134
 8031TIP3    H145508   2.139   0.943   1.475  0.1114 -1.3687 -0.2612
 8031TIP3    H245509   2.116   0.896   1.617  0.4401 -0.4813  0.0914
 8032TIP3   OH245510   3.077   0.398   5.848 -0.3220  0.4267 -0.3958
 8032TIP3    H145511   3.135   0.451   5.903 -0.1627 -0.8220  0.6949
 8032TIP3    H245512   3.092   0.308   5.877 -0.9006 -0.1847 -1.8979
 8033TIP3   OH245513   0.415   6.401   0.475  0.0495  0.1303 -0.1015
 8033TIP3    H145514   0.414   6.405   0.380  0.2170  2.0444 -0.0589
 8033TIP3    H245515   0.330   6.436   0.502  0.3795  0.5155  0.4604
 8034TIP3   OH245516   2.267   2.268  14.614  0.8679 -0.3099 -0.5598
 8034TIP3    H145517   2.313   2.197  14.660  0.3286 -0.8991 -0.9135
 8034TIP3    H245518   2.211   2.307  14.681  1.6886  0.2543 -0.1884
 8035TIP3   OH245519   2.340   6.280  15.186  0.0420  0.5554  0.0273
 8035TIP3    H145520   2.362   6.363  15.229  0.6377  0.1118  0.6112
 8035TIP3    H245521   2.244   6.279  15.183  0.0129  0.9371  0.6799
 8036TIP3   OH245522   1.603   5.784  11.864  0.0337 -0.1639  0.1023
 8036TIP3    H145523   1.517   5.824  11.874  0.4135  1.4458 -2.0384
 8036TIP3    H245524   1.655   5.819  11.937 -0.6067  0.4702  0.2616
 8037TIP3   OH245525   5.418   6.374  13.971 -0.6303  0.2590 -0.6001
 8037TIP3    H145526   5.424   6.433  14.045 -1.3031  1.3836 -1.4218
 8037TIP3    H245527   5.481   6.408  13.908  1.4338 -1.8477  0.1722
 8038TIP3   OH245528   6.055   2.084   2.069  0.5128  0.2237 -0.1629
 8038TIP3    H145529   6.005   2.043   1.998  0.6499 -0.6548  0.2353
 8038TIP3    H245530   6.143   2.093   2.033 -0.0150  2.2794 -1.0641
 8039TIP3   OH245531   3.644   4.907  12.522 -0.7246  1.0239  0.2330
 8039TIP3    H145532   3.596   4.887  12.603 -0.8652 -0.5120 -0.1867
 8039TIP3    H245533   3.702   4.832  12.511  0.1904  1.8170 -0.4467
 8040TIP3   OH245534   4.203   0.927  13.262  0.2888  0.1491  0.6000
 8040TIP3    H145535   4.219   1.021  13.260  0.7292  0.0880  1.1341
 8040TIP3    H245536   4.225   0.897  13.173 -1.0454  0.7208  0.0391
 8041TIP3   OH245537   1.207   6.588   5.940  0.0421  0.1500  0.0317
 8041TIP3    H145538   1.134   6.592   6.003 -0.4041  1.9396 -0.5498
 8041TIP3    H245539   1.177   6.640   5.866  1.2796 -0.4692 -0.9241
 8042TIP3   OH245540   5.502   0.711   0.530  0.0063  0.1769 -0.5622
 8042TIP3    H145541   5.523   0.787   0.476 -1.1694 -0.6259 -2.2297
 8042TIP3    H245542   5.574   0.650   0.514 -0.4520 -0.1499 -1.4453
 8043TIP3   OH245543   0.866   6.430   0.691  0.5068 -0.3472 -0.1492
 8043TIP3    H145544   0.794   6.401   0.747 -1.5908  0.8973 -1.9859
 8043TIP3    H245545   0.934   6.460   0.751 -0.5547 -1.4631  1.6846
 8044TIP3   OH245546   3.567   4.624  15.663 -0.5324  0.3656 -0.3276
 8044TIP3    H145547   3.543   4.660  15.748  0.2912  3.1557 -1.1901
 8044TIP3    H245548   3.490   4.638  15.608 -0.0133  1.3951 -0.8163
 8045TIP3   OH245549   4.553   5.354  11.112  0.5932 -0.0973 -0.3651
 8045TIP3    H145550   4.613   5.424  11.086  0.1751  0.4621  0.1382
 8045TIP3    H245551   4.513   5.325  11.030  1.1997 -0.1478 -0.6448
 8046TIP3   OH245552   2.614   2.602  12.373  0.0575 -0.2958  0.3954
 8046TIP3    H145553   2.629   2.593  12.279 -0.9507 -1.0477  0.2934
 8046TIP3    H245554   2.666   2.679  12.398  0.8410 -0.4652 -0.6463
 8047TIP3   OH245555   3.445   1.958   5.680 -0.1208 -0.4772 -0.0342
 8047TIP3    H145556   3.533   1.946   5.643 -0.0879  1.1837 -0.5685
 8047TIP3    H245557   3.400   2.014   5.618 -0.8985  0.3477  1.2211
 8048TIP3   OH245558   0.508   5.155  16.653  0.2250 -0.0900  0.8403
 8048TIP3    H145559   0.598   5.172  16.627  0.6309 -1.4293  1.3084
 8048TIP3    H245560   0.496   5.202  16.735 -0.1419  1.6986 -0.1734
 8049TIP3   OH245561   6.761   5.623  16.649  0.0299 -0.4093 -0.6686
 8049TIP3    H145562   6.687   5.684  16.647  0.8752  0.7908  1.3077
 8049TIP3    H245563   6.839   5.679  16.652  0.9714 -1.6324 -1.5223
 8050TIP3   OH245564   1.193   0.269  16.798  0.6144  0.1751 -0.4706
 8050TIP3    H145565   1.098   0.277  16.809  0.5066 -0.6165 -0.7504
 8050TIP3    H245566   1.228   0.274  16.887  0.0879 -2.0498 -0.0834
 8051TIP3   OH245567   1.461   2.972  11.308 -0.1404 -0.3385 -0.4736
 8051TIP3    H145568   1.537   2.980  11.366 -0.8216  0.6228  0.3180
 8051TIP3    H245569   1.496   2.934  11.227  0.9919 -0.8545  0.2380
 8052TIP3   OH245570   3.177   2.268  15.796  0.4224  0.6397 -0.0766
 8052TIP3    H145571   3.156   2.185  15.752  0.5110  1.8420 -2.5876
 8052TIP3    H245572   3.104   2.283  15.855  1.6016 -2.4288  2.4708
 8053TIP3   OH245573   2.507   6.187   6.543  0.5842 -0.2352  0.5205
 8053TIP3    H145574   2.524   6.249   6.614  0.7000 -0.0327  0.3162
 8053TIP3    H245575   2.447   6.232   6.484 -0.4999 -0.8556  1.1077
 8054TIP3   OH245576   3.404   6.408  11.957 -0.0654  0.4330  0.1093
 8054TIP3    H145577   3.327   6.443  11.912 -2.0205 -4.0095 -0.5610
 8054TIP3    H245578   3.381   6.409  12.050  0.2522  1.5609  0.1864
 8055TIP3   OH245579   4.778   3.885   1.348  0.2548 -0.1288 -0.1972
 8055TIP3    H145580   4.769   3.826   1.272  2.6521 -0.0771 -0.5946
 8055TIP3    H245581   4.722   3.846   1.415 -1.2471 -0.6648 -1.6911
 8056TIP3   OH245582   4.387   2.841  14.988  0.1912  0.4095  0.2402
 8056TIP3    H145583   4.436   2.919  14.960  1.0887 -0.1904  0.0742
 8056TIP3    H245584   4.392   2.782  14.913  0.0937 -0.0689  0.6050
 8057TIP3   OH245585   1.307   2.766  11.080  0.2712 -0.0779  0.3162
 8057TIP3    H145586   1.378   2.805  11.130 -0.4148 -0.0963  1.3260
 8057TIP3    H245587   1.343   2.682  11.050  0.6574 -0.1169  0.8696
 8058TIP3   OH245588   1.747   0.460  10.972 -0.6341 -0.0152 -0.0062
 8058TIP3    H145589   1.771   0.427  10.885 -0.3631  2.0039 -0.7471
 8058TIP3    H245590   1.673   0.518  10.956 -0.9487 -0.0731  1.2006
 8059TIP3   OH245591   4.603   1.359  11.192 -0.2153 -0.6691 -0.7736
 8059TIP3    H145592   4.687   1.354  11.238  0.0840 -1.1981 -1.3567
 8059TIP3    H245593   4.621   1.413  11.115 -0.8645  0.7332  0.0254
 8060TIP3   OH245594   1.825   2.890  13.725 -0.0527  0.4901 -0.3320
 8060TIP3    H145595   1.734   2.879  13.752  0.2043 -0.3307  0.2418
 8060TIP3    H245596   1.820   2.945  13.647 -1.2314 -1.1113 -1.4706
 8061TIP3   OH245597   6.107   5.702   6.066  0.0196  0.1638 -0.3451
 8061TIP3    H145598   6.083   5.795   6.062 -1.0198 -0.1212 -1.2508
 8061TIP3    H245599   6.024   5.656   6.051  0.6260 -0.9075 -0.4611
 8062TIP3   OH245600   3.399   1.329   0.098 -0.7008 -0.3776  0.2175
 8062TIP3    H145601   3.336   1.388   0.055 -0.4940 -1.1916 -1.2723
 8062TIP3    H245602   3.439   1.281   0.026  0.6792 -0.8297  1.2523
 8063TIP3   OH245603   5.597   1.092   2.844 -0.1783 -0.0802 -0.2383
 8063TIP3    H145604   5.539   1.165   2.864  0.2730  0.2914 -0.2632
 8063TIP3    H245605   5.674   1.107   2.898 -0.0066 -0.4343 -0.3836
 8064TIP3   OH245606   4.701   5.841   4.727  0.4858 -0.5707 -0.2997
 8064TIP3    H145607   4.787   5.847   4.685 -0.5064 -2.0751 -2.7817
 8064TIP3    H245608   4.717   5.793   4.809  2.0104 -0.6845 -0.6391
 8065TIP3   OH245609   5.806   1.269  12.474  0.5665 -0.6116 -0.6123
 8065TIP3    H145610   5.893   1.304  12.491 -0.0190  1.0582 -0.8669
 8065TIP3    H245611   5.772   1.247  12.561  0.1698  1.4971 -0.1813
 8066TIP3   OH245612   2.667   4.546  13.894  0.3292 -0.1367 -0.3535
 8066TIP3    H145613   2.650   4.633  13.859  0.5433  0.2309  0.4398
 8066TIP3    H245614   2.580   4.506  13.903  0.0185  0.8552  1.4462
 8067TIP3   OH245615   0.653   4.393  16.744  0.1093  0.3621 -0.0566
 8067TIP3    H145616   0.673   4.415  16.653  0.8533 -0.1800 -0.0424
 8067TIP3    H245617   0.571   4.344  16.739  0.2593  0.1445 -0.4655
 8068TIP3   OH245618   4.214   6.749  11.079 -0.1860 -0.2572  0.5721
 8068TIP3    H145619   4.257   6.754  10.994  3.2263 -0.0875  2.1255
 8068TIP3    H245620   4.155   6.675  11.072  1.0142 -1.1166 -1.5426
 8069TIP3   OH245621   4.455   3.644  17.248 -0.1256  0.3791 -0.2994
 8069TIP3    H145622   4.454   3.697  17.328  0.7649  1.0486 -0.7123
 8069TIP3    H245623   4.476   3.706  17.178  0.9629 -0.5006 -0.7878
 8070TIP3   OH245624   3.926   3.289  11.108 -0.7251 -0.5787 -0.3506
 8070TIP3    H145625   3.850   3.285  11.050 -0.7024  1.0132 -0.5563
 8070TIP3    H245626   3.955   3.380  11.102 -0.9772 -0.2053  2.4613
 8071TIP3   OH245627   1.869   4.008   2.588  0.2906  0.0505  0.1898
 8071TIP3    H145628   1.808   3.983   2.519 -0.4422  0.9327  0.4849
 8071TIP3    H245629   1.822   3.991   2.669 -0.1647  2.0401  0.4074
 8072TIP3   OH245630   3.238   4.083  14.062 -0.0091  0.0777  0.3665
 8072TIP3    H145631   3.186   4.077  14.142 -1.8206  1.4485 -0.6234
 8072TIP3    H245632   3.188   4.142  14.005  0.8234 -1.4121 -2.0712
 8073TIP3   OH245633   1.735   2.086  16.316 -0.5610  0.3742  0.2442
 8073TIP3    H145634   1.737   2.020  16.386  4.2166  2.7035  2.8456
 8073TIP3    H245635   1.657   2.138  16.334 -0.1573  0.1347  3.1888
 8074TIP3   OH245636   2.425   4.430  13.924  0.3831 -0.2245 -0.3931
 8074TIP3    H145637   2.371   4.396  13.853 -0.7173  0.2435  0.1790
 8074TIP3    H245638   2.424   4.361  13.990  1.5656 -0.7398 -0.8952
 8075TIP3   OH245639   2.110   2.413  15.227  0.1989 -0.2453 -0.0135
 8075TIP3    H145640   2.115   2.458  15.311  0.3257  0.2172 -0.2654
 8075TIP3    H245641   2.167   2.337  15.237  1.4472  0.6510 -0.1954
 8076TIP3   OH245642   3.010   1.006   5.101 -0.3191 -0.2554 -0.0120
 8076TIP3    H145643   2.978   0.943   5.166  1.7219  0.2847  1.6225
 8076TIP3    H245644   2.949   1.080   5.107 -1.6556 -1.2851 -0.6225
 8077TIP3   OH245645   1.482   1.775   3.838 -0.5084 -0.7316  0.5609
 8077TIP3    H145646   1.396   1.809   3.812 -0.2693 -2.2277 -2.8235
 8077TIP3    H245647   1.469   1.681   3.846  0.9428 -1.1086 -0.9682
 8078TIP3   OH245648   5.833   4.953  15.634 -0.1319  0.6507 -0.0931
 8078TIP3    H145649   5.875   4.977  15.552 -0.1528 -1.4257 -0.7743
 8078TIP3    H245650   5.900   4.969  15.701 -0.0067  2.0563 -0.5295
 8079TIP3   OH245651   0.647   4.106  14.881 -0.1317  0.0021 -0.3003
 8079TIP3    H145652   0.711   4.097  14.810 -0.5045 -0.0839 -0.6289
 8079TIP3    H245653   0.564   4.122  14.837 -0.2034  0.9677  0.1465
 8080TIP3   OH245654   3.761   1.138  14.213  0.0964  0.0686  0.1120
 8080TIP3    H145655   3.745   1.216  14.266 -0.5748  0.5246 -0.7488
 8080TIP3    H245656   3.760   1.169  14.123 -2.9474 -1.3175 -0.4494
 8081TIP3   OH245657   4.846   1.269   0.415  0.1240  0.0635 -1.0185
 8081TIP3    H145658   4.825   1.251   0.323  1.2371 -0.8536 -1.1227
 8081TIP3    H245659   4.821   1.190   0.462  3.3743 -1.2386 -1.1970
 8082TIP3   OH245660   5.467   0.282  15.848  0.4843  0.2891  0.1618
 8082TIP3    H145661   5.488   0.190  15.830  0.3266 -0.2457  2.4087
 8082TIP3    H245662   5.532   0.332  15.798  0.0108 -0.9629 -1.8257
 8083TIP3   OH245663   0.507   1.742  12.048  0.1659 -0.0886 -0.8949
 8083TIP3    H145664   0.433   1.754  11.988 -0.3277 -1.8185 -0.6947
 8083TIP3    H245665   0.565   1.815  12.030 -0.8871  0.4841 -2.1201
 8084TIP3   OH245666   5.303   1.518  15.773 -1.1792  0.5144 -0.0109
 8084TIP3    H145667   5.227   1.575  15.783 -2.2378 -0.8261 -0.1583
 8084TIP3    H245668   5.277   1.454  15.706  0.3324  0.4365 -0.5516
 8085TIP3   OH245669   1.890   5.995   2.921  0.5486  0.3253 -0.0003
 8085TIP3    H145670   1.807   6.006   2.968 -0.0019  0.3897 -0.9728
 8085TIP3    H245671   1.882   6.050   2.844  1.3347 -0.0011 -0.3285
 8086TIP3   OH245672   0.970   1.469  15.245  0.2812  0.0108 -0.2825
 8086TIP3    H145673   0.969   1.466  15.341 -1.4785  0.4945 -0.2368
 8086TIP3    H245674   0.888   1.514  15.223 -0.0581 -1.3897 -2.0521
 8087TIP3   OH245675   3.305   2.043  14.015 -0.3857 -0.6155 -0.0137
 8087TIP3    H145676   3.361   2.055  14.092  0.4990 -1.8314 -0.4379
 8087TIP3    H245677   3.365   2.014  13.947 -1.0536  1.0359 -1.3588
 8088TIP3   OH245678   2.658   3.346  16.474 -0.0407  0.0699  0.0757
 8088TIP3    H145679   2.629   3.260  16.505  0.2171 -0.2769 -0.6363
 8088TIP3    H245680   2.606   3.409  16.525 -0.4526 -0.5106  0.3776
 8089TIP3   OH245681   4.383   2.116  14.238 -0.3031  0.1548  0.1949
 8089TIP3    H145682   4.462   2.168  14.253  0.4318 -0.9139  0.1306
 8089TIP3    H245683   4.387   2.047  14.304  0.1580 -1.4234 -1.4228
 8090TIP3   OH245684   1.812   0.049  14.318  0.2417 -0.2217 -0.4320
 8090TIP3    H145685   1.777   0.116  14.259  1.1450  0.1622 -0.5569
 8090TIP3    H245686   1.841   0.097  14.395 -2.5663 -0.9259  1.1615
 8091TIP3   OH245687   6.166   4.578  14.463 -0.8501 -0.0901 -0.8116
 8091TIP3    H145688   6.171   4.494  14.508 -1.0042 -0.1073 -0.8259
 8091TIP3    H245689   6.200   4.560  14.375 -0.3766 -0.0155 -0.6487
 8092TIP3   OH245690   3.159   3.930  12.245 -0.2262  0.0503 -0.5309
 8092TIP3    H145691   3.197   3.908  12.160  0.7093 -1.2390  0.1849
 8092TIP3    H245692   3.119   3.848  12.275  1.6505 -0.2604  1.3570
 8093TIP3   OH245693   6.554   2.182  14.702  0.5868 -0.1455 -0.1697
 8093TIP3    H145694   6.539   2.119  14.772  1.3215  0.2982  0.3914
 8093TIP3    H245695   6.499   2.150  14.630 -1.2695  0.1654  1.0319
 8094TIP3   OH245696   1.892   2.436  12.123 -0.1457  0.3237 -0.3198
 8094TIP3    H145697   1.960   2.440  12.056  0.7951 -1.3866  0.4633
 8094TIP3    H245698   1.866   2.528  12.136  0.5010  0.8029 -2.1266
 8095TIP3   OH245699   1.952   4.616  12.714 -0.3673 -0.2098  0.0506
 8095TIP3    H145700   1.901   4.609  12.634  0.8675  0.0802 -0.7814
 8095TIP3    H245701   1.913   4.551  12.773 -1.3029 -0.4060 -0.7655
 8096TIP3   OH245702   0.073   1.982  17.211 -0.4657 -0.2484  0.3462
 8096TIP3    H145703  -0.022   1.989  17.208 -0.4004  0.9440  0.4808
 8096TIP3    H245704   0.090   1.911  17.272 -1.2562  0.3314  1.2612
 8097TIP3   OH245705   6.120   6.486   2.252 -0.2691 -0.3417  0.2532
 8097TIP3    H145706   6.137   6.526   2.166  2.4892  1.8757  1.6369
 8097TIP3    H245707   6.057   6.546   2.293  1.5907  1.0553  1.2186
 8098TIP3   OH245708   5.956   5.631   0.913 -0.2991 -0.3964 -0.0009
 8098TIP3    H145709   5.936   5.717   0.877  2.0799 -0.1771 -1.0187
 8098TIP3    H245710   5.914   5.569   0.853 -2.2870  0.0083  0.9133
 8099TIP3   OH245711   2.486   1.427  14.267 -0.7838 -0.0456  1.1020
 8099TIP3    H145712   2.433   1.354  14.235 -2.4735  1.3926  0.5101
 8099TIP3    H245713   2.576   1.396  14.258 -1.4330 -1.8903  0.4629
 8100TIP3   OH245714   2.282   6.624  12.456 -0.2003  0.0315 -0.3152
 8100TIP3    H145715   2.209   6.563  12.441  0.7026 -1.3038  0.4605
 8100TIP3    H245716   2.301   6.660  12.369 -1.8326  0.5055 -0.5169
 8101TIP3   OH245717   3.028   6.094   3.292  0.0870  0.2154 -0.1984
 8101TIP3    H145718   2.933   6.083   3.299  0.1414 -0.4391 -0.4432
 8101TIP3    H245719   3.056   6.112   3.382 -0.0836 -1.1091  0.1372
 8102TIP3   OH245720   5.461   6.422  16.564  0.1933 -0.1389 -0.4397
 8102TIP3    H145721   5.424   6.343  16.603 -0.4161  0.4066  0.1302
 8102TIP3    H245722   5.442   6.414  16.471 -1.2889  0.0464 -0.1925
 8103TIP3   OH245723   4.782   4.677  17.164  0.5172 -0.2225  0.1361
 8103TIP3    H145724   4.729   4.686  17.243  0.5064 -0.5144  0.1642
 8103TIP3    H245725   4.789   4.582  17.151  0.2530 -0.1714 -0.3903
 8104TIP3   OH245726   2.322   0.425  16.527  0.6585  0.1754 -0.1251
 8104TIP3    H145727   2.382   0.400  16.456  0.0077  3.0145 -1.8256
 8104TIP3    H245728   2.374   0.484  16.582  0.0502  0.9715 -0.4004
 8105TIP3   OH245729   0.060   4.617   5.867 -0.1339  0.0620 -0.2433
 8105TIP3    H145730   0.124   4.609   5.796  2.0983 -0.4574  1.6695
 8105TIP3    H245731   0.044   4.527   5.896  0.0893  0.3244  0.7661
 8106TIP3   OH245732   2.080   3.426  14.536 -0.1061  0.6750  0.4324
 8106TIP3    H145733   1.996   3.399  14.575  0.2984 -2.0802 -0.3705
 8106TIP3    H245734   2.090   3.369  14.460  1.6328  2.2742 -0.6149
 8107TIP3   OH245735   1.679   6.540   4.049 -0.8131  0.1288 -0.1214
 8107TIP3    H145736   1.647   6.586   3.971 -0.0126  0.9394  0.0233
 8107TIP3    H245737   1.732   6.604   4.095 -0.1227 -0.7722  0.3647
 8108TIP3   OH245738   4.131   3.666  17.247 -0.2324  0.7142 -0.2019
 8108TIP3    H145739   4.172   3.624  17.323  1.2759  2.0059 -0.2532
 8108TIP3    H245740   4.098   3.593  17.195  1.1457 -0.3564  0.3468
 8109TIP3   OH245741   5.743   3.028  12.803  0.0093 -0.5790 -0.3415
 8109TIP3    H145742   5.694   3.079  12.867 -0.3915 -0.6993 -0.5481
 8109TIP3    H245743   5.693   3.038  12.721  0.8324  0.0695 -0.7879
 8110TIP3   OH245744   5.745   6.703   4.971 -0.2130  0.5189 -0.2056
 8110TIP3    H145745   5.732   6.707   4.876  0.9432 -1.9289 -0.5406
 8110TIP3    H245746   5.671   6.651   5.003  0.0523  0.2846  0.0402
 8111TIP3   OH245747   3.193   1.986  16.307  0.5239 -0.0826  0.1223
 8111TIP3    H145748   3.100   2.000  16.324  0.1131 -4.0969  2.6353
 8111TIP3    H245749   3.195   1.916  16.241  1.9100  1.5015 -1.6161
 8112TIP3   OH245750   5.427   5.390  17.270  0.0141  0.2690  0.2599
 8112TIP3    H145751   5.426   5.294  17.268  0.7191  0.2689 -1.1055
 8112TIP3    H245752   5.335   5.415  17.267 -0.1423 -0.3740 -1.6528
 8113TIP3   OH245753   6.095   6.755  11.967  0.3844 -0.2935 -0.2478
 8113TIP3    H145754   6.034   6.742  11.894  0.7707  1.0935 -0.8652
 8113TIP3    H245755   6.051   6.818  12.024  0.3270 -0.9458  0.4315
 8114TIP3   OH245756   0.323   2.226  11.507 -0.1585 -0.3162 -0.2566
 8114TIP3    H145757   0.267   2.288  11.553  0.9017  1.9216 -1.8045
 8114TIP3    H245758   0.262   2.171  11.457 -1.0709  0.9220 -0.5470
 8115TIP3   OH245759   3.817   2.167  17.175 -0.5443  0.6180 -0.1666
 8115TIP3    H145760   3.771   2.087  17.150 -1.2056  0.8251  0.3585
 8115TIP3    H245761   3.803   2.174  17.270  0.6214  0.6564  0.0166
 8116TIP3   OH245762   0.297   4.437  16.434  0.5788 -0.0683 -0.1385
 8116TIP3    H145763   0.238   4.511  16.421  1.2016  0.5919  0.6671
 8116TIP3    H245764   0.347   4.432  16.353  0.2127  0.0990 -0.3779
 8117TIP3   OH245765   3.143   0.906   3.474  0.3188 -0.2922  0.1274
 8117TIP3    H145766   3.178   0.927   3.561 -1.0865 -2.0125  1.1573
 8117TIP3    H245767   3.077   0.840   3.490 -0.8088  0.1966 -2.1594
 8118TIP3   OH245768   4.667   3.813  11.234  0.1095 -0.0238 -0.7778
 8118TIP3    H145769   4.668   3.720  11.253 -0.1203  0.2767  0.7883
 8118TIP3    H245770   4.579   3.843  11.257  0.8594  0.9863  0.9699
 8119TIP3   OH245771   4.481   2.143  15.270  0.1580 -0.1008  0.1502
 8119TIP3    H145772   4.511   2.104  15.188 -2.0684  0.8365 -1.1982
 8119TIP3    H245773   4.510   2.234  15.266 -1.1258  0.3098 -0.2837
 8120TIP3   OH245774   1.291   1.085   0.573 -0.3787 -0.3560  0.8730
 8120TIP3    H145775   1.340   1.162   0.546  1.2858 -1.2100  1.3092
 8120TIP3    H245776   1.208   1.119   0.606 -0.6493  1.0315 -1.0816
 8121TIP3   OH245777   0.814   4.121   2.863  0.1267  0.4591 -0.6002
 8121TIP3    H145778   0.884   4.074   2.908 -0.6513  0.5356  0.7308
 8121TIP3    H245779   0.780   4.059   2.799  0.6230  0.0160 -0.4392
 8122TIP3   OH245780   1.243   1.711  14.665 -0.6541 -0.4128 -0.2938
 8122TIP3    H145781   1.207   1.714  14.754  0.6855 -0.6848  0.2840
 8122TIP3    H245782   1.275   1.800  14.650 -0.1741 -0.5633 -0.1868
 8123TIP3   OH245783   2.904   3.510  12.121 -0.0554  0.2068 -0.1607
 8123TIP3    H145784   2.894   3.499  12.027  0.0794  0.0550 -0.1581
 8123TIP3    H245785   2.823   3.552  12.149 -0.2258 -0.0296 -0.2980
 8124TIP3   OH245786   0.967   1.166  17.259  0.1959  0.2488 -0.0084
 8124TIP3    H145787   0.960   1.164  17.164  1.0096  1.1371 -0.1060
 8124TIP3    H245788   1.058   1.143  17.277  0.2109  0.6914  0.5167
 8125TIP3   OH245789   1.887   5.554  14.157  0.2946 -0.0752 -0.1579
 8125TIP3    H145790   1.855   5.614  14.089  0.7675 -0.2137 -0.5062
 8125TIP3    H245791   1.844   5.583  14.237  0.9058  1.0525 -0.2265
 8126TIP3   OH245792   6.008   2.535   0.268 -0.0592  0.5464 -0.3363
 8126TIP3    H145793   5.963   2.588   0.203  0.0237 -1.4928 -2.1818
 8126TIP3    H245794   6.099   2.531   0.238  0.6783  1.8790  1.5137
 8127TIP3   OH245795   6.050   6.396   3.001 -0.2001  0.3805  0.2331
 8127TIP3    H145796   6.086   6.342   3.072 -0.0121  1.8040  1.2595
 8127TIP3    H245797   6.124   6.409   2.941  0.0203  0.2908  0.4825
 8128TIP3   OH245798   4.776   3.444   1.076 -0.3571 -0.0716  0.2120
 8128TIP3    H145799   4.760   3.390   0.999 -2.6205  0.9137 -0.0926
 8128TIP3    H245800   4.872   3.444   1.086 -0.0498 -0.8102 -2.1304
 8129TIP3   OH245801   4.631   5.772   1.458  0.2600  0.2379  0.0579
 8129TIP3    H145802   4.668   5.758   1.370  3.6093 -1.9901  1.5747
 8129TIP3    H245803   4.580   5.693   1.475 -0.8235  0.9068 -0.0585
 8130TIP3   OH245804   1.271   2.412  11.715 -0.1045 -0.2116  0.4080
 8130TIP3    H145805   1.307   2.492  11.754  1.5811 -0.5724 -0.3230
 8130TIP3    H245806   1.274   2.427  11.621 -0.5527 -0.8214  0.2869
 8131TIP3   OH245807   2.740   4.038  12.343  0.0495  0.4209  0.3784
 8131TIP3    H145808   2.710   3.969  12.284 -0.3975  0.7702  0.1858
 8131TIP3    H245809   2.678   4.110  12.328 -0.4261  0.3049  1.7020
 8132TIP3   OH245810   4.684   3.050   0.349 -0.4539  0.5564 -0.2983
 8132TIP3    H145811   4.668   3.122   0.410  0.2783  1.1862 -0.8293
 8132TIP3    H245812   4.597   3.015   0.329 -0.6924  0.2514  1.1954
 8133TIP3   OH245813   4.044   3.030   2.285 -0.1084 -0.0310 -0.2526
 8133TIP3    H145814   4.044   3.107   2.342 -0.3208 -0.3095  0.1260
 8133TIP3    H245815   4.136   3.003   2.281  0.5197  2.1123 -2.9501
 8134TIP3   OH245816   4.959   1.920   4.839 -0.4266 -0.2630 -0.0353
 8134TIP3    H145817   4.915   1.965   4.911  1.9826 -1.0806  2.0796
 8134TIP3    H245818   4.887   1.890   4.783 -2.5465 -0.6326  2.6400
 8135TIP3   OH245819   6.339   4.131  12.795 -0.0345 -0.0027 -0.3591
 8135TIP3    H145820   6.322   4.162  12.706  1.5222 -0.5959 -0.8950
 8135TIP3    H245821   6.303   4.199  12.852 -2.6114 -0.3985 -1.3598
 8136TIP3   OH245822   0.392   3.365   3.259  0.1294  0.4497  0.0996
 8136TIP3    H145823   0.416   3.442   3.207  0.1066  0.6723  0.4211
 8136TIP3    H245824   0.361   3.400   3.342 -0.3089  0.1099  0.0792
 8137TIP3   OH245825   4.577   6.427   5.052  0.4247 -0.4469  0.5078
 8137TIP3    H145826   4.523   6.386   5.120  0.4916  0.5381  1.1728
 8137TIP3    H245827   4.666   6.402   5.075  0.3970 -0.6305  0.4179
 8138TIP3   OH245828   4.216   4.686  14.999 -0.5923 -0.5426  0.4505
 8138TIP3    H145829   4.177   4.749  15.060 -0.9594  1.6779 -1.9434
 8138TIP3    H245830   4.169   4.604  15.017 -3.1895  0.9222  0.7683
 8139TIP3   OH245831   6.740   6.253   5.508  0.6130  0.1789 -0.1188
 8139TIP3    H145832   6.784   6.307   5.442  1.3626  0.2251  0.4048
 8139TIP3    H245833   6.757   6.163   5.481  2.5477  0.1509  0.9967
 8140TIP3   OH245834   1.507   5.592   1.216 -0.2318 -0.4351 -0.3969
 8140TIP3    H145835   1.551   5.644   1.149  0.0772 -0.4370 -0.1923
 8140TIP3    H245836   1.555   5.610   1.297  0.8880 -2.2586 -0.6117
 8141TIP3   OH245837   0.731   5.875  14.867  0.0075  0.3146 -0.1438
 8141TIP3    H145838   0.813   5.901  14.908 -0.3751  1.7140 -0.2349
 8141TIP3    H245839   0.754   5.800  14.812  1.2921  0.8815 -0.4030
 8142TIP3   OH245840   6.745   6.422  12.117 -0.6587  0.5672  0.1416
 8142TIP3    H145841   6.822   6.436  12.062  1.0680 -1.8907  1.7258
 8142TIP3    H245842   6.696   6.354  12.071 -1.2705  1.2680 -0.2563
 8143TIP3   OH245843   4.726   4.390   4.925 -0.2582  0.3181  0.3506
 8143TIP3    H145844   4.673   4.361   4.851  0.4813  0.8670 -0.4128
 8143TIP3    H245845   4.665   4.393   4.999 -1.8036  2.8468 -0.8875
 8144TIP3   OH245846   0.791   4.852  16.746  0.1760  0.0426 -0.2360
 8144TIP3    H145847   0.723   4.803  16.792 -0.3662  0.9918 -0.0166
 8144TIP3    H245848   0.853   4.784  16.717 -1.7697 -1.0515 -2.0745
 8145TIP3   OH245849   4.170   3.463   4.172 -0.1714  0.5370  0.3857
 8145TIP3    H145850   4.212   3.474   4.257 -1.2623 -0.1473  1.0410
 8145TIP3    H245851   4.078   3.483   4.187 -0.8395 -1.8070 -0.0587
 8146TIP3   OH245852   3.870   3.631  13.289 -0.1187  0.1765 -0.3293
 8146TIP3    H145853   3.850   3.597  13.376  2.3386 -1.1011 -0.1593
 8146TIP3    H245854   3.818   3.577  13.230  0.5342 -1.0790  0.2052
 8147TIP3   OH245855   5.306   2.872  17.068  0.0914 -0.0827 -0.1152
 8147TIP3    H145856   5.251   2.928  17.123 -1.1438  0.4240 -1.7858
 8147TIP3    H245857   5.275   2.784  17.085  2.0989 -0.3938  2.5962
 8148TIP3   OH245858   0.460   3.591  15.930 -0.0413  0.0466  0.2780
 8148TIP3    H145859   0.448   3.523  15.864  0.7513  0.2135 -0.0451
 8148TIP3    H245860   0.468   3.543  16.013 -0.1445 -0.2140  0.1354
 8149TIP3   OH245861   6.314   3.426   5.458  0.1430 -0.1581 -0.5806
 8149TIP3    H145862   6.357   3.347   5.423  0.9369  0.4395 -1.0094
 8149TIP3    H245863   6.265   3.396   5.534 -0.6896 -1.3046 -1.5357
 8150TIP3   OH245864   2.381   6.050  11.557  0.1877  0.1414  0.5467
 8150TIP3    H145865   2.289   6.031  11.576  0.2874 -0.0872  0.8113
 8150TIP3    H245866   2.410   6.101  11.632 -0.7456  3.6260 -1.2361
 8151TIP3   OH245867   5.599   0.137   2.225 -0.0108 -0.1390  0.0401
 8151TIP3    H145868   5.582   0.188   2.145 -1.9985  1.1034  1.1707
 8151TIP3    H245869   5.694   0.141   2.236  0.0398  2.2977 -0.6228
 8152TIP3   OH245870   6.374   3.035   3.764 -0.7123 -0.4264 -0.0447
 8152TIP3    H145871   6.336   2.992   3.841 -0.3308  1.5141  1.3095
 8152TIP3    H245872   6.384   2.965   3.700 -1.0044 -2.1474  1.6907
 8153TIP3   OH245873   2.913   0.584  15.049  0.1324 -0.1649  0.5244
 8153TIP3    H145874   2.956   0.512  15.003  4.3890  0.6978  2.6460
 8153TIP3    H245875   2.872   0.542  15.125  0.0409 -0.6694  0.2001
 8154TIP3   OH245876   4.813   0.632  14.163 -0.5325  0.0621  0.1297
 8154TIP3    H145877   4.886   0.576  14.136 -0.5592 -0.0127  0.2106
 8154TIP3    H245878   4.801   0.693  14.090  0.4390  0.9107  0.6687
 8155TIP3   OH245879   3.417   1.174  16.303 -0.7796 -0.0856 -0.5873
 8155TIP3    H145880   3.489   1.193  16.243 -0.9026 -0.9391 -1.0257
 8155TIP3    H245881   3.391   1.084  16.281 -2.0902  0.2683 -0.5538
 8156TIP3   OH245882   0.972   3.662  15.422  0.1174  0.3898  0.1563
 8156TIP3    H145883   1.063   3.688  15.434  0.0321  0.4481  0.6807
 8156TIP3    H245884   0.945   3.628  15.507  0.5837 -2.5635 -0.7915
 8157TIP3   OH245885   1.713   0.615   2.947 -0.0383  0.0025 -0.4095
 8157TIP3    H145886   1.760   0.597   3.028 -0.9036  1.1615  0.3841
 8157TIP3    H245887   1.751   0.696   2.914  1.2290 -1.1471 -1.9166
 8158TIP3   OH245888   6.335   4.238   1.743  0.3645 -0.1210  1.1342
 8158TIP3    H145889   6.297   4.154   1.718  2.3331 -0.7274 -0.0012
 8158TIP3    H245890   6.279   4.303   1.700 -3.0791 -0.5012  4.4440
 8159TIP3   OH245891   1.902   0.120   1.633  0.2385 -0.2370  0.5085
 8159TIP3    H145892   1.848   0.078   1.566 -0.0279 -0.7350  1.0239
 8159TIP3    H245893   1.858   0.101   1.716  0.3699  0.6709  0.8021
 8160TIP3   OH245894   2.433   2.517  13.067 -0.3457  0.2181  1.3842
 8160TIP3    H145895   2.461   2.516  12.976  0.5180  0.5976  1.6337
 8160TIP3    H245896   2.410   2.609  13.084 -1.3196 -0.0094  1.3092
 8161TIP3   OH245897   2.527   6.481   6.005 -0.7005  0.0813 -0.4395
 8161TIP3    H145898   2.440   6.520   6.019 -1.0921 -0.9281  0.0426
 8161TIP3    H245899   2.585   6.532   6.062 -1.6364 -1.6007  2.2124
 8162TIP3   OH245900   2.546   2.743  11.021  0.1245 -0.7039  0.5398
 8162TIP3    H145901   2.525   2.836  11.019 -1.9165 -1.1131 -0.7251
 8162TIP3    H245902   2.623   2.734  10.966  0.0037  0.1913  0.2148
 8163TIP3   OH245903   1.996   0.138   4.792  0.6567 -0.3676  0.1089
 8163TIP3    H145904   2.061   0.106   4.853  0.3154 -1.0388  0.1256
 8163TIP3    H245905   1.921   0.161   4.847  0.6001 -0.3219  0.0124
 8164TIP3   OH245906   5.459   3.342  11.185  0.6280 -0.0134  0.5169
 8164TIP3    H145907   5.530   3.335  11.121  0.7306 -0.3426  0.6650
 8164TIP3    H245908   5.397   3.403  11.145 -0.0615 -1.3924 -0.6211
 8165TIP3   OH245909   5.582   1.711  11.840  0.2446  0.0344 -0.3577
 8165TIP3    H145910   5.529   1.752  11.909  1.7128 -2.4830  2.4855
 8165TIP3    H245911   5.653   1.773  11.825 -0.5950  1.0344 -0.3502
 8166TIP3   OH245912   3.786   0.876   1.464 -0.3794  0.3501  0.1757
 8166TIP3    H145913   3.758   0.834   1.545  1.1461 -2.0349 -0.4194
 8166TIP3    H245914   3.882   0.878   1.470 -0.3076  1.5770 -0.8990
 8167TIP3   OH245915   2.965   0.258   4.386 -0.1511 -0.2417 -0.3571
 8167TIP3    H145916   3.037   0.321   4.382  1.0474 -1.5343  0.1444
 8167TIP3    H245917   2.999   0.180   4.343 -0.7392 -1.3412  1.0904
 8168TIP3   OH245918   3.784   4.841   2.204  0.1019  0.1045 -0.3956
 8168TIP3    H145919   3.767   4.781   2.132  0.0156  0.1329 -0.3997
 8168TIP3    H245920   3.702   4.890   2.214  0.1375  0.1499 -0.3257
 8169TIP3   OH245921   4.757   2.661  13.933 -0.3090 -0.5357  0.1431
 8169TIP3    H145922   4.812   2.734  13.905  0.3799 -1.2471 -0.3999
 8169TIP3    H245923   4.732   2.683  14.023 -0.7272  0.7181 -0.2476
 8170TIP3   OH245924   6.258   3.977  10.591  0.1027 -0.0065  0.1696
 8170TIP3    H145925   6.353   3.965  10.598  0.3753  2.5391  1.8608
 8170TIP3    H245926   6.245   4.017  10.505  0.7345  0.8995  0.4870
 8171TIP3   OH245927   1.115   5.699  13.876  0.2755  0.1855  0.1614
 8171TIP3    H145928   1.137   5.606  13.866  0.1180  0.0274  1.2191
 8171TIP3    H245929   1.120   5.734  13.787  1.1327 -0.6598 -0.1446
 8172TIP3   OH245930   1.174   1.104   0.331 -0.0115 -0.5084  0.1875
 8172TIP3    H145931   1.226   1.105   0.411 -1.8523 -0.8998  1.4342
 8172TIP3    H245932   1.226   1.156   0.269  1.8354 -0.8668  1.3485
 8173TIP3   OH245933   5.971   6.561  16.535  0.5704 -0.0421 -0.5784
 8173TIP3    H145934   5.885   6.526  16.511  0.7459 -0.6764 -0.3093
 8173TIP3    H245935   5.978   6.643  16.487 -0.9775  0.9817  0.8163
 8174TIP3   OH245936   3.067   2.218  10.837 -0.5872 -0.3191 -0.1242
 8174TIP3    H145937   3.066   2.168  10.918 -0.8976 -1.0774 -0.5870
 8174TIP3    H245938   3.141   2.278  10.847  0.2844 -1.4044  0.1320
 8175TIP3   OH245939   4.357   2.641   2.238  0.5534  0.1364 -0.9148
 8175TIP3    H145940   4.431   2.592   2.202 -0.3638 -1.2041 -1.0166
 8175TIP3    H245941   4.296   2.575   2.269  0.5124  1.2245  1.5490
 8176TIP3   OH245942   2.644   3.733   2.236  0.1899  0.6292 -0.1919
 8176TIP3    H145943   2.666   3.794   2.307 -0.0444  0.8363 -0.2958
 8176TIP3    H245944   2.724   3.728   2.184  0.6827 -0.2758  0.6190
 8177TIP3   OH245945   6.409   6.097   0.525  0.0060  0.3528  0.2842
 8177TIP3    H145946   6.338   6.160   0.531 -0.3138 -0.1864  3.4541
 8177TIP3    H245947   6.445   6.091   0.613  1.5751 -2.1535 -0.4063
 8178TIP3   OH245948   4.701   3.535  13.834 -0.1709  0.1675 -0.1416
 8178TIP3    H145949   4.737   3.528  13.745 -2.1183 -0.4020 -0.9248
 8178TIP3    H245950   4.650   3.616  13.833  1.2102  1.1051  1.0409
 8179TIP3   OH245951   4.765   2.193  17.206 -0.5234 -0.2207  0.0320
 8179TIP3    H145952   4.749   2.253  17.278  1.0013  0.1431  0.1051
 8179TIP3    H245953   4.858   2.206  17.184  0.0323 -2.9046  0.4029
 8180TIP3   OH245954   5.597   6.507  16.291 -0.1134 -0.3949 -0.1601
 8180TIP3    H145955   5.593   6.598  16.264 -0.0714 -0.1909  0.4951
 8180TIP3    H245956   5.688   6.482  16.278  0.2670  0.1680  1.2204
 8181TIP3   OH245957   3.689   0.075   4.726 -0.3812 -0.1506 -0.0524
 8181TIP3    H145958   3.628   0.003   4.714 -1.7104  1.0318 -0.7697
 8181TIP3    H245959   3.660   0.142   4.663  0.2294  1.3335  1.1637
 8182TIP3   OH245960   1.936   5.919   1.097 -0.5508 -0.3446 -0.0126
 8182TIP3    H145961   1.973   5.836   1.068 -0.8238 -1.0393  1.5283
 8182TIP3    H245962   1.957   5.923   1.191 -1.0374  1.0479  0.0522
 8183TIP3   OH245963   5.842   0.481   4.603 -0.3749  0.0520 -0.3347
 8183TIP3    H145964   5.907   0.459   4.670  1.3662  0.0840 -1.9123
 8183TIP3    H245965   5.772   0.417   4.614  0.4919 -0.7397  0.6842
 8184TIP3   OH245966   0.243   3.562   5.270 -0.0109 -0.0470  0.3918
 8184TIP3    H145967   0.223   3.529   5.358 -2.7531 -0.1189 -0.1845
 8184TIP3    H245968   0.162   3.603   5.240  1.2555  1.1877 -1.6131
 8185TIP3   OH245969   4.581   5.947  13.102  0.3360  0.5440 -0.5933
 8185TIP3    H145970   4.604   6.009  13.171  2.4499 -1.3126  0.4976
 8185TIP3    H245971   4.526   5.882  13.145  0.3091  0.2464 -1.0700
 8186TIP3   OH245972   3.479   5.204   4.384 -0.0749 -0.0552  0.5264
 8186TIP3    H145973   3.546   5.136   4.395 -1.3261 -1.5101 -0.4100
 8186TIP3    H245974   3.422   5.194   4.460 -1.7335 -1.8795 -0.8483
 8187TIP3   OH245975   4.096   0.071   1.707 -0.7300 -0.3626  0.0865
 8187TIP3    H145976   4.020   0.129   1.695 -1.2023 -0.4039  2.4239
 8187TIP3    H245977   4.146   0.111   1.777  0.6838 -1.1063 -0.4567
 8188TIP3   OH245978   1.644   0.072   2.530 -0.7630  0.3773 -0.3108
 8188TIP3    H145979   1.615  -0.014   2.562 -0.7700  0.6284  0.3679
 8188TIP3    H245980   1.585   0.134   2.572 -0.6096  0.7326 -0.6193
 8189TIP3   OH245981   0.553   6.092   2.901  0.1222  0.3444 -0.0304
 8189TIP3    H145982   0.602   6.019   2.864 -2.3690 -1.3054 -0.2414
 8189TIP3    H245983   0.558   6.079   2.995  0.4663  0.4660 -0.0286
 8190TIP3   OH245984   5.319   3.491  16.175  0.0532  0.0814  0.4091
 8190TIP3    H145985   5.364   3.535  16.248  2.3501 -1.3150 -0.0746
 8190TIP3    H245986   5.336   3.398  16.189 -1.0810 -0.3604 -0.9069
 8191TIP3   OH245987   2.883   5.927   2.165  0.1313  0.0009 -0.3763
 8191TIP3    H145988   2.889   5.838   2.198  0.7779  0.3068  0.3778
 8191TIP3    H245989   2.795   5.934   2.129  0.2244 -1.0731 -0.8568
 8192TIP3   OH245990   1.439   0.928   0.164  0.3770  0.1669 -0.0558
 8192TIP3    H145991   1.361   0.879   0.191 -0.1994  0.2181 -1.5656
 8192TIP3    H245992   1.417   1.020   0.184 -0.8308  0.4474 -2.2797
 8193TIP3   OH245993   4.560   0.258   3.891 -0.3896 -0.5905 -0.1080
 8193TIP3    H145994   4.615   0.330   3.920 -2.9494  0.8884  1.4339
 8193TIP3    H245995   4.610   0.179   3.913  0.9475  0.6583  1.5264
 8194TIP3   OH245996   5.678   1.262   4.062  0.5114  0.3020 -0.3084
 8194TIP3    H145997   5.684   1.239   3.969 -1.7934  1.8685 -0.9230
 8194TIP3    H245998   5.730   1.194   4.106  1.4034 -0.6880 -2.6760
 8195TIP3   OH245999   5.732   4.624  11.966  0.3385 -0.5002 -0.4509
 8195TIP3    H146000   5.747   4.576  11.885 -1.5474  0.4910 -1.4547
 8195TIP3    H246001   5.727   4.716  11.940  2.4245  0.1596  1.2130
 8196TIP3   OH246002   1.674   5.699   5.134 -0.2774  0.0314 -0.0338
 8196TIP3    H146003   1.729   5.768   5.098 -0.8447 -0.3861 -1.8199
 8196TIP3    H246004   1.631   5.661   5.058 -1.0375 -1.3804  1.0522
 8197TIP3   OH246005   0.678   2.379  11.242 -0.0059 -0.6168  0.6881
 8197TIP3    H146006   0.735   2.438  11.291  0.2457 -0.8438  0.6725
 8197TIP3    H246007   0.687   2.295  11.286  0.1160 -0.7908  0.3366
 8198TIP3   OH246008   2.280   2.742   2.571  0.1038 -0.0136  0.6174
 8198TIP3    H146009   2.371   2.758   2.547  0.2727 -0.3223  1.0336
 8198TIP3    H246010   2.284   2.668   2.632 -0.4821 -0.4268  0.1723
 8199TIP3   OH246011   1.671   1.366   2.620  0.4830 -0.3689 -0.0455
 8199TIP3    H146012   1.621   1.439   2.584 -0.5289 -1.0520 -0.0998
 8199TIP3    H246013   1.762   1.395   2.619 -0.0905  1.7357  1.9856
 8200TIP3   OH246014   4.458   1.134   3.607  0.7234  0.4630  0.5095
 8200TIP3    H146015   4.521   1.194   3.567 -0.5490  2.3601  1.2343
 8200TIP3    H246016   4.486   1.128   3.699  0.1190  0.9537  0.7283
 8201TIP3   OH246017   1.115   3.676  11.728  0.2867  0.3697  0.4174
 8201TIP3    H146018   1.067   3.594  11.721  0.7916 -0.1064  1.9966
 8201TIP3    H246019   1.117   3.711  11.639  0.8579 -1.7881 -0.4822
 8202TIP3   OH246020   2.126   6.609  12.212  0.2834 -0.7191 -0.1095
 8202TIP3    H146021   2.070   6.677  12.175  0.1093 -0.2827  0.9082
 8202TIP3    H246022   2.214   6.632  12.182  0.1481 -0.3776 -0.2583
 8203TIP3   OH246023   2.619   5.785   2.296  0.4875  0.2127 -0.0944
 8203TIP3    H146024   2.605   5.694   2.269  1.0402 -0.4403  1.6784
 8203TIP3    H246025   2.591   5.837   2.221 -1.6362 -1.3367 -0.4587
 8204TIP3   OH246026   1.732   4.122   3.564 -0.3386 -0.7687  0.1552
 8204TIP3    H146027   1.722   4.043   3.617 -0.0151  0.3559  1.9812
 8204TIP3    H246028   1.722   4.194   3.626 -1.5984  0.6713 -1.6134
 8205TIP3   OH246029   4.672   6.332   4.781 -0.3174  0.1199 -0.4637
 8205TIP3    H146030   4.610   6.259   4.783  0.4362 -0.5343  0.7293
 8205TIP3    H246031   4.621   6.407   4.810 -0.6961 -0.3066  0.0120
 8206TIP3   OH246032   3.197   2.316   5.014 -0.2876 -0.1733  0.1603
 8206TIP3    H146033   3.180   2.343   4.924  1.6602  0.7744  0.0269
 8206TIP3    H246034   3.135   2.367   5.067  0.5469  1.5033 -0.4289
 8207TIP3   OH246035   2.042   1.254  13.456  0.2623 -0.0122  0.4191
 8207TIP3    H146036   2.008   1.226  13.372  0.0634  0.2337  0.4179
 8207TIP3    H246037   2.112   1.316  13.434 -0.9805  1.4409  0.4513
 8208TIP3   OH246038   2.742   0.501  11.768 -0.0586 -0.1032 -0.5233
 8208TIP3    H146039   2.781   0.418  11.739 -1.6620 -0.5627 -1.4680
 8208TIP3    H246040   2.665   0.512  11.712 -1.5569  0.5509  1.5748
 8209TIP3   OH246041   5.885   6.633  15.713  0.6722 -0.1790 -0.3449
 8209TIP3    H146042   5.895   6.581  15.793 -0.3433  0.0984 -0.0236
 8209TIP3    H246043   5.801   6.606  15.677  1.4998 -0.9276 -1.8077
 8210TIP3   OH246044   6.126   3.758   4.335  0.1596  0.6392  0.1714
 8210TIP3    H146045   6.042   3.784   4.298  0.8617  2.2210 -0.4084
 8210TIP3    H246046   6.139   3.817   4.410  0.0325 -0.6688  1.2579
 8211TIP3   OH246047   4.418   1.988  16.030  0.3113 -0.3327 -0.2160
 8211TIP3    H146048   4.378   1.904  16.055  2.1755 -1.2655 -0.2321
 8211TIP3    H246049   4.428   1.981  15.935  2.0743 -0.8767 -0.0260
 8212TIP3   OH246050   5.145   5.894   1.161  0.1670 -0.0135  0.5268
 8212TIP3    H146051   5.101   5.870   1.080 -0.2219  0.7668  0.4981
 8212TIP3    H246052   5.096   5.850   1.230 -0.2334  0.2959  0.4384
 8213TIP3   OH246053   1.136   0.224   4.249  0.3564 -0.4872  0.5657
 8213TIP3    H146054   1.193   0.212   4.325  0.0337 -0.9307  0.7397
 8213TIP3    H246055   1.110   0.136   4.223  3.0832 -0.6461 -2.1329
 8214TIP3   OH246056   5.558   5.376  12.199 -0.0520  0.0924 -0.0252
 8214TIP3    H146057   5.617   5.422  12.259  0.7650 -0.8832 -0.0587
 8214TIP3    H246058   5.508   5.317  12.255 -0.3865  0.2972 -0.1072
 8215TIP3   OH246059   5.522   4.206   4.765  0.4572  0.2891  0.2838
 8215TIP3    H146060   5.539   4.171   4.852 -0.8655  1.0406  0.8743
 8215TIP3    H246061   5.430   4.231   4.766  0.5631  0.8610 -1.1422
 8216TIP3   OH246062   6.139   5.443   4.329  0.0675 -0.3959  0.3283
 8216TIP3    H146063   6.117   5.353   4.303 -2.7445 -0.1477  1.4867
 8216TIP3    H246064   6.083   5.498   4.275  1.2768  0.6620  0.1186
 8217TIP3   OH246065   0.281   4.362  12.975  0.6137  0.2263  0.3630
 8217TIP3    H146066   0.193   4.379  12.941  0.7083 -1.4087 -0.8322
 8217TIP3    H246067   0.339   4.385  12.902  1.0665 -0.0147  0.6446
 8218TIP3   OH246068   1.994   2.409  14.981  0.0336 -0.2506  0.0565
 8218TIP3    H146069   1.943   2.489  14.976  0.4128 -0.0443 -0.6898
 8218TIP3    H246070   2.054   2.423  15.054  1.4842  1.0064 -1.2859
 8219TIP3   OH246071   2.152   2.137   0.015 -0.4168 -0.4050  1.1730
 8219TIP3    H146072   2.218   2.093   0.068 -0.9478 -0.7445  1.5625
 8219TIP3    H246073   2.177   2.117  -0.075  0.4859  0.1683  1.2873
 8220TIP3   OH246074   5.482   5.152  15.040 -0.4107  0.7858 -0.5171
 8220TIP3    H146075   5.454   5.156  15.132  0.6424 -1.5694 -0.0105
 8220TIP3    H246076   5.511   5.062  15.028 -1.7590  0.6234 -3.5713
 8221TIP3   OH246077   4.219   2.552   0.301  0.2108  0.3693 -0.0718
 8221TIP3    H146078   4.254   2.490   0.365  2.6609  1.4803 -0.2355
 8221TIP3    H246079   4.177   2.497   0.235 -1.0921 -0.8695  1.6749
 8222TIP3   OH246080   1.023   2.079  16.284 -0.2026  0.4111 -0.4428
 8222TIP3    H146081   1.082   2.154  16.296  0.3687 -0.2326  1.0995
 8222TIP3    H246082   0.936   2.117  16.286  0.1108  1.1547 -0.6553
 8223TIP3   OH246083   2.045   6.583  14.016  0.1601 -0.6395 -0.1489
 8223TIP3    H146084   2.053   6.528  13.938  0.4043 -0.0249 -0.5602
 8223TIP3    H246085   1.983   6.651  13.991 -0.6373 -1.0824  0.5708
 8224TIP3   OH246086   3.671   6.176   0.261 -0.1413 -0.0195  0.4267
 8224TIP3    H146087   3.757   6.183   0.302 -0.1936 -0.9992  0.7357
 8224TIP3    H246088   3.609   6.193   0.332 -0.2667 -2.8818  1.1524
 8225TIP3   OH246089   0.254   3.424   2.015  0.3065 -0.6094 -0.1472
 8225TIP3    H146090   0.341   3.458   2.037  0.5095 -0.7544 -0.7003
 8225TIP3    H246091   0.205   3.429   2.096  1.0112 -1.0656  0.3191
 8226TIP3   OH246092   3.674   1.612   5.329  0.1989  0.4856 -0.1266
 8226TIP3    H146093   3.582   1.631   5.315  0.7493  1.8015 -2.5293
 8226TIP3    H246094   3.678   1.571   5.416 -2.4359  1.5906  0.5928
 8227TIP3   OH246095   3.488   2.537  17.061 -0.3917 -0.2998  0.2022
 8227TIP3    H146096   3.558   2.490  17.015  0.2548  0.2273  0.6312
 8227TIP3    H246097   3.421   2.550  16.994  0.7058  0.8158 -0.7384
 8228TIP3   OH246098   5.635   1.234  11.583 -0.2433  0.4149 -0.5530
 8228TIP3    H146099   5.577   1.254  11.656 -0.6634 -0.2385 -0.6990
 8228TIP3    H246100   5.657   1.142  11.595  1.6653  0.9189  0.1190
 8229TIP3   OH246101   5.073   5.380  12.821 -0.1428  0.3452  0.0183
 8229TIP3    H146102   5.027   5.436  12.759 -0.1417  0.0725 -0.2304
 8229TIP3    H246103   5.009   5.360  12.889 -0.4936 -0.2871 -0.4841
 8230TIP3   OH246104   1.558   1.916   2.667  0.1175  0.3419 -0.3753
 8230TIP3    H146105   1.542   1.999   2.622  1.4259  2.2439  2.3977
 8230TIP3    H246106   1.642   1.886   2.632 -0.6794 -0.2790 -1.8886
 8231TIP3   OH246107   3.903   2.151  13.361  0.0841 -0.2138 -0.5981
 8231TIP3    H146108   3.908   2.214  13.433 -2.4292 -0.7220  0.1452
 8231TIP3    H246109   3.864   2.200  13.288  0.8516 -0.1867 -1.0007
 8232TIP3   OH246110   0.564   0.975   0.437 -0.0936 -0.3959  0.2669
 8232TIP3    H146111   0.575   0.952   0.345  2.2152  1.3368  0.0163
 8232TIP3    H246112   0.653   0.992   0.468 -1.0592  1.9785  2.0153
 8233TIP3   OH246113   4.926   2.523   1.107 -0.5157  0.4682 -0.1157
 8233TIP3    H146114   4.895   2.599   1.057  0.1672  0.0885 -1.1480
 8233TIP3    H246115   4.885   2.533   1.193 -1.8916  1.0313 -0.8024
 8234TIP3   OH246116   6.262   2.024   6.610  0.6694  0.0561 -0.2464
 8234TIP3    H146117   6.344   2.055   6.649  0.1266  1.5021 -0.1823
 8234TIP3    H246118   6.285   1.942   6.565  1.8366 -0.2886  0.9416
 8235TIP3   OH246119   3.954   1.216  11.136 -0.2463 -0.4700 -0.0851
 8235TIP3    H146120   3.921   1.139  11.183 -1.9756  0.4924  0.3766
 8235TIP3    H246121   3.884   1.238  11.073  0.9266 -0.2237 -1.3555
 8236TIP3   OH246122   3.459   3.275   1.278  0.2114  0.1893 -0.3088
 8236TIP3    H146123   3.392   3.310   1.219  0.0435  1.0773  0.3882
 8236TIP3    H246124   3.540   3.317   1.249  0.2666  0.0202 -0.4017
 8237TIP3   OH246125   6.718   0.493  12.418  0.8503  0.5475 -0.3036
 8237TIP3    H146126   6.673   0.568  12.456 -3.6175 -1.2902 -1.3538
 8237TIP3    H246127   6.777   0.532  12.353  0.2431  3.1970  0.5942
 8238TIP3   OH246128   4.540   6.077   4.756 -0.0662 -0.4760  0.3343
 8238TIP3    H146129   4.464   6.083   4.814  1.0426 -0.9024  1.8934
 8238TIP3    H246130   4.576   5.990   4.772 -0.3123 -1.0427 -1.8276
 8239TIP3   OH246131   1.275   5.897  15.607 -0.0941  0.0411 -0.2141
 8239TIP3    H146132   1.354   5.889  15.660 -1.5563 -1.1019  1.9777
 8239TIP3    H246133   1.240   5.807  15.603 -1.2035  0.4864 -1.2456
 8240TIP3   OH246134   2.148   0.872   5.590 -0.4233 -0.7574  0.3751
 8240TIP3    H146135   2.137   0.884   5.684  1.9435 -0.1322  0.6178
 8240TIP3    H246136   2.109   0.951   5.551 -0.1768 -0.3708  0.9110
 8241TIP3   OH246137   2.147   4.471  12.418 -0.1508 -0.2476  0.1835
 8241TIP3    H146138   2.180   4.465  12.328  0.7311 -2.7678  0.5910
 8241TIP3    H246139   2.069   4.525  12.411  1.5430  2.1860 -1.5692
 8242TIP3   OH246140   0.855   1.116  14.369  0.0109  0.2802 -0.1024
 8242TIP3    H146141   0.843   1.043  14.430 -0.2423  1.0428  0.7852
 8242TIP3    H246142   0.776   1.115  14.315  0.1925 -0.3452 -0.3647
 8243TIP3   OH246143   4.696   3.891  16.218  0.6114  0.2886  0.1833
 8243TIP3    H146144   4.783   3.894  16.258  0.7704  1.8876 -0.2056
 8243TIP3    H246145   4.636   3.875  16.291  1.2649 -1.4764  0.3656
 8244TIP3   OH246146   5.138   0.035  14.498 -0.3837  0.0125 -0.1196
 8244TIP3    H146147   5.185   0.114  14.523  2.0736 -1.2412 -0.4769
 8244TIP3    H246148   5.087   0.060  14.421  1.3999  0.9563 -1.0583
 8245TIP3   OH246149   3.124   3.526  16.323 -0.4883  0.2509 -0.0672
 8245TIP3    H146150   3.056   3.527  16.390 -1.1477  0.7394 -0.7328
 8245TIP3    H246151   3.181   3.600  16.346 -1.4093  1.1985 -0.7272
 8246TIP3   OH246152   5.962   2.377  17.039  0.1712 -0.1424 -0.1975
 8246TIP3    H146153   6.007   2.441  17.095 -0.2315 -0.9277  1.0676
 8246TIP3    H246154   6.020   2.367  16.963  1.2337  0.2375  0.5357
 8247TIP3   OH246155   2.610   5.655  12.089 -0.4354 -0.2252 -0.2811
 8247TIP3    H146156   2.563   5.685  12.167  0.1497 -0.4683  0.1770
 8247TIP3    H246157   2.691   5.707  12.088 -0.5992  0.0337 -0.9366
 8248TIP3   OH246158   0.369   1.105   5.933  0.0810  0.3612 -0.4178
 8248TIP3    H146159   0.456   1.066   5.938 -0.0587  0.1759  1.2642
 8248TIP3    H246160   0.327   1.079   6.015 -1.5738  0.4153 -1.2249
 8249TIP3   OH246161   2.337   1.783   2.477  0.3095 -0.0934  0.2541
 8249TIP3    H146162   2.419   1.823   2.447  0.1827  1.6769  2.0596
 8249TIP3    H246163   2.276   1.797   2.405  0.4266  2.5995  0.5836
 8250TIP3   OH246164   5.265   5.033   4.216 -0.5426  0.2081  0.5767
 8250TIP3    H146165   5.204   5.066   4.282 -0.5405  1.5050 -0.0288
 8250TIP3    H246166   5.212   5.025   4.137 -0.6629 -1.8220  0.8128
 8251TIP3   OH246167   6.485   1.137   3.054  0.6528 -0.3850  0.8165
 8251TIP3    H146168   6.523   1.089   2.981 -1.7100  0.3260 -1.0179
 8251TIP3    H246169   6.497   1.079   3.129  0.4464 -2.5854 -0.7392
 8252TIP3   OH246170   4.819   1.481  16.917  0.7050 -0.1456 -0.5327
 8252TIP3    H146171   4.897   1.431  16.941 -0.4156 -0.6857  2.3324
 8252TIP3    H246172   4.826   1.562  16.967 -0.9391 -0.5597  0.4306
 8253TIP3   OH246173   2.742   2.448   3.385 -0.3164  0.0289 -0.2593
 8253TIP3    H146174   2.742   2.393   3.307  1.1336  0.1930 -0.4041
 8253TIP3    H246175   2.650   2.464   3.403 -0.6948 -0.5264 -1.5696
 8254TIP3   OH246176   0.395   5.614   2.581  0.6196 -0.4536  0.6854
 8254TIP3    H146177   0.303   5.586   2.573 -0.0478  1.1636  2.0703
 8254TIP3    H246178   0.411   5.666   2.502  0.0471 -0.0150  0.8463
 8255TIP3   OH246179   0.578   2.561   3.312 -0.0155  0.4006 -0.7233
 8255TIP3    H146180   0.571   2.467   3.296  0.3793  0.4360 -1.1029
 8255TIP3    H246181   0.502   2.581   3.368  1.7579 -0.7684  2.3587
 8256TIP3   OH246182   0.594   1.775  14.358 -0.1565 -0.2314  0.2664
 8256TIP3    H146183   0.551   1.726  14.429 -1.5333  0.1276 -0.2830
 8256TIP3    H246184   0.546   1.858  14.355  1.2344  0.5969  0.2537
 8257TIP3   OH246185   4.678   3.995  13.728 -0.5994  0.1765 -0.2274
 8257TIP3    H146186   4.641   4.079  13.702 -0.7917 -0.0053 -0.5570
 8257TIP3    H246187   4.705   3.955  13.645  1.1274  0.6689  0.0543
 8258TIP3   OH246188   2.060   5.040  14.227 -0.8469 -0.1549 -0.0717
 8258TIP3    H146189   2.126   5.049  14.296 -0.5080  1.4042 -0.5565
 8258TIP3    H246190   2.002   5.115  14.239 -3.1022 -1.9281  0.8595
 8259TIP3   OH246191   6.029   5.269   4.775  0.3807 -0.1295  0.1874
 8259TIP3    H146192   5.997   5.355   4.749 -3.0056 -1.7323 -1.6127
 8259TIP3    H246193   6.115   5.262   4.735 -0.2548  1.5703 -1.6584
 8260TIP3   OH246194   2.748   3.878   2.448 -0.1355 -0.3302 -0.0295
 8260TIP3    H146195   2.709   3.862   2.534  0.6224  1.6027  0.7287
 8260TIP3    H246196   2.839   3.852   2.458 -0.4676 -1.8752 -0.8454
 8261TIP3   OH246197   2.307   3.097  16.926 -0.4640  0.2482  0.4704
 8261TIP3    H146198   2.307   3.001  16.921 -0.1062  0.2893 -0.4998
 8261TIP3    H246199   2.326   3.116  17.018 -0.0219 -0.6157  0.5672
 8262TIP3   OH246200   6.175   6.072   3.944 -0.1677  0.6579  0.6990
 8262TIP3    H146201   6.247   6.020   3.909  0.1626  0.5954  1.4449
 8262TIP3    H246202   6.135   6.113   3.868 -1.2976 -1.7451 -0.1233
 8263TIP3   OH246203   5.106   3.201  13.351 -0.5453  0.2913 -0.3446
 8263TIP3    H146204   5.043   3.259  13.394  0.7858  0.5695  1.3542
 8263TIP3    H246205   5.168   3.261  13.309 -1.3035  0.0186 -1.9365
 8264TIP3   OH246206   4.525   2.362  14.883 -0.0247 -0.1399  0.4233
 8264TIP3    H146207   4.542   2.299  14.812 -0.9387  1.4343 -1.2569
 8264TIP3    H246208   4.598   2.423  14.878  0.6738 -0.8257  1.8267
 8265TIP3   OH246209   1.027   4.644   1.944 -0.5568  0.3973  0.2224
 8265TIP3    H146210   1.103   4.647   1.886 -1.1904 -2.2269 -0.9239
 8265TIP3    H246211   0.968   4.712   1.910  0.6157  1.4042  0.1558
 8266TIP3   OH246212   3.124   6.171  15.075 -0.9527  0.1349  0.0416
 8266TIP3    H146213   3.178   6.164  15.153  0.2280  0.2502 -0.7430
 8266TIP3    H246214   3.172   6.122  15.008 -0.8512  1.8383 -1.1849
 8267TIP3   OH246215   3.900   5.409  13.324  0.5647  0.1890 -0.1300
 8267TIP3    H146216   3.972   5.425  13.263  1.5994 -2.9451  0.1013
 8267TIP3    H246217   3.875   5.496  13.355  3.4449  1.4925 -1.1256
 8268TIP3   OH246218   4.814   5.372  17.223  0.0782  0.2880  0.2128
 8268TIP3    H146219   4.894   5.322  17.207 -0.1861  0.5603 -2.4139
 8268TIP3    H246220   4.747   5.325  17.173 -1.5004 -0.0270  2.4689
 8269TIP3   OH246221   3.825   0.739  11.393 -0.3504  0.1037  0.2474
 8269TIP3    H146222   3.916   0.713  11.378 -0.0232  0.0509  2.0810
 8269TIP3    H246223   3.775   0.694  11.325  0.6984 -1.9761  0.7779
 8270TIP3   OH246224   5.622   5.400   2.342  0.0770  0.2807  0.1522
 8270TIP3    H146225   5.581   5.333   2.287 -0.5846  1.6774 -1.1643
 8270TIP3    H246226   5.557   5.471   2.345  0.8735  0.9909  1.2157
 8271TIP3   OH246227   1.645   4.249  14.350  0.4928 -0.1964 -0.6313
 8271TIP3    H146228   1.550   4.250  14.341  0.5219 -0.7492 -1.0531
 8271TIP3    H246229   1.673   4.333  14.313  0.3764 -1.2561 -3.4105
 8272TIP3   OH246230   5.685   3.456   1.408  0.0481  0.3384 -0.0169
 8272TIP3    H146231   5.749   3.486   1.472 -0.0023 -0.9673  0.6864
 8272TIP3    H246232   5.721   3.481   1.323  0.0032  2.3251  0.5089
 8273TIP3   OH246233   0.992   1.283   2.476 -0.3481 -0.1918  0.0922
 8273TIP3    H146234   0.938   1.280   2.555  0.6463  0.7027  0.8448
 8273TIP3    H246235   0.948   1.347   2.420 -0.5222 -0.0821  0.3474
 8274TIP3   OH246236   3.079   1.767   4.973 -0.5111  0.6405 -0.1711
 8274TIP3    H146237   3.083   1.822   4.895 -3.6689 -1.7702 -2.3417
 8274TIP3    H246238   3.153   1.708   4.965 -0.9140  0.2818 -1.5726
 8275TIP3   OH246239   3.660   6.186  13.980 -0.3144  0.1205 -0.0125
 8275TIP3    H146240   3.685   6.267  13.937  1.1304 -0.1718  0.2462
 8275TIP3    H246241   3.709   6.186  14.062 -1.4217 -0.3279  0.6727
 8276TIP3   OH246242   4.181   0.922   3.856  0.2660 -0.4944  0.0779
 8276TIP3    H146243   4.133   1.004   3.873 -1.3637 -0.9833 -1.7297
 8276TIP3    H246244   4.192   0.882   3.942  0.6230  1.3549  0.9412
 8277TIP3   OH246245   5.771   4.861  13.737  0.5726 -0.2536  0.0560
 8277TIP3    H146246   5.696   4.807  13.711  0.5920  0.0557 -0.6453
 8277TIP3    H246247   5.748   4.949  13.709  0.6427  0.0757  0.9930
 8278TIP3   OH246248   1.747   3.518   1.227 -0.3544 -0.2604 -0.8850
 8278TIP3    H146249   1.675   3.532   1.166 -1.9766 -1.6566  0.5963
 8278TIP3    H246250   1.739   3.590   1.290 -1.6183 -1.3626  0.2770
 8279TIP3   OH246251   3.105   2.059   2.819  0.0906  0.0738 -0.6524
 8279TIP3    H146252   3.015   2.040   2.791 -0.8581 -0.8623  2.5517
 8279TIP3    H246253   3.153   1.979   2.799  0.5335  0.9070 -3.2357
 8280TIP3   OH246254   4.893   2.832  12.517  0.1585  0.0291 -0.1197
 8280TIP3    H146255   4.821   2.842  12.455 -0.3386  0.3674  0.5050
 8280TIP3    H246256   4.944   2.913  12.507  1.6781 -1.0603 -2.0594
 8281TIP3   OH246257   3.748   3.153   2.876 -0.6655 -0.1060 -0.1842
 8281TIP3    H146258   3.814   3.180   2.939 -1.2254 -1.1599  0.8755
 8281TIP3    H246259   3.665   3.173   2.918 -1.0557  0.6645 -1.2681
 8282TIP3   OH246260   5.313   1.224   2.480 -0.4091  0.5601  0.0357
 8282TIP3    H146261   5.227   1.261   2.499 -1.5144 -1.3469 -0.9455
 8282TIP3    H246262   5.312   1.209   2.385  0.4174 -0.8048  0.2114
 8283TIP3   OH246263   3.128   3.376  12.250 -0.3805 -0.2780 -0.2598
 8283TIP3    H146264   3.075   3.450  12.221 -0.9237 -1.3516 -2.2082
 8283TIP3    H246265   3.070   3.327  12.309 -0.1350  0.6182  0.7630
 8284TIP3   OH246266   2.002   3.388  17.122 -0.6707  0.3156  0.0801
 8284TIP3    H146267   2.095   3.400  17.143 -0.4008 -0.8827 -0.3485
 8284TIP3    H246268   1.964   3.352  17.202 -0.9121  1.3710  0.4604
 8285TIP3   OH246269   2.402   6.182  11.776 -0.1032  0.1161  0.4735
 8285TIP3    H146270   2.484   6.174  11.825 -0.3279  0.2686  0.8788
 8285TIP3    H246271   2.348   6.242  11.828 -0.7928 -0.6322  0.6510
 8286TIP3   OH246272   6.581   4.927  13.535 -0.3378  0.4162  0.3398
 8286TIP3    H146273   6.533   4.886  13.607 -1.0795 -0.8515 -0.8351
 8286TIP3    H246274   6.514   4.972  13.483 -0.2345 -0.9368 -1.0299
 8287TIP3   OH246275   3.787   1.410   4.485  0.0075  0.1790  0.4956
 8287TIP3    H146276   3.850   1.463   4.435 -1.7376  0.6044 -1.4199
 8287TIP3    H246277   3.825   1.322   4.486  0.8099  0.4971 -0.2665
 8288TIP3   OH246278   6.046   4.847  14.830  0.0812  0.0084  0.2306
 8288TIP3    H146279   6.025   4.789  14.757  0.0523  1.3265 -0.8338
 8288TIP3    H246280   5.962   4.886  14.855  0.2502  0.3206  0.3123
 8289TIP3   OH246281   3.605   3.490   1.624  0.4032  0.1468 -0.5111
 8289TIP3    H146282   3.618   3.499   1.718 -2.8865 -2.0693  0.3375
 8289TIP3    H246283   3.582   3.578   1.593  0.5281  0.7018  0.9251
 8290TIP3   OH246284   1.021   3.892  15.603  0.2679 -0.0602  0.6806
 8290TIP3    H146285   1.061   3.943  15.533 -0.4798 -2.7319 -1.8914
 8290TIP3    H246286   1.095   3.849  15.646  0.5989 -0.3316 -0.1356
 8291TIP3   OH246287   3.119   3.090   4.020 -0.2977 -0.3461 -0.8231
 8291TIP3    H146288   3.121   3.023   4.089 -1.0992  1.5766  1.2013
 8291TIP3    H246289   3.199   3.140   4.034  1.3685 -1.9422 -3.6235
 8292TIP3   OH246290   4.745   4.291   3.792  0.1147 -0.5599 -0.4088
 8292TIP3    H146291   4.705   4.244   3.718  0.1495  3.3965 -3.2558
 8292TIP3    H246292   4.835   4.308   3.763  0.1237  1.1257  0.4992
 8293TIP3   OH246293   4.817   2.291   5.282  0.2177 -0.3405  0.0262
 8293TIP3    H146294   4.833   2.316   5.373 -1.1010 -0.0803  0.2155
 8293TIP3    H246295   4.892   2.238   5.257  0.4871 -0.6094  1.3489
 8294TIP3   OH246296   5.221   2.999   3.720 -0.0307 -0.4716 -0.1137
 8294TIP3    H146297   5.315   2.983   3.720  0.4604  2.1007  0.0347
 8294TIP3    H246298   5.189   2.948   3.645  1.6919 -0.2996 -1.0203
 8295TIP3   OH246299   0.085   0.773  11.990 -0.2438  0.1267 -0.5077
 8295TIP3    H146300   0.113   0.775  12.082  1.2692 -0.8413 -0.9142
 8295TIP3    H246301   0.158   0.813  11.942 -0.6252 -0.1884 -1.3660
 8296TIP3   OH246302   6.011   0.651   1.348 -0.1599  0.3160 -0.0143
 8296TIP3    H146303   6.032   0.708   1.274  0.6703 -0.6458 -0.5558
 8296TIP3    H246304   6.096   0.635   1.391 -0.3778 -0.4392  0.1592
 8297TIP3   OH246305   3.458   3.037  10.771  0.2847  0.2089 -0.5951
 8297TIP3    H146306   3.521   3.062  10.839 -0.0405 -0.2953 -0.0952
 8297TIP3    H246307   3.510   3.033  10.691  1.1662 -1.3060 -0.0057
 8298TIP3   OH246308   5.651   6.432  14.890  0.2847 -0.2436 -0.0555
 8298TIP3    H146309   5.671   6.364  14.955  1.6235 -1.3225 -1.5084
 8298TIP3    H246310   5.556   6.424  14.875  0.1730 -0.7759  0.8851
 8299TIP3   OH246311   3.481   3.800  15.448  0.1233  0.1744  0.5953
 8299TIP3    H146312   3.552   3.864  15.447 -1.8276  2.5972 -2.4165
 8299TIP3    H246313   3.521   3.719  15.414  1.3589  1.6999 -1.8634
 8300TIP3   OH246314   1.724   5.973   0.180 -0.0981  0.3421  0.5915
 8300TIP3    H146315   1.817   5.993   0.174 -0.5196  2.2480 -0.4726
 8300TIP3    H246316   1.698   5.952   0.090 -0.7273  0.0652  0.8353
 8301TIP3   OH246317   0.838   1.663  10.362  0.0239  0.6161  0.1390
 8301TIP3    H146318   0.864   1.753  10.343 -1.2496  1.1109  0.6588
 8301TIP3    H246319   0.762   1.671  10.419  0.0475 -0.7961  0.4115
 8302TIP3   OH246320   1.614   5.239  16.174 -0.1822 -0.2434 -0.0398
 8302TIP3    H146321   1.675   5.185  16.226  1.3317 -0.1625 -1.6404
 8302TIP3    H246322   1.609   5.195  16.089 -0.1404  1.2856 -0.8574
 8303TIP3   OH246323   3.370   6.469  14.799 -0.4529  0.2347 -0.0238
 8303TIP3    H146324   3.383   6.416  14.720  0.6311  1.6252 -0.8410
 8303TIP3    H246325   3.277   6.457  14.821 -0.2832 -1.8161 -0.2519
 8304TIP3   OH246326   1.042   5.434   0.216  0.8226 -0.0516  0.1158
 8304TIP3    H146327   1.103   5.388   0.158  0.8555 -2.0936  1.6667
 8304TIP3    H246328   0.960   5.439   0.166  0.5512 -2.6577  0.1538
 8305TIP3   OH246329   5.116   1.249  17.224 -0.5595  0.1673  0.5916
 8305TIP3    H146330   5.211   1.244  17.213 -0.7387  1.1071 -1.8607
 8305TIP3    H246331   5.105   1.268  17.317  1.6547  0.2385  0.9108
 8306TIP3   OH246332   1.240   1.822   3.741  0.1209  0.0391  0.4057
 8306TIP3    H146333   1.213   1.912   3.759 -1.8823 -0.5308  0.4962
 8306TIP3    H246334   1.159   1.777   3.718  0.7912 -2.1642  2.0538
 8307TIP3   OH246335   4.242   4.732  12.877 -0.5534 -0.1036 -0.1509
 8307TIP3    H146336   4.230   4.827  12.886  0.1381  0.1148 -1.2620
 8307TIP3    H246337   4.166   4.702  12.828 -0.5365 -0.0402 -0.2160
 8308TIP3   OH246338   4.630   3.139  14.381  0.3731  0.5475 -0.8795
 8308TIP3    H146339   4.697   3.074  14.356 -0.8516 -0.9914 -0.2947
 8308TIP3    H246340   4.673   3.192  14.448  0.5951 -1.3488  0.5739
 8309TIP3   OH246341   1.381   1.030   2.136  0.4389  0.8761 -0.2134
 8309TIP3    H146342   1.300   0.991   2.170  1.1829 -1.7562 -1.2035
 8309TIP3    H246343   1.359   1.122   2.120 -2.8526 -0.0436 -1.8499
 8310TIP3   OH246344   2.884   3.732   4.313 -0.0451 -0.6736 -0.3289
 8310TIP3    H146345   2.879   3.667   4.382 -0.9688 -1.4154 -1.0615
 8310TIP3    H246346   2.803   3.781   4.320 -1.2028 -2.1807 -2.2012
 8311TIP3   OH246347   4.859   4.447  13.352 -0.0347  0.4366  0.3266
 8311TIP3    H146348   4.849   4.538  13.380 -1.0201  0.4303  0.0291
 8311TIP3    H246349   4.772   4.422  13.321  0.3338 -0.4724  0.0008
 8312TIP3   OH246350   3.323   5.761  14.898  0.0610  0.4810  0.1741
 8312TIP3    H146351   3.299   5.748  14.806 -0.4347  0.9347  0.2356
 8312TIP3    H246352   3.249   5.727  14.948 -0.5040  1.9271  0.3630
 8313TIP3   OH246353   0.465   3.246   6.395 -0.1467  0.3465  0.2442
 8313TIP3    H146354   0.543   3.251   6.451  0.2908  0.7622 -0.3872
 8313TIP3    H246355   0.484   3.176   6.333 -1.1925 -1.0439  1.4256
 8314TIP3   OH246356   3.871   0.787  13.293  0.2917 -0.0061  0.2241
 8314TIP3    H146357   3.959   0.786  13.331 -0.5116  0.3747  2.2208
 8314TIP3    H246358   3.836   0.873  13.316 -0.7988 -0.3487 -0.0699
 8315TIP3   OH246359   1.101   0.137  14.125 -0.7458  0.1762  0.2642
 8315TIP3    H146360   1.130   0.131  14.035 -1.6343  0.8392 -0.0813
 8315TIP3    H246361   1.063   0.051  14.144 -0.9940  0.1917 -0.1516
 8316TIP3   OH246362   3.063   2.277   3.736  0.1837 -0.5453 -0.0829
 8316TIP3    H146363   2.999   2.305   3.670 -0.3199 -0.5512  0.3967
 8316TIP3    H246364   3.067   2.182   3.725  0.5871 -0.4810 -0.5357
 8317TIP3   OH246365   1.385   2.628  13.905  0.0037 -0.0504 -0.3283
 8317TIP3    H146366   1.297   2.655  13.880 -0.4919 -0.5762  0.7795
 8317TIP3    H246367   1.388   2.535  13.883 -0.0405 -0.2429  0.4470
 8318TIP3   OH246368   4.497   6.528   6.226  0.2975  0.1586  0.5612
 8318TIP3    H146369   4.518   6.560   6.314  2.7818  1.0291 -0.2514
 8318TIP3    H246370   4.446   6.599   6.187  0.2900  0.3364  0.8837
 8319TIP3   OH246371   1.315   3.696   3.852  0.3788  0.2177  0.1981
 8319TIP3    H146372   1.390   3.636   3.849  1.7033  1.8309 -0.7669
 8319TIP3    H246373   1.355   3.783   3.862 -1.3946  1.0738  0.1001
 8320TIP3   OH246374   0.837   1.355   5.465  0.6876  0.1446 -0.0726
 8320TIP3    H146375   0.918   1.306   5.476  1.6338  1.8227  0.8531
 8320TIP3    H246376   0.771   1.289   5.445  2.3280 -1.2176 -1.1745
 8321TIP3   OH246377   3.631   5.104  16.061 -0.3684 -0.1345  0.1112
 8321TIP3    H146378   3.685   5.179  16.038  0.8285 -0.8086  0.6130
 8321TIP3    H246379   3.665   5.032  16.007 -0.5203 -0.6528  0.6884
 8322TIP3   OH246380   1.187   1.873  14.959 -0.1656  0.5222 -0.8393
 8322TIP3    H146381   1.227   1.887  15.045  0.7737 -0.9117 -1.0025
 8322TIP3    H246382   1.136   1.793  14.968 -1.0128  0.9849 -1.3236
 8323TIP3   OH246383   4.206   2.961   3.551 -0.5576  0.4918 -0.1756
 8323TIP3    H146384   4.207   3.031   3.617 -1.2567  1.2735 -0.9699
 8323TIP3    H246385   4.284   2.976   3.498 -1.3295  1.4453 -1.0976
 8324TIP3   OH246386   6.330   4.306  14.246  0.1251 -0.0386  0.2182
 8324TIP3    H146387   6.411   4.340  14.283  1.0328 -1.0660 -0.7602
 8324TIP3    H246388   6.281   4.384  14.220  0.8232  0.5933  0.7658
 8325TIP3   OH246389   5.727   5.114  13.608 -0.0803 -0.0861 -0.0640
 8325TIP3    H146390   5.695   5.157  13.687 -1.1626 -0.1090 -0.4703
 8325TIP3    H246391   5.792   5.174  13.572  1.7022 -0.8505  1.7286
 8326TIP3   OH246392   6.096   2.590   1.356 -0.0049  0.3151  0.1906
 8326TIP3    H146393   6.052   2.533   1.293 -1.2414 -1.1272  2.2454
 8326TIP3    H246394   6.035   2.663   1.368 -0.6072 -0.3089  1.0081
 8327TIP3   OH246395   1.248   2.626  15.381 -0.0557  0.4570  0.2280
 8327TIP3    H146396   1.171   2.684  15.385  0.7381  1.4753  2.9604
 8327TIP3    H246397   1.321   2.685  15.362  0.4237 -0.0922  0.3603
 8328TIP3   OH246398   4.476   5.919  17.132 -0.7428  0.1268 -0.0119
 8328TIP3    H146399   4.552   5.976  17.146 -1.1181  0.5326  0.4400
 8328TIP3    H246400   4.491   5.878  17.047 -0.0483  0.2502  0.0503
 8329TIP3   OH246401   1.380   2.439   4.441 -0.2801 -0.4324 -0.0049
 8329TIP3    H146402   1.317   2.381   4.399  0.4594 -0.1677 -1.5640
 8329TIP3    H246403   1.390   2.511   4.379  1.6831 -0.5576  0.1217
 8330TIP3   OH246404   5.828   1.653   4.513 -0.1646 -0.4236  0.5543
 8330TIP3    H146405   5.766   1.627   4.446  1.1234 -1.1056 -0.4019
 8330TIP3    H246406   5.894   1.584   4.514 -1.1776 -1.5822  3.9848
 8331TIP3   OH246407   3.570   6.656  14.747 -0.1949  0.5429 -0.2287
 8331TIP3    H146408   3.553   6.653  14.653 -0.6323 -1.2776 -0.1174
 8331TIP3    H246409   3.487   6.631  14.787  0.3128  0.1604  0.6045
 8332TIP3   OH246410   6.008   4.353   4.145  0.5754  0.6795  0.2958
 8332TIP3    H146411   5.987   4.333   4.236 -0.0880  2.0956  0.4843
 8332TIP3    H246412   5.941   4.415   4.118  0.2532 -0.3466 -1.4415
 8333TIP3   OH246413   4.954   0.391   5.004  0.1774  0.0420  0.0944
 8333TIP3    H146414   4.934   0.451   5.076 -0.9454  0.0248 -0.1838
 8333TIP3    H246415   5.001   0.445   4.940 -1.0910  0.7453 -0.2900
 8334TIP3   OH246416   5.899   2.890  12.358  0.3824  0.8982  0.2003
 8334TIP3    H146417   5.906   2.859  12.267  0.2760  0.0318  0.4808
 8334TIP3    H246418   5.913   2.812  12.411  1.3337  1.5464  0.9560
 8335TIP3   OH246419   1.407   6.403  14.247  0.3962 -0.1290  0.1345
 8335TIP3    H146420   1.398   6.430  14.156  0.8913  1.0045  0.3955
 8335TIP3    H246421   1.404   6.485  14.296 -0.0539 -0.7419  1.1516
 8336TIP3   OH246422   0.350   0.047  12.021 -0.1441  0.5271  0.3981
 8336TIP3    H146423   0.382   0.110  11.956 -3.4626  0.9703 -1.0452
 8336TIP3    H246424   0.424   0.033  12.080  1.5559  3.8451 -0.6728
 8337TIP3   OH246425   4.011   1.331  11.978 -0.0828  0.2443  0.2479
 8337TIP3    H146426   4.018   1.424  11.959  0.0566  0.2350  0.2552
 8337TIP3    H246427   3.924   1.307  11.946 -0.5473  0.6013  1.2038
 8338TIP3   OH246428   0.341   4.733   5.040 -0.1165  0.1698 -0.1139
 8338TIP3    H146429   0.390   4.729   4.958 -0.3583 -1.3165 -0.2163
 8338TIP3    H246430   0.281   4.658   5.035 -0.0375 -0.0337  1.4829
 8339TIP3   OH246431   5.416   6.143   2.450 -0.0506 -0.1408  0.1838
 8339TIP3    H146432   5.459   6.116   2.369  0.6723 -0.6021  0.7173
 8339TIP3    H246433   5.482   6.132   2.518 -0.2954  1.2820  0.6915
 8340TIP3   OH246434   2.041   3.920   5.233  0.0523  0.5088  0.3167
 8340TIP3    H146435   1.989   3.855   5.185  0.1789 -0.4979  1.4837
 8340TIP3    H246436   2.106   3.950   5.170  1.0476 -1.7225  0.1892
 8341TIP3   OH246437   5.212   4.456   0.569 -0.6929  0.5667  0.0610
 8341TIP3    H146438   5.127   4.438   0.608  0.7781 -0.5204  3.1918
 8341TIP3    H246439   5.261   4.374   0.582  0.4530  0.6854 -2.8915
 8342TIP3   OH246440   4.760   0.880  14.512 -0.1502  0.0093 -0.1372
 8342TIP3    H146441   4.728   0.970  14.512 -1.7601 -0.5366  0.0086
 8342TIP3    H246442   4.819   0.877  14.588 -0.0641  0.9336 -0.1500
 8343TIP3   OH246443   6.285   6.270   2.919  0.2324 -0.5317 -0.1244
 8343TIP3    H146444   6.292   6.224   2.836  1.5894 -1.4809  0.4788
 8343TIP3    H246445   6.375   6.279   2.949  0.0065  2.1837  0.0047
 8344TIP3   OH246446   1.133   6.576   4.435  0.3280  0.3903  0.0666
 8344TIP3    H146447   1.046   6.548   4.405  0.0388  0.9037  0.4171
 8344TIP3    H246448   1.187   6.575   4.356  0.1469 -0.4548 -0.0615
 8345TIP3   OH246449   4.300   1.417  11.955 -0.4278 -0.1588 -0.5637
 8345TIP3    H146450   4.215   1.459  11.940 -0.8346 -0.8305 -0.2282
 8345TIP3    H246451   4.284   1.358  12.029  0.1385 -0.8308 -0.9676
 8346TIP3   OH246452   5.016   6.372  15.474 -0.2113 -0.1583 -0.0344
 8346TIP3    H146453   4.949   6.435  15.503  0.5034 -0.0104  1.4075
 8346TIP3    H246454   5.087   6.427  15.442 -0.5352 -0.3038 -1.0334
 8347TIP3   OH246455   2.222   2.214  11.947  0.2115  0.5859 -0.3621
 8347TIP3    H146456   2.178   2.131  11.965  0.3398  0.6953  0.5551
 8347TIP3    H246457   2.152   2.274  11.924 -0.0304  0.5290  0.1950
 8348TIP3   OH246458   4.552   1.238  12.024 -0.2006 -0.6851  0.5026
 8348TIP3    H146459   4.569   1.167  11.962 -1.4594 -0.5102 -0.0847
 8348TIP3    H246460   4.507   1.195  12.097 -0.5761 -0.5618  0.3440
 8349TIP3   OH246461   1.279   6.437  14.691 -0.1809 -0.1917 -0.1982
 8349TIP3    H146462   1.224   6.365  14.658  0.5499 -1.7894  1.8275
 8349TIP3    H246463   1.339   6.455  14.619 -0.1372 -1.9258 -0.6579
 8350TIP3   OH246464   5.520   4.634  15.029  0.0668  0.5700 -0.1212
 8350TIP3    H146465   5.545   4.697  14.962 -0.1660  0.2435 -0.5215
 8350TIP3    H246466   5.588   4.642  15.096  0.5810  0.5460 -0.6304
 8351TIP3   OH246467   0.474   4.280   6.511  0.3139 -0.4141  0.2185
 8351TIP3    H146468   0.399   4.248   6.562  0.4354 -1.2302 -0.0913
 8351TIP3    H246469   0.535   4.206   6.510 -0.4856 -1.1697 -2.6804
 8352TIP3   OH246470   1.358   6.305   2.634  0.6618 -0.4232  0.1299
 8352TIP3    H146471   1.324   6.228   2.589 -0.2618 -0.1080  0.2725
 8352TIP3    H246472   1.284   6.366   2.637  0.8568 -0.2276  1.5993
 8353TIP3   OH246473   5.457   2.883   4.773 -0.6898 -0.0128 -0.1935
 8353TIP3    H146474   5.367   2.909   4.792 -1.0333  0.0693 -1.7869
 8353TIP3    H246475   5.452   2.788   4.759 -0.3766 -0.1340  0.4635
 8354TIP3   OH246476   2.446   3.428   4.960  0.1279 -0.6648 -0.2123
 8354TIP3    H146477   2.490   3.509   4.985  0.5546 -0.7660 -0.6281
 8354TIP3    H246478   2.435   3.435   4.865 -1.0490 -0.4957 -0.0804
 8355TIP3   OH246479   3.253   4.872   0.769 -0.2254 -0.0437  0.0803
 8355TIP3    H146480   3.332   4.874   0.715 -0.5996  1.0689 -0.4550
 8355TIP3    H246481   3.279   4.822   0.847  0.8185 -0.2273 -0.3626
 8356TIP3   OH246482   4.965   3.094   1.856 -0.5196  0.2647 -0.8069
 8356TIP3    H146483   5.015   3.146   1.793  0.8389 -0.4850 -0.3804
 8356TIP3    H246484   4.975   3.004   1.826 -0.1275 -0.0680  0.2998
 8357TIP3   OH246485   0.732   5.219   5.678 -0.4471  0.1476 -0.3061
 8357TIP3    H146486   0.749   5.133   5.715 -1.1338 -0.8663 -2.2179
 8357TIP3    H246487   0.708   5.273   5.753 -0.5764 -1.4643  0.8652
 8358TIP3   OH246488   3.024   2.809  14.614 -0.4702  0.4132 -0.1079
 8358TIP3    H146489   2.981   2.833  14.696  1.6833  1.9847  0.6586
 8358TIP3    H246490   3.029   2.891  14.564  0.3983 -0.0064 -0.7467
 8359TIP3   OH246491   0.329   4.812  14.348 -0.4534 -0.2577  0.1380
 8359TIP3    H146492   0.356   4.895  14.308 -3.7269  1.4607  1.1133
 8359TIP3    H246493   0.399   4.751  14.325  0.3551  1.7998 -3.8784
 8360TIP3   OH246494   3.645   1.171  11.416 -0.4050 -0.1027 -0.1981
 8360TIP3    H146495   3.708   1.155  11.345 -2.2335  1.1213 -2.2359
 8360TIP3    H246496   3.616   1.083  11.442 -1.4867 -0.5911 -2.7555
 8361TIP3   OH246497   1.868   1.622  15.827  0.1111  0.6238 -0.2237
 8361TIP3    H146498   1.949   1.572  15.821  0.4357  1.1758 -0.4891
 8361TIP3    H246499   1.821   1.583  15.901  1.4294  1.4838  1.1203
 8362TIP3   OH246500   2.920   2.888  11.488  0.1600 -0.3003 -0.0193
 8362TIP3    H146501   2.984   2.943  11.442 -1.0803 -0.0932 -1.6124
 8362TIP3    H246502   2.915   2.925  11.576 -1.1922  2.7892 -1.2296
 8363TIP3   OH246503   3.787   0.171  12.169  0.2080  0.1836 -0.2021
 8363TIP3    H146504   3.846   0.104  12.136  0.8851  0.1891  0.9497
 8363TIP3    H246505   3.822   0.195  12.254 -0.8230  1.0013  0.0243
 8364TIP3   OH246506   0.461   4.991  11.141  0.4429  0.4195 -0.2462
 8364TIP3    H146507   0.533   4.956  11.088  0.7454  1.4956 -0.5576
 8364TIP3    H246508   0.398   5.023  11.077  0.0892  0.2923  0.0386
 8365TIP3   OH246509   2.388   5.568  17.148 -0.0440 -0.2692  0.1649
 8365TIP3    H146510   2.364   5.476  17.142 -0.2233 -0.3232  1.4453
 8365TIP3    H246511   2.305   5.613  17.164  0.1388  0.0249  0.3019
 8366TIP3   OH246512   4.343   1.760   4.914 -0.2495 -0.4393  0.1531
 8366TIP3    H146513   4.266   1.706   4.932 -0.7584 -0.2870 -1.3961
 8366TIP3    H246514   4.414   1.698   4.905 -0.2477 -0.6111  1.2007
 8367TIP3   OH246515   3.124   0.530   6.436  0.2986  0.1975  0.2811
 8367TIP3    H146516   3.087   0.486   6.512 -2.5092  1.5266 -0.1721
 8367TIP3    H246517   3.171   0.606   6.472 -0.9588  0.7806  0.7428
 8368TIP3   OH246518   0.293   1.495  14.863  0.3614 -0.1776 -0.3651
 8368TIP3    H146519   0.229   1.548  14.816  1.7666 -0.1738 -2.4159
 8368TIP3    H246520   0.374   1.545  14.858  0.9110 -0.9130  0.7577
 8369TIP3   OH246521   2.813   1.423  13.247 -0.2691 -0.4256  0.2805
 8369TIP3    H146522   2.893   1.473  13.232 -1.2253  0.2398 -3.6643
 8369TIP3    H246523   2.747   1.488  13.270 -0.7345 -0.2267 -1.4680
 8370TIP3   OH246524   1.384   4.164   4.411  0.7270  0.2845 -0.4276
 8370TIP3    H146525   1.387   4.084   4.360 -0.8093 -0.6927  0.9243
 8370TIP3    H246526   1.295   4.198   4.398  1.6402  2.3503 -1.7660
 8371TIP3   OH246527   4.971   4.517  12.127  0.1181 -0.1918 -0.1925
 8371TIP3    H146528   4.916   4.440  12.111 -0.1367  0.4120 -2.6045
 8371TIP3    H246529   4.911   4.582  12.164  0.3152 -1.0614  1.7639
 8372TIP3   OH246530   2.652   6.120  11.855  0.0759  0.1423 -0.2794
 8372TIP3    H146531   2.674   6.085  11.941  0.9131 -0.1330 -0.5958
 8372TIP3    H246532   2.695   6.061  11.794  0.8015  1.2210 -0.8469
 8373TIP3   OH246533   1.052   1.439  14.602 -0.1756 -1.5386  0.8747
 8373TIP3    H146534   1.028   1.528  14.628 -2.4254 -2.4015  1.9950
 8373TIP3    H246535   1.147   1.444  14.588  0.0044  0.7028  2.2604
 8374TIP3   OH246536   3.065   1.477   0.894  0.6856 -0.4023  0.2602
 8374TIP3    H146537   3.006   1.547   0.920  1.2469 -0.1126  0.7886
 8374TIP3    H246538   3.078   1.426   0.974  1.4520 -0.2309  0.2593
 8375TIP3   OH246539   2.523   0.585   2.609 -0.1121  0.1840 -0.0883
 8375TIP3    H146540   2.556   0.604   2.697 -0.1707  1.7217 -0.3619
 8375TIP3    H246541   2.438   0.544   2.623 -1.0442  2.2240  0.6087
 8376TIP3   OH246542   5.621   2.682   3.238 -0.0035 -0.4323  0.2048
 8376TIP3    H146543   5.579   2.597   3.247 -3.0720  0.9163 -0.1062
 8376TIP3    H246544   5.567   2.742   3.289  1.7623  1.4416  0.0336
 8377TIP3   OH246545   6.466   1.237  15.615 -0.6074  0.7639  0.0398
 8377TIP3    H146546   6.404   1.271  15.550  1.0599  0.5653 -1.7401
 8377TIP3    H246547   6.457   1.296  15.690 -1.1100  2.3050 -1.1810
 8378TIP3   OH246548   4.191   2.546   3.080  1.0000 -0.2395  0.4746
 8378TIP3    H146549   4.215   2.593   3.160 -1.6320 -0.4487  1.4726
 8378TIP3    H246550   4.250   2.471   3.077  0.7587 -0.5610  2.5628
 8379TIP3   OH246551   0.019   6.317   6.455  0.0260  0.5968  0.4745
 8379TIP3    H146552  -0.044   6.389   6.461  0.4972  1.2753 -1.8554
 8379TIP3    H246553   0.104   6.359   6.469  0.1364 -0.0028  1.7435
 8380TIP3   OH246554   3.548   0.942   3.113  0.4423 -0.0880 -0.1325
 8380TIP3    H146555   3.549   1.037   3.113 -2.6560  0.1362 -3.0544
 8380TIP3    H246556   3.501   0.918   3.193 -0.5997  0.9369 -0.4276
 8381TIP3   OH246557   2.245   6.054   4.983 -0.2663  0.3742  0.4193
 8381TIP3    H146558   2.259   5.990   4.913  0.6636  1.0551 -0.0404
 8381TIP3    H246559   2.178   6.014   5.039  1.8065 -2.0163  1.3996
 8382TIP3   OH246560   6.446   4.414   5.248 -0.1055 -0.0407  0.1592
 8382TIP3    H146561   6.356   4.444   5.237  0.2417  0.5087 -1.3838
 8382TIP3    H246562   6.444   4.362   5.329 -1.8026 -0.0741  0.1316
 8383TIP3   OH246563   3.950   5.851  15.070 -0.0975 -0.1828  0.5460
 8383TIP3    H146564   4.028   5.807  15.036  0.5644  1.6419 -0.4219
 8383TIP3    H246565   3.878   5.815  15.018  0.4739  0.1013 -0.4741
 8384TIP3   OH246566   3.847   5.177   6.186  0.0415  0.4787  0.3228
 8384TIP3    H146567   3.807   5.161   6.272 -0.2745 -2.2353 -0.2505
 8384TIP3    H246568   3.937   5.146   6.195 -0.1879 -0.4780 -0.4781
 8385TIP3   OH246569   4.615   2.675  10.996 -0.0882  0.3793  0.0716
 8385TIP3    H146570   4.677   2.688  11.068 -0.1009  1.0800 -0.0328
 8385TIP3    H246571   4.651   2.727  10.924  0.4553 -1.0922 -0.7687
 8386TIP3   OH246572   5.542   2.998  17.178 -0.0878  0.4822  0.1794
 8386TIP3    H146573   5.468   2.949  17.142  0.4483  0.3569 -0.7983
 8386TIP3    H246574   5.599   3.013  17.102 -0.2489  2.6707  0.4419
 8387TIP3   OH246575   1.805   2.882  13.410 -0.7590 -0.1556  0.5360
 8387TIP3    H146576   1.871   2.813  13.405 -2.0957 -1.4206 -0.6393
 8387TIP3    H246577   1.722   2.835  13.418 -1.5266  1.3861  2.4102
 8388TIP3   OH246578   0.057   1.963  14.735  0.1371 -0.1179 -0.3171
 8388TIP3    H146579   0.039   2.048  14.693  1.9651  0.2343 -0.4662
 8388TIP3    H246580   0.038   1.977  14.827  0.2301  0.4104 -0.3746
 8389TIP3   OH246581   2.552   2.472  16.562  0.1810  0.0193 -0.0738
 8389TIP3    H146582   2.520   2.386  16.536  1.3924 -0.3949 -0.2232
 8389TIP3    H246583   2.624   2.454  16.622  1.5539  0.8970 -1.4025
 8390TIP3   OH246584   6.007   2.770  12.897  0.1865 -0.4743 -0.0916
 8390TIP3    H146585   6.029   2.777  12.805 -0.2268  2.9558 -0.0754
 8390TIP3    H246586   6.074   2.821  12.942 -1.3750  0.6557  1.0897
 8391TIP3   OH246587   2.878   4.193  16.770  0.4449  0.8268  0.1317
 8391TIP3    H146588   2.952   4.140  16.800  0.8329  0.7329 -0.9309
 8391TIP3    H246589   2.804   4.133  16.769  1.1462 -0.1247 -2.3012
 8392TIP3   OH246590   3.122   5.600   1.892 -0.3664  0.1304  0.0070
 8392TIP3    H146591   3.123   5.597   1.796  0.8225 -0.6537  0.0315
 8392TIP3    H246592   3.155   5.688   1.913 -3.3824  1.4678 -0.2859
 8393TIP3   OH246593   4.314   0.871  11.466 -0.2961 -0.2943 -1.0147
 8393TIP3    H146594   4.386   0.908  11.416  0.6719  0.9445  1.1600
 8393TIP3    H246595   4.354   0.840  11.547 -2.0370 -0.6183 -0.2229
 8394TIP3   OH246596   0.850   1.831   5.465  0.3890  0.2910 -0.1319
 8394TIP3    H146597   0.838   1.748   5.418 -0.1070 -0.0483  0.5742
 8394TIP3    H246598   0.932   1.866   5.431  0.8827 -0.7502 -0.0573
 8395TIP3   OH246599   3.227   5.776  17.190  0.4033 -0.7934 -0.3618
 8395TIP3    H146600   3.203   5.748  17.102  0.8304  1.0482 -1.1107
 8395TIP3    H246601   3.322   5.790  17.185  0.4186 -0.5982  0.3727
 8396TIP3   OH246602   5.970   4.640   1.210 -0.2649 -0.6881 -0.2118
 8396TIP3    H146603   5.991   4.574   1.145  1.2083  1.1253 -1.6933
 8396TIP3    H246604   6.054   4.663   1.250 -0.8116 -0.0720  0.6237
 8397TIP3   OH246605   6.276   4.604   3.382  0.1204  0.3281 -0.1348
 8397TIP3    H146606   6.320   4.552   3.450  0.6394  1.4009  0.3710
 8397TIP3    H246607   6.311   4.571   3.300 -0.8490 -1.3053  0.0634
 8398TIP3   OH246608   1.552   2.342   4.218  0.1626  0.4322 -0.9953
 8398TIP3    H146609   1.584   2.430   4.195  2.1719  0.0236 -0.0203
 8398TIP3    H246610   1.525   2.349   4.309 -1.6607  0.5032 -1.5119
 8399TIP3   OH246611   1.623   3.795  16.266 -0.2800 -0.3265  0.0568
 8399TIP3    H146612   1.610   3.702  16.285 -1.3377 -0.0797  0.6088
 8399TIP3    H246613   1.621   3.837  16.352  0.1337  0.2214 -0.1943
 8400TIP3   OH246614   3.495   2.249  13.250  0.5038 -0.2429 -0.0928
 8400TIP3    H146615   3.518   2.295  13.170 -0.3495  1.3152  0.5230
 8400TIP3    H246616   3.530   2.303  13.320  1.1036 -1.5017  0.6173
 8401TIP3   OH246617   5.493   0.659  16.215  0.2791  0.8944 -0.7610
 8401TIP3    H146618   5.560   0.625  16.273  0.5104  1.5495 -0.6366
 8401TIP3    H246619   5.412   0.655  16.266  0.2162  0.1084 -0.9128
 8402TIP3   OH246620   2.833   1.631   5.891  0.4993 -0.9469  0.2580
 8402TIP3    H146621   2.758   1.662   5.942 -0.3387  1.9939 -2.4651
 8402TIP3    H246622   2.794   1.576   5.823  0.6164  0.9662 -1.4518
 8403TIP3   OH246623   0.385   3.762  13.595  0.0579 -0.4688  0.0075
 8403TIP3    H146624   0.317   3.775  13.661  0.0010 -2.7501  0.4506
 8403TIP3    H246625   0.382   3.669  13.575  3.2526 -0.7124  0.2527
 8404TIP3   OH246626   0.249   3.418   3.716 -0.1574  0.3267 -0.4131
 8404TIP3    H146627   0.245   3.344   3.777  1.2120 -0.7802 -1.5820
 8404TIP3    H246628   0.319   3.473   3.750  1.5930 -1.0174 -1.6720
 8405TIP3   OH246629   4.152   3.726  11.324 -0.6201  0.0678 -0.2624
 8405TIP3    H146630   4.197   3.643  11.309 -0.6390  0.2191 -1.2454
 8405TIP3    H246631   4.093   3.708  11.397 -0.9501 -0.9250 -0.7392
 8406TIP3   OH246632   5.369   2.229  13.536 -0.2698 -0.4287 -0.0199
 8406TIP3    H146633   5.339   2.164  13.599 -1.0011 -0.8696 -0.7964
 8406TIP3    H246634   5.303   2.297  13.538 -1.1932 -1.2252 -1.4688
 8407TIP3   OH246635   4.448   1.707   4.338  0.6022 -0.6832 -0.3847
 8407TIP3    H146636   4.437   1.756   4.418  0.8871 -0.5736 -0.4122
 8407TIP3    H246637   4.359   1.684   4.311  0.5213 -4.2036  2.0919
 8408TIP3   OH246638   4.853   3.944  12.278  0.1943 -0.3581 -0.4053
 8408TIP3    H146639   4.836   4.037  12.295 -0.8151 -0.0723 -2.5909
 8408TIP3    H246640   4.932   3.944  12.223 -1.2658 -0.5135 -2.6221
 8409TIP3   OH246641   3.477   3.988  13.425 -0.6442  0.3513  0.1812
 8409TIP3    H146642   3.524   3.907  13.408  0.2260  1.0506 -0.8844
 8409TIP3    H246643   3.502   4.013  13.514  0.8163  0.5612 -0.2659
 8410TIP3   OH246644   5.689   2.186  13.571  0.3009 -0.0503 -0.1547
 8410TIP3    H146645   5.649   2.173  13.485  0.3131  0.9100 -0.3159
 8410TIP3    H246646   5.616   2.210  13.628  0.2509 -0.9545  0.1741
 8411TIP3   OH246647   3.535   3.834   0.633 -0.1402  0.0569  0.1850
 8411TIP3    H146648   3.503   3.834   0.543  1.4472  1.8427 -0.4340
 8411TIP3    H246649   3.597   3.907   0.637  0.9077 -0.8601  2.3463
 8412TIP3   OH246650   5.439   0.359  11.411 -0.0061  0.3830 -0.4304
 8412TIP3    H146651   5.504   0.415  11.454 -0.5339  1.3056 -0.7947
 8412TIP3    H246652   5.475   0.344  11.324 -0.2033  0.7815 -0.5855
 8413TIP3   OH246653   1.301   2.028   4.045 -0.8913 -0.1917 -0.4168
 8413TIP3    H146654   1.366   1.968   4.081 -1.2039 -0.6021 -0.5343
 8413TIP3    H246655   1.306   2.105   4.102 -2.1378 -1.2533  1.2295
 8414TIP3   OH246656   0.243   1.092  11.333 -0.1428 -0.0224  0.1421
 8414TIP3    H146657   0.204   1.166  11.379 -0.9953  0.2843 -1.0371
 8414TIP3    H246658   0.186   1.077  11.257  1.3222 -0.3627 -0.9452
 8415TIP3   OH246659   6.179   5.423   0.892 -0.2935  0.2675  0.7053
 8415TIP3    H146660   6.123   5.357   0.851  0.8896  0.3187 -1.0670
 8415TIP3    H246661   6.118   5.489   0.926 -1.3289  0.3727 -1.2470
 8416TIP3   OH246662   0.401   0.428   4.207 -0.6060  0.1822 -0.0418
 8416TIP3    H146663   0.332   0.379   4.252 -1.3768  0.7695 -0.5484
 8416TIP3    H246664   0.442   0.479   4.277 -0.9244  0.0974  0.2117
 8417TIP3   OH246665   4.057   2.546  16.679  0.1736  0.0830  0.0728
 8417TIP3    H146666   4.013   2.630  16.691  0.5000  0.1074  1.2069
 8417TIP3    H246667   3.986   2.482  16.676  0.0075  0.1739  1.3924
 8418TIP3   OH246668   1.740   0.046   6.010  0.3688  0.1322  0.2479
 8418TIP3    H146669   1.694   0.129   5.994  0.1501 -0.2007 -0.9315
 8418TIP3    H246670   1.833   0.070   6.008  0.2843  0.6192  1.5480
 8419TIP3   OH246671   2.576   4.086   1.350  0.2964  0.1247 -0.2859
 8419TIP3    H146672   2.578   3.990   1.347 -0.4528  0.0622  0.7345
 8419TIP3    H246673   2.668   4.111   1.345  0.6813 -0.7558  1.5435
 8420TIP3   OH246674   4.691   5.831  15.075  0.4756 -0.2127  0.0495
 8420TIP3    H146675   4.710   5.870  15.160  0.9723  2.7571 -1.3149
 8420TIP3    H246676   4.777   5.821  15.033  0.1725 -0.8945 -0.4304
 8421TIP3   OH246677   4.177   1.190   4.801 -0.0959 -0.4810 -0.3185
 8421TIP3    H146678   4.229   1.134   4.860  0.0256 -0.3712 -0.3218
 8421TIP3    H246679   4.121   1.240   4.860 -2.0188 -2.3757 -0.4041
 8422TIP3   OH246680   4.857   4.229  12.465 -0.2174 -0.1265 -0.0887
 8422TIP3    H146681   4.864   4.268  12.552 -0.9526 -0.8465  0.3080
 8422TIP3    H246682   4.941   4.248  12.423  0.5678 -0.6788  1.1631
 8423TIP3   OH246683   0.522   2.201   4.537 -0.9322  0.0634 -0.2688
 8423TIP3    H146684   0.606   2.154   4.532 -1.3892 -0.6812 -1.2201
 8423TIP3    H246685   0.465   2.155   4.475 -1.4955  1.6942 -1.0144
 8424TIP3   OH246686   6.176   1.450  11.427 -0.0293  0.0250  0.0380
 8424TIP3    H146687   6.225   1.412  11.499  0.8932 -0.6415 -0.9309
 8424TIP3    H246688   6.132   1.526  11.466 -0.0189 -0.6532  1.4260
 8425TIP3   OH246689   1.818   1.370   1.816 -0.5672 -0.0910 -0.4040
 8425TIP3    H146690   1.791   1.447   1.865  0.9413  1.5086 -1.9626
 8425TIP3    H246691   1.833   1.303   1.883 -1.4531  1.0824  1.0172
 8426TIP3   OH246692   2.600   4.666  16.470 -0.6928 -0.2602  0.0746
 8426TIP3    H146693   2.679   4.641  16.422  0.6401  1.7275  1.0863
 8426TIP3    H246694   2.629   4.679  16.560 -1.8181  1.8336  0.2156
 8427TIP3   OH246695   1.166   0.255   6.640  0.0527 -0.2738  0.1375
 8427TIP3    H146696   1.120   0.171   6.640 -0.5573  0.0392 -1.1352
 8427TIP3    H246697   1.167   0.281   6.732 -2.2054 -0.3875  0.2574
 8428TIP3   OH246698   5.489   6.055   4.312 -0.4694 -0.3183 -0.0435
 8428TIP3    H146699   5.523   6.131   4.264  1.0035 -1.0536 -0.2094
 8428TIP3    H246700   5.562   5.994   4.315 -1.5116 -1.5793  0.4405
 8429TIP3   OH246701   1.352   3.905  11.608  0.5111  0.3175 -0.2279
 8429TIP3    H146702   1.298   3.934  11.534 -2.5733  0.4195  1.8953
 8429TIP3    H246703   1.374   3.814  11.588 -2.0865 -0.3415 -0.3775
 8430TIP3   OH246704   5.280   5.173   0.915 -0.3734  0.4011 -0.1950
 8430TIP3    H146705   5.206   5.152   0.857 -0.0468  0.6051 -0.6925
 8430TIP3    H246706   5.343   5.103   0.900 -0.7531 -0.1512  0.7481
 8431TIP3   OH246707   4.597   6.137   5.373 -0.1468  0.0916  0.4142
 8431TIP3    H146708   4.676   6.083   5.381  0.3719  0.4696 -1.4694
 8431TIP3    H246709   4.583   6.145   5.278 -1.3220  1.6428  0.6703
 8432TIP3   OH246710   6.293   3.266  13.289  0.5051 -0.3327  0.1662
 8432TIP3    H146711   6.270   3.298  13.377  0.0490  0.8681 -0.3629
 8432TIP3    H246712   6.219   3.293  13.235  0.9721 -0.7131 -0.6655
 8433TIP3   OH246713   0.223   2.466   1.491  0.4703 -0.0737 -0.5246
 8433TIP3    H146714   0.174   2.530   1.440  0.6544  0.3305 -0.2036
 8433TIP3    H246715   0.168   2.448   1.567  0.0454 -0.9250 -1.0207
 8434TIP3   OH246716   5.105   2.540  16.044  0.4718  0.1509 -0.1553
 8434TIP3    H146717   5.076   2.597  15.972  0.2538 -0.3996 -0.5145
 8434TIP3    H246718   5.025   2.523  16.093 -0.2756 -2.7038 -2.0766
 8435TIP3   OH246719   1.202   6.286   3.777  0.8953  0.1272  0.2612
 8435TIP3    H146720   1.181   6.360   3.720 -0.5016 -0.9286 -0.6889
 8435TIP3    H246721   1.118   6.244   3.793  1.4616 -0.4124  2.0002
 8436TIP3   OH246722   3.240   4.232   2.051 -0.7301  0.8576  0.1286
 8436TIP3    H146723   3.318   4.177   2.051 -0.9340  0.2453 -4.3884
 8436TIP3    H246724   3.251   4.288   2.129  3.4088 -0.2015  0.5485
 8437TIP3   OH246725   0.992   5.235   3.280  0.2898  0.1369 -0.9862
 8437TIP3    H146726   0.946   5.169   3.331 -0.7864  1.8616  0.3992
 8437TIP3    H246727   0.974   5.211   3.189 -0.5951 -1.1143 -0.5140
 8438TIP3   OH246728   2.152   3.804   2.013 -0.3374  0.2993 -0.3906
 8438TIP3    H146729   2.085   3.778   2.076  1.6153 -2.3196  0.8049
 8438TIP3    H246730   2.193   3.882   2.052 -1.9292  1.2835 -0.6246
 8439TIP3   OH246731   6.701   3.930   3.123 -0.4622  0.3956  0.4649
 8439TIP3    H146732   6.650   3.941   3.043 -0.6036  0.4480  0.5606
 8439TIP3    H246733   6.727   3.838   3.123 -0.1327  0.4876  0.1640
 8440TIP3   OH246734   0.890   6.287   0.460 -0.0664  0.0337  0.3345
 8440TIP3    H146735   0.983   6.288   0.436  0.2700  0.1628  1.5631
 8440TIP3    H246736   0.888   6.327   0.547 -0.9109 -2.4224  1.5344
 8441TIP3   OH246737   6.194   3.491  17.054 -0.1549  0.0687  0.6903
 8441TIP3    H146738   6.121   3.437  17.022  0.4917  0.4589 -1.6866
 8441TIP3    H246739   6.200   3.471  17.147 -2.3611 -1.0697  0.6640
 8442TIP3   OH246740   1.694   5.513  15.396  0.2542 -0.1568  1.0068
 8442TIP3    H146741   1.778   5.524  15.351 -0.2090 -0.9279 -0.1015
 8442TIP3    H246742   1.718   5.491  15.486  1.2033  1.3458  1.1553
 8443TIP3   OH246743   4.467   4.942  11.312 -0.0191 -0.3455 -0.4347
 8443TIP3    H146744   4.532   4.912  11.249  0.1730  0.1874 -0.4896
 8443TIP3    H246745   4.384   4.907  11.279  0.0935 -0.1593 -0.9273
 8444TIP3   OH246746   4.205   6.542  16.703 -0.2595 -0.5691 -0.3456
 8444TIP3    H146747   4.146   6.532  16.628 -0.6840  2.3191 -0.5210
 8444TIP3    H246748   4.147   6.535  16.779 -0.4740  0.0627 -0.4420
 8445TIP3   OH246749   2.303   3.048   1.355  0.0704  0.1692 -0.8609
 8445TIP3    H146750   2.397   3.041   1.341  0.4355  1.3437  0.7496
 8445TIP3    H246751   2.282   2.976   1.413  0.4318  1.2365  0.6472
 8446TIP3   OH246752   1.396   0.279   3.915 -0.5211  0.8459 -0.1155
 8446TIP3    H146753   1.408   0.198   3.964  0.8175  1.3680  0.4861
 8446TIP3    H246754   1.315   0.317   3.950 -1.6517 -0.6424 -1.0456
 8447TIP3   OH246755   3.959   1.912  11.544 -0.2908  0.4879  0.4972
 8447TIP3    H146756   4.019   1.898  11.471 -0.6924  2.0916 -0.1921
 8447TIP3    H246757   3.911   1.830  11.553  0.5361 -0.0972 -0.3056
 8448TIP3   OH246758   6.137   5.660  15.407  0.4310 -0.3963  0.2124
 8448TIP3    H146759   6.164   5.677  15.317  1.1027  2.1331  0.8213
 8448TIP3    H246760   6.084   5.581  15.401 -0.0070  0.0052 -2.4793
 8449TIP3   OH246761   5.870   2.462   2.364 -0.6972  0.6291 -0.5979
 8449TIP3    H146762   5.956   2.485   2.400 -0.9454  1.4947 -0.5359
 8449TIP3    H246763   5.810   2.524   2.404 -1.1684  0.8149 -1.5658
 8450TIP3   OH246764   6.104   2.865  16.325  0.2860  0.4419 -0.3141
 8450TIP3    H146765   6.080   2.833  16.237 -0.6342 -0.7688  0.3386
 8450TIP3    H246766   6.020   2.883  16.367  0.6361 -0.3797  0.7931
 8451TIP3   OH246767   5.208   2.882   2.610  0.4564  0.0784 -0.0366
 8451TIP3    H146768   5.246   2.944   2.673 -0.6705 -0.4283  1.1974
 8451TIP3    H246769   5.165   2.938   2.545  1.4198  0.6105 -0.2365
 8452TIP3   OH246770   1.625   2.033  11.977  0.3851 -0.0819  0.8211
 8452TIP3    H146771   1.662   1.950  12.007  3.1100  1.6485  2.7425
 8452TIP3    H246772   1.677   2.100  12.022 -1.1648  2.7034 -1.2176
 8453TIP3   OH246773   1.679   4.224   2.045 -0.0092 -0.6684 -0.1387
 8453TIP3    H146774   1.770   4.248   2.059  0.0725 -1.3326  0.5077
 8453TIP3    H246775   1.646   4.290   1.984  0.2499  0.9692  1.4089
 8454TIP3   OH246776   1.357   2.898  15.601  0.1272 -0.5343  0.3134
 8454TIP3    H146777   1.293   2.969  15.601  0.8598  0.1417 -0.2168
 8454TIP3    H246778   1.434   2.934  15.557  1.6898 -0.5788  2.7581
 8455TIP3   OH246779   6.439   3.315  14.212 -0.3970  0.4153  0.0875
 8455TIP3    H146780   6.510   3.367  14.175 -0.3536  0.7111  0.5787
 8455TIP3    H246781   6.482   3.241  14.255 -0.5056 -0.5847 -1.4392
 8456TIP3   OH246782   1.768   2.134   1.198 -0.3943  0.4239  0.6098
 8456TIP3    H146783   1.793   2.042   1.199  0.4041  0.6208 -0.2196
 8456TIP3    H246784   1.772   2.159   1.105  0.3189  1.5295  0.9249
 8457TIP3   OH246785   6.476   6.596   2.286 -0.4414 -0.4804 -0.1945
 8457TIP3    H146786   6.461   6.619   2.194 -2.2189 -1.3937 -0.1693
 8457TIP3    H246787   6.413   6.647   2.335  1.6277  1.3160  0.7692
 8458TIP3   OH246788   3.875   5.106  13.504 -0.3631  0.0441  0.0392
 8458TIP3    H146789   3.879   5.011  13.506  1.3583  0.0888  0.7540
 8458TIP3    H246790   3.878   5.132  13.596 -0.2855  0.7988 -0.1688
 8459TIP3   OH246791   3.784   1.071   1.688  0.2299  0.3470  0.5248
 8459TIP3    H146792   3.877   1.049   1.695  0.2750  0.6301  0.8608
 8459TIP3    H246793   3.782   1.167   1.684 -0.0742  0.3753  1.1014
 8460TIP3   OH246794   6.660   3.103   0.548  0.4349 -0.7906 -0.2786
 8460TIP3    H146795   6.577   3.088   0.594 -0.0873  1.0675 -0.5180
 8460TIP3    H246796   6.671   3.198   0.551  3.0249 -1.0399  0.5223
 8461TIP3   OH246797   3.867   3.910  14.821 -0.7321  0.1414  0.2312
 8461TIP3    H146798   3.869   3.938  14.913 -2.3294  2.0640 -0.2445
 8461TIP3    H246799   3.953   3.871  14.806 -0.6463 -0.8628  2.6962
 8462TIP3   OH246800   4.055   1.107   0.676  0.2491 -0.2812 -1.1178
 8462TIP3    H146801   4.131   1.130   0.730  1.4687 -2.0349 -1.9697
 8462TIP3    H246802   3.999   1.184   0.679  0.9781  0.2436  1.3845
 8463TIP3   OH246803   5.512   3.473  10.809  0.6788  0.2655  0.1741
 8463TIP3    H146804   5.570   3.396  10.811 -0.1661 -0.3930  0.0017
 8463TIP3    H246805   5.535   3.518  10.728  2.4432  1.2230  1.1405
 8464TIP3   OH246806   4.237   5.441  14.785 -0.4155  0.3486 -0.1548
 8464TIP3    H146807   4.153   5.413  14.749  0.7857 -2.4024 -1.1142
 8464TIP3    H246808   4.278   5.360  14.815  2.1621  1.5030 -0.2957
 8465TIP3   OH246809   5.929   0.443   3.190  0.4448  0.5038 -0.0509
 8465TIP3    H146810   5.850   0.449   3.243 -0.1814  0.6064 -0.9837
 8465TIP3    H246811   5.898   0.446   3.100  1.5295  0.7893 -0.4275
 8466TIP3   OH246812   2.372   0.266   0.611  0.9101 -0.1314  0.1164
 8466TIP3    H146813   2.454   0.261   0.661  1.2747 -0.0126 -0.4582
 8466TIP3    H246814   2.304   0.248   0.675  1.4297 -0.8998  0.4647
 8467TIP3   OH246815   4.905   2.835   1.091  0.6242  0.1864 -0.2374
 8467TIP3    H146816   4.845   2.903   1.123  1.5669  2.2211 -2.4636
 8467TIP3    H246817   4.869   2.810   1.006  0.0940 -2.4906  0.6985
 8468TIP3   OH246818   3.923   2.920  11.814  0.0231  0.0960 -0.0372
 8468TIP3    H146819   3.913   2.845  11.873  1.5443  1.0130  1.4649
 8468TIP3    H246820   3.883   2.993  11.861 -1.3742  0.2977 -1.4524
 8469TIP3   OH246821   4.907   3.302  14.660  0.2108 -0.1756  0.2206
 8469TIP3    H146822   4.934   3.299  14.568 -3.5037 -0.2448 -0.9990
 8469TIP3    H246823   4.869   3.389  14.671 -1.8226 -1.0967  0.8654
 8470TIP3   OH246824   3.245   2.209  16.460  0.0159 -0.2470 -0.4107
 8470TIP3    H146825   3.248   2.120  16.427 -0.3430  0.1696 -1.5934
 8470TIP3    H246826   3.272   2.201  16.552 -1.9965 -1.8629  0.1301
 8471TIP3   OH246827   0.536   1.566   3.546  0.1193 -0.4019  0.1193
 8471TIP3    H146828   0.510   1.518   3.467 -1.0445  2.0291 -1.0758
 8471TIP3    H246829   0.456   1.571   3.599  0.5537 -0.8346  0.8351
 8472TIP3   OH246830   0.839   2.869   4.338  0.3483 -0.1092 -0.5402
 8472TIP3    H146831   0.921   2.895   4.296  0.1414  1.2654 -0.1543
 8472TIP3    H246832   0.823   2.937   4.404 -0.3286 -1.1767  0.4349
 8473TIP3   OH246833   2.471   2.607  11.527  0.3995 -0.3756  0.7518
 8473TIP3    H146834   2.461   2.650  11.442  0.3151 -1.0615  0.4113
 8473TIP3    H246835   2.412   2.531  11.523  0.8510 -0.7560  1.1895
 8474TIP3   OH246836   2.198   2.745   2.007 -1.1702 -0.4648 -0.2171
 8474TIP3    H146837   2.107   2.776   2.003 -1.0490 -0.0793 -0.0157
 8474TIP3    H246838   2.201   2.671   1.945 -1.0106  1.0441 -2.1041
 8475TIP3   OH246839   6.100   0.566   3.740  0.4603 -0.1636  0.3747
 8475TIP3    H146840   6.013   0.530   3.755  0.3071  0.5136  1.2435
 8475TIP3    H246841   6.160   0.504   3.782  0.3580 -0.4059  0.1580
 8476TIP3   OH246842   4.748   1.904   6.214  0.4795 -0.3637 -0.3633
 8476TIP3    H146843   4.801   1.973   6.173  0.9273 -0.5891 -0.1748
 8476TIP3    H246844   4.726   1.939   6.301 -0.9044  0.3304 -0.9609
 8477TIP3   OH246845   0.189   2.491  12.864  0.1479 -0.4938  0.0140
 8477TIP3    H146846   0.137   2.508  12.943 -1.0162  0.0113 -0.8369
 8477TIP3    H246847   0.250   2.565  12.859  1.7579 -1.6159  1.5928
 8478TIP3   OH246848   1.878   4.058  14.266 -0.1102  0.2025 -0.6391
 8478TIP3    H146849   1.813   4.125  14.285 -0.0888  0.4409 -1.3798
 8478TIP3    H246850   1.931   4.095  14.196  0.7874 -0.0119 -0.0910
 8479TIP3   OH246851   1.514   5.801  12.252  0.1485  0.0985  0.3505
 8479TIP3    H146852   1.606   5.797  12.226  0.1559 -0.0625  0.4000
 8479TIP3    H246853   1.486   5.709  12.255 -0.2130  0.1852 -0.3678
 8480TIP3   OH246854   1.106   4.996   5.673  0.0312  0.0678 -0.0879
 8480TIP3    H146855   1.018   4.976   5.703 -0.1469 -0.1378 -0.7475
 8480TIP3    H246856   1.116   5.090   5.690 -0.1462 -0.0023  0.4073
 8481TIP3   OH246857   2.839   4.268   4.680 -0.5025 -0.0915 -0.4215
 8481TIP3    H146858   2.758   4.258   4.730 -1.6331  1.8238 -1.7543
 8481TIP3    H246859   2.904   4.221   4.732 -1.7946  0.9469  2.3604
 8482TIP3   OH246860   5.382   5.916  16.611 -0.3927  0.0528 -0.3596
 8482TIP3    H146861   5.475   5.920  16.590 -0.2157 -0.8128  0.2078
 8482TIP3    H246862   5.376   5.856  16.685 -1.4747 -0.5321 -0.8787
 8483TIP3   OH246863   2.380   2.545   3.779  0.6978  0.0912 -0.6539
 8483TIP3    H146864   2.435   2.621   3.795 -0.7351  1.0579 -0.1198
 8483TIP3    H246865   2.441   2.472   3.771  1.9771  0.8924  1.2007
 8484TIP3   OH246866   0.343   4.856   0.227  0.4669 -0.0952  0.3138
 8484TIP3    H146867   0.254   4.831   0.252  0.1192 -1.3020 -1.9687
 8484TIP3    H246868   0.379   4.780   0.182  2.1632  0.8757 -0.0776
 8485TIP3   OH246869   0.306   3.337   0.912 -0.7238  0.0588  0.4338
 8485TIP3    H146870   0.319   3.288   0.831  1.9793 -1.4788  1.6614
 8485TIP3    H246871   0.369   3.300   0.973 -2.2964  1.5016  3.1359
 8486TIP3   OH246872   1.506   5.045   3.291 -0.4141  0.2407  0.5363
 8486TIP3    H146873   1.425   5.059   3.340 -1.9488 -0.7830 -1.5534
 8486TIP3    H246874   1.516   4.950   3.287 -1.1848  0.1969 -2.2890
 8487TIP3   OH246875   3.024   0.132   5.456 -0.6068 -0.3035  0.1380
 8487TIP3    H146876   3.077   0.191   5.508  0.5416 -0.4363 -0.8317
 8487TIP3    H246877   2.981   0.188   5.391 -0.5652 -0.3602  0.0604
 8488TIP3   OH246878   2.844   1.274   1.214  0.0999  0.1418 -0.0950
 8488TIP3    H146879   2.789   1.302   1.287 -1.0182 -0.8022 -0.5382
 8488TIP3    H246880   2.817   1.184   1.198  1.7398 -0.3160 -0.3933
 8489TIP3   OH246881   3.875   4.149   5.516 -0.6183 -1.0091  0.1826
 8489TIP3    H146882   3.795   4.105   5.487 -1.2456  0.2740 -0.0877
 8489TIP3    H246883   3.936   4.140   5.443 -0.5460 -1.8559  0.3313
 8490TIP3   OH246884   6.728   0.019   4.689  0.4372  0.0235 -0.2742
 8490TIP3    H146885   6.659  -0.041   4.661 -0.0519 -0.2331  1.3426
 8490TIP3    H246886   6.685   0.104   4.694 -0.1801 -0.3503  1.9643
 8491TIP3   OH246887   1.772   3.122  15.925  0.0799  0.3208  0.3822
 8491TIP3    H146888   1.856   3.137  15.969  1.8810 -1.9567 -1.9279
 8491TIP3    H246889   1.728   3.056  15.979  1.2735 -0.8301  0.0086
 8492TIP3   OH246890   2.685   3.426  15.830  0.3435  0.5120 -0.4348
 8492TIP3    H146891   2.593   3.418  15.805  0.1596 -3.1790  0.7897
 8492TIP3    H246892   2.685   3.485  15.905 -1.3497 -0.8093  0.6675
 8493TIP3   OH246893   5.500   4.447   5.476  0.1977 -0.1442 -0.4169
 8493TIP3    H146894   5.462   4.530   5.447 -2.5062 -0.9194  0.5765
 8493TIP3    H246895   5.426   4.386   5.476  1.9179 -2.3468 -0.2626
 8494TIP3   OH246896   5.481   5.385   4.477 -0.3136 -0.1330  0.1301
 8494TIP3    H146897   5.477   5.304   4.426  1.8094  0.6495 -1.4337
 8494TIP3    H246898   5.462   5.357   4.567  0.7233 -2.4642 -0.2875
 8495TIP3   OH246899   2.769   1.426  15.077 -0.2417 -0.4654  0.3691
 8495TIP3    H146900   2.758   1.334  15.053 -2.1650 -0.9339  2.7144
 8495TIP3    H246901   2.858   1.430  15.114 -0.4774 -1.6312  1.1246
 8496TIP3   OH246902   0.860   4.555   1.613 -0.0643  0.1474 -0.3115
 8496TIP3    H146903   0.952   4.573   1.594  0.2600 -1.2927 -0.1994
 8496TIP3    H246904   0.859   4.467   1.649 -1.3260  0.7099  1.1733
 8497TIP3   OH246905   1.418   4.676   0.352  0.3000 -0.6992  0.2729
 8497TIP3    H146906   1.470   4.682   0.272 -1.0600 -2.8011 -0.8507
 8497TIP3    H246907   1.480   4.648   0.420  1.4717  1.1399  0.0209
 8498TIP3   OH246908   2.193   3.071  15.687 -0.1896  0.0083  0.1358
 8498TIP3    H146909   2.135   2.995  15.682 -1.1508  0.7109  0.2607
 8498TIP3    H246910   2.141   3.143  15.652 -0.1382  1.0828  2.1364
 8499TIP3   OH246911   6.732   2.909  15.594  0.3457 -0.0735 -0.0506
 8499TIP3    H146912   6.700   2.984  15.644 -0.2854 -0.0441 -0.4960
 8499TIP3    H246913   6.676   2.905  15.517  0.7164 -0.6840 -0.2995
 8500TIP3   OH246914   3.087   3.076   5.205 -0.3130  0.1545 -0.2241
 8500TIP3    H146915   2.993   3.065   5.213 -0.3961  0.4102 -0.7887
 8500TIP3    H246916   3.121   3.062   5.294 -0.8971  0.2489  0.0176
 8501TIP3   OH246917   4.674   6.571  12.923  0.2391 -0.1767 -0.2216
 8501TIP3    H146918   4.625   6.536  12.998  1.2968 -1.3141 -0.0348
 8501TIP3    H246919   4.759   6.527  12.927  0.4925  0.1021 -1.8260
 8502TIP3   OH246920   3.865   1.538   3.684  0.1605  0.6020 -0.5604
 8502TIP3    H146921   3.941   1.497   3.727  0.2483 -0.9482 -2.0786
 8502TIP3    H246922   3.820   1.465   3.642 -1.7686  1.6198 -0.3466
 8503TIP3   OH246923   5.880   2.344   5.538  0.1562  0.2292  0.0173
 8503TIP3    H146924   5.966   2.370   5.570  0.4185  0.7967 -1.0726
 8503TIP3    H246925   5.851   2.419   5.485 -0.9102 -0.0426  0.2004
 8504TIP3   OH246926   3.506   4.831  12.744  0.7502  0.0105  0.3025
 8504TIP3    H146927   3.489   4.754  12.691  1.6851  0.0670 -0.0975
 8504TIP3    H246928   3.493   4.802  12.834 -1.0071 -0.0484  0.0714
 8505TIP3   OH246929   5.343   5.133   3.291 -0.1345 -0.0828 -0.3514
 8505TIP3    H146930   5.293   5.213   3.307  0.2501  0.2998 -1.0081
 8505TIP3    H246931   5.327   5.114   3.198  0.8520 -0.0119 -0.5419
 8506TIP3   OH246932   1.275   5.187   2.072 -0.6487 -0.3660  0.6835
 8506TIP3    H146933   1.194   5.142   2.047 -1.0097 -0.0050  1.1853
 8506TIP3    H246934   1.329   5.183   1.993 -0.6145 -1.7740  0.7380
 8507TIP3   OH246935   5.058   5.739   3.131 -0.6792  0.4785 -0.1043
 8507TIP3    H146936   4.970   5.703   3.139 -0.3581 -0.3877 -0.4082
 8507TIP3    H246937   5.047   5.821   3.083 -1.4548  0.9766  0.8798
 8508TIP3   OH246938   1.491   6.730  13.128 -0.0152  0.2845  0.7874
 8508TIP3    H146939   1.586   6.736  13.116  0.0038 -0.3385  0.5605
 8508TIP3    H246940   1.462   6.677  13.054 -0.8599  2.4186 -0.4881
 8509TIP3   OH246941   1.877   2.663  15.787  0.0251  0.1820  0.3091
 8509TIP3    H146942   1.784   2.680  15.772 -0.8707 -2.9925  1.6088
 8509TIP3    H246943   1.907   2.624  15.705  0.2664  1.2278 -0.1183
 8510TIP3   OH246944   1.707   5.024   2.385  0.0892 -0.6996  0.6144
 8510TIP3    H146945   1.774   5.040   2.319 -1.0430 -1.8508 -0.9013
 8510TIP3    H246946   1.696   4.929   2.385  0.0139 -0.7239  2.4607
 8511TIP3   OH246947   4.822   6.232   5.688 -0.5634  0.6708  0.3414
 8511TIP3    H146948   4.905   6.221   5.734 -1.7564 -1.7939  2.1604
 8511TIP3    H246949   4.846   6.254   5.598  2.1753 -2.3492  0.1603
 8512TIP3   OH246950   1.496   6.132  10.883  0.0131 -0.0317  0.2930
 8512TIP3    H146951   1.403   6.145  10.866 -0.1979 -0.1923  1.2774
 8512TIP3    H246952   1.502   6.115  10.977  1.3173  2.9626  0.9041
 8513TIP3   OH246953   5.842   1.933   5.727  0.1640  0.0643  0.0902
 8513TIP3    H146954   5.785   2.003   5.759  0.0748  0.7932 -1.5318
 8513TIP3    H246955   5.915   1.930   5.789 -0.0251  1.3497  0.4031
 8514TIP3   OH246956   0.633   4.632  12.070  0.0975 -1.0074 -0.4775
 8514TIP3    H146957   0.590   4.570  12.011 -1.6235  0.3202 -0.6967
 8514TIP3    H246958   0.580   4.711  12.065  0.4976 -0.4903  2.0716
 8515TIP3   OH246959   3.813   5.857  11.735  0.0601 -0.2017  0.3058
 8515TIP3    H146960   3.838   5.937  11.782  0.4379  0.6856 -1.3452
 8515TIP3    H246961   3.737   5.824  11.783  0.0933  0.9713  1.2083
 8516TIP3   OH246962   1.317   5.473   0.502  0.2382 -0.2209  0.1570
 8516TIP3    H146963   1.240   5.425   0.531  0.6596 -0.5466  0.7523
 8516TIP3    H246964   1.375   5.406   0.465  0.9407 -0.2274  1.2293
 8517TIP3   OH246965   3.597   3.012  14.269  0.1315  0.3766 -0.2447
 8517TIP3    H146966   3.504   3.029  14.253  0.3858  1.2371 -0.9327
 8517TIP3    H246967   3.598   2.939  14.331 -1.0300  1.2561  0.8743
 8518TIP3   OH246968   1.769   0.942   5.366  0.0550 -0.1479  0.0167
 8518TIP3    H146969   1.780   0.954   5.460 -0.4424 -1.0485  0.2046
 8518TIP3    H246970   1.846   0.891   5.339 -0.0020 -0.2309  0.0103
 8519TIP3   OH246971   6.771   4.725   2.961  0.3763  0.2015  0.2522
 8519TIP3    H146972   6.849   4.761   2.918  1.4747  0.1642  2.1063
 8519TIP3    H246973   6.719   4.802   2.985  1.3566  0.4599  1.6985
 8520TIP3   OH246974   0.168   2.613  16.967 -0.1457 -0.3193 -0.0602
 8520TIP3    H146975   0.126   2.557  16.902  0.2719 -0.2208 -0.4145
 8520TIP3    H246976   0.096   2.641  17.024 -0.7801  0.8326 -1.3659
 8521TIP3   OH246977   1.275   2.615   0.364  0.1894 -0.4354  0.2899
 8521TIP3    H146978   1.214   2.575   0.302 -3.1768  3.2427  0.7996
 8521TIP3    H246979   1.234   2.601   0.450  0.9276  0.7440  0.8529
 8522TIP3   OH246980   0.048   5.217  14.017 -0.4097  0.1837  0.5117
 8522TIP3    H146981   0.132   5.193  14.057 -0.0881  2.1037  1.0804
 8522TIP3    H246982   0.053   5.181  13.929  0.7568 -0.2564  0.7304
 8523TIP3   OH246983   0.281   4.164   6.010 -0.0853  0.2744  0.4808
 8523TIP3    H146984   0.259   4.113   6.088  0.0222 -0.5266 -0.0062
 8523TIP3    H246985   0.225   4.130   5.941 -0.6686  1.4434  0.3429
 8524TIP3   OH246986   6.452   6.545   0.848 -0.2101  0.5631  0.1774
 8524TIP3    H146987   6.431   6.496   0.928 -0.8138  0.6905  0.1018
 8524TIP3    H246988   6.517   6.491   0.803  0.0621  0.4443  0.7074
 8525TIP3   OH246989   4.065   2.447  11.548  0.1190  0.0036 -0.3791
 8525TIP3    H146990   3.985   2.478  11.505  0.1186 -0.4129 -0.6915
 8525TIP3    H246991   4.111   2.526  11.574  1.3465  0.4019 -3.3560
 8526TIP3   OH246992   6.324   1.863   1.629 -0.2342 -0.2916 -0.1300
 8526TIP3    H146993   6.382   1.871   1.553 -1.0790 -1.7438 -0.9518
 8526TIP3    H246994   6.380   1.825   1.697 -0.1829 -1.7366 -0.9370
 8527TIP3   OH246995   4.181   6.750   2.628 -0.0682 -0.5749  0.2277
 8527TIP3    H146996   4.145   6.744   2.540  0.0441 -0.8361  0.1973
 8527TIP3    H246997   4.132   6.820   2.670 -0.5115 -0.8262  0.1385
 8528TIP3   OH246998   6.298   5.564   5.548 -0.3926 -0.2668  0.4218
 8528TIP3    H146999   6.210   5.526   5.540 -0.4355  0.1183 -1.5756
 8528TIP3    H247000   6.341   5.541   5.465  2.6276 -3.3178  2.5684
 8529TIP3   OH247001   5.856   1.534  12.739 -0.4913  0.4718 -0.3480
 8529TIP3    H147002   5.787   1.468  12.733  0.4836 -0.5511 -0.6354
 8529TIP3    H247003   5.863   1.553  12.832 -0.2475 -0.4411 -0.1665
 8530TIP3   OH247004   4.781   2.540  12.545 -0.4124 -0.0091  0.3757
 8530TIP3    H147005   4.775   2.614  12.485 -0.3162  0.6071  1.1021
 8530TIP3    H247006   4.786   2.580  12.632  1.9178 -0.7781  0.6680
 8531TIP3   OH247007   0.255   1.257  14.752 -0.7979  0.2118  0.4078
 8531TIP3    H147008   0.280   1.330  14.810  3.0286 -0.0207 -0.6537
 8531TIP3    H247009   0.250   1.296  14.665  0.1934 -0.5303 -0.0061
 8532TIP3   OH247010   5.639   4.638  17.247 -0.0583 -0.8091  0.2614
 8532TIP3    H147011   5.624   4.694  17.323 -1.2145  0.8488 -1.1302
 8532TIP3    H247012   5.726   4.663  17.216 -0.3646 -0.1301 -0.0594
 8533TIP3   OH247013   1.451   2.707  12.528 -0.8378 -0.0642 -0.1359
 8533TIP3    H147014   1.416   2.646  12.463  0.2963 -0.5631 -0.2965
 8533TIP3    H247015   1.514   2.656  12.577  0.2048  0.9982 -0.3323
 8534TIP3   OH247016   6.126   1.964   5.234  0.3044  0.0633 -0.0151
 8534TIP3    H147017   6.210   1.921   5.248 -0.1004 -0.7344  0.0230
 8534TIP3    H247018   6.072   1.897   5.193 -0.1064  0.7815 -0.6627
 8535TIP3   OH247019   6.489   5.215  14.776 -0.1015 -0.0636 -0.3215
 8535TIP3    H147020   6.553   5.266  14.826 -2.1677  1.4702  0.9435
 8535TIP3    H247021   6.419   5.277  14.757 -1.6976 -1.9067 -0.7505
 8536TIP3   OH247022   6.376   0.897   4.643  0.2489 -0.2461  0.1024
 8536TIP3    H147023   6.335   0.821   4.683  0.6381 -0.4116  0.1924
 8536TIP3    H247024   6.419   0.943   4.715 -0.5752  0.4513  0.1664
 8537TIP3   OH247025   5.850   6.695  10.949 -0.3370 -0.1217  0.2854
 8537TIP3    H147026   5.870   6.605  10.971 -2.7937 -0.9442 -0.4734
 8537TIP3    H247027   5.796   6.726  11.022  1.2367  1.1015  0.9941
 8538TIP3   OH247028   3.128   3.914   4.478  0.3816 -0.0712  0.1650
 8538TIP3    H147029   3.059   3.980   4.484  1.2424  0.8978 -0.3998
 8538TIP3    H247030   3.116   3.873   4.393  0.1407 -0.3205  0.3173
 8539TIP3   OH247031   2.529   2.915   2.954 -0.2063 -0.1281  0.3633
 8539TIP3    H147032   2.585   2.987   2.925 -0.2423 -0.6727 -1.1420
 8539TIP3    H247033   2.589   2.855   2.999  0.4328 -0.6510 -1.1292
 8540TIP3   OH247034   0.170   2.188   6.263 -0.4248  0.1683 -0.0965
 8540TIP3    H147035   0.231   2.253   6.229 -2.0996  1.6435 -0.4408
 8540TIP3    H247036   0.110   2.238   6.318 -0.4575 -1.4721  1.4497
 8541TIP3   OH247037   3.066   2.171  10.091 -0.0455 -0.1502 -0.2318
 8541TIP3    H147038   2.977   2.183  10.059 -0.0919  0.2433  0.0334
 8541TIP3    H247039   3.073   2.078  10.110 -0.3370 -0.2151 -0.4372
 8542TIP3   OH247040   0.996   3.205  14.324 -0.0851 -0.3542  0.1732
 8542TIP3    H147041   0.908   3.169  14.336 -0.9132  1.9443  1.8702
 8542TIP3    H247042   1.053   3.128  14.317 -1.8593 -1.9870  2.1554
 8543TIP3   OH247043   3.974   1.927   2.465 -0.0383 -0.2756 -0.1558
 8543TIP3    H147044   3.981   1.999   2.528  1.8050 -0.0718 -0.5487
 8543TIP3    H247045   3.928   1.964   2.390  1.2818  0.6414 -0.5338
 8544TIP3   OH247046   5.687   0.655  15.258  0.1670 -0.4942 -0.4354
 8544TIP3    H147047   5.742   0.578  15.244 -0.2012 -0.8247 -0.0709
 8544TIP3    H247048   5.660   0.681  15.170  1.3667  0.0187 -0.6733
 8545TIP3   OH247049   2.798   0.229  16.927 -0.0337  0.5887  0.5516
 8545TIP3    H147050   2.789   0.154  16.868  0.6175 -1.3619  2.7666
 8545TIP3    H247051   2.884   0.266  16.907 -0.3332  0.7376 -0.5136
 8546TIP3   OH247052   2.865   1.975   4.328  0.2623  0.1096 -0.0100
 8546TIP3    H147053   2.958   1.990   4.316  1.4562 -3.4475  2.9715
 8546TIP3    H247054   2.837   2.043   4.388  1.1232  0.7771 -0.3522
 8547TIP3   OH247055   2.319   0.572  15.212 -0.1727  0.5000 -0.5547
 8547TIP3    H147056   2.390   0.515  15.183 -0.5393 -0.1357 -0.2380
 8547TIP3    H247057   2.246   0.551  15.154 -0.9306 -0.8215  0.7905
 8548TIP3   OH247058   1.804   3.118   0.843 -0.3121 -0.1941  0.2914
 8548TIP3    H147059   1.748   3.110   0.766 -1.8849 -1.1602  1.4630
 8548TIP3    H247060   1.818   3.212   0.853 -2.7454  0.2167  0.5933
 8549TIP3   OH247061   6.390   1.023   6.751 -0.5213  0.4969  0.1272
 8549TIP3    H147062   6.372   0.932   6.774  1.7240  0.2458  1.1908
 8549TIP3    H247063   6.452   1.018   6.678 -1.4021  1.2140 -0.6914
 8550TIP3   OH247064   6.160   1.692  15.909  0.6660 -0.1843 -0.5318
 8550TIP3    H147065   6.089   1.737  15.862  1.7939  0.3109 -1.8361
 8550TIP3    H247066   6.145   1.712  16.001 -0.2539  0.8203 -0.8822
 8551TIP3   OH247067   4.433   1.250  14.935  0.2148  0.0615  0.0660
 8551TIP3    H147068   4.498   1.180  14.933  3.0649  2.5048 -2.8322
 8551TIP3    H247069   4.372   1.230  14.864  0.9473  0.3907 -0.6691
 8552TIP3   OH247070   1.074   3.469  14.028 -0.1093 -0.2162 -0.2330
 8552TIP3    H147071   1.103   3.458  13.937 -1.9002 -1.5502 -0.6832
 8552TIP3    H247072   1.029   3.387  14.049  0.7963 -0.1973  2.0983
 8553TIP3   OH247073   6.575   4.137   6.258 -0.3454 -0.5123  0.2572
 8553TIP3    H147074   6.559   4.108   6.348  0.8815 -2.9046 -0.2161
 8553TIP3    H247075   6.487   4.146   6.220 -0.8426 -2.2299  0.9138
 8554TIP3   OH247076   2.633   3.001  16.422  0.3497  0.0080  0.4123
 8554TIP3    H147077   2.629   2.910  16.392  0.0429  0.1327  0.0697
 8554TIP3    H247078   2.723   3.029  16.403  0.1937  0.0477 -0.2926
 8555TIP3   OH247079   2.661   0.695  14.072 -0.1065  0.0207 -0.5433
 8555TIP3    H147080   2.659   0.773  14.017 -1.8693 -1.4957 -2.7871
 8555TIP3    H247081   2.648   0.729  14.161  1.0410  2.3903 -1.1834
 8556TIP3   OH247082   2.346   3.173   2.295 -0.9387  0.0716  0.0166
 8556TIP3    H147083   2.413   3.106   2.284 -1.1171  0.0527 -1.0095
 8556TIP3    H247084   2.360   3.206   2.384 -0.5981 -1.0378  0.3957
 8557TIP3   OH247085   5.536   2.068  15.527 -0.0111  0.1914  0.1175
 8557TIP3    H147086   5.484   2.057  15.447  0.1290  1.4554 -0.1783
 8557TIP3    H247087   5.538   2.163  15.540  1.1193  0.0728  0.8689
 8558TIP3   OH247088   1.586   3.064  11.808 -0.2768 -0.4217  0.1789
 8558TIP3    H147089   1.656   3.092  11.867  1.6452 -2.7821 -0.8073
 8558TIP3    H247090   1.535   3.002  11.860 -0.8182  0.2232  0.4407
 8559TIP3   OH247091   6.266   1.372  14.614  0.0026 -0.5953 -0.0497
 8559TIP3    H147092   6.172   1.360  14.598 -0.6969  0.5781  2.6144
 8559TIP3    H247093   6.278   1.343  14.704  2.1217 -0.2691 -0.1931
 8560TIP3   OH247094   2.946   2.664   0.961  0.0674  0.2327  0.6527
 8560TIP3    H147095   3.025   2.693   0.915 -1.1592  1.0334 -1.0487
 8560TIP3    H247096   2.971   2.665   1.053  1.8949  0.9482  0.1977
 8561TIP3   OH247097   1.261   4.436   0.644 -0.5227 -0.2306  0.8709
 8561TIP3    H147098   1.312   4.358   0.621  2.7320  1.9009  0.3251
 8561TIP3    H247099   1.175   4.420   0.604  0.5679 -2.7929 -0.6954
 8562TIP3   OH247100   5.948   5.053  16.515 -0.6657 -0.7825  0.1972
 8562TIP3    H147101   5.891   4.979  16.537 -0.6373 -1.3829 -1.5873
 8562TIP3    H247102   5.889   5.120  16.482 -0.7775  0.3540  2.5018
 8563TIP3   OH247103   0.518   0.304   3.084  0.7336  0.0162 -0.1818
 8563TIP3    H147104   0.519   0.210   3.071 -0.6061 -0.0762  0.3031
 8563TIP3    H247105   0.584   0.320   3.152  0.4033 -0.6561  0.3024
 8564TIP3   OH247106   1.269   1.596  16.230  0.0364  0.0466  0.1894
 8564TIP3    H147107   1.217   1.676  16.238 -0.8438 -0.4341 -0.5002
 8564TIP3    H247108   1.218   1.529  16.277  0.2372 -0.3369 -0.1256
 8565TIP3   OH247109   1.770   3.748   2.017 -0.0182 -0.3408 -0.2782
 8565TIP3    H147110   1.779   3.681   1.949 -0.4955 -1.2941  0.5729
 8565TIP3    H247111   1.825   3.718   2.089 -0.9275 -0.3048  0.4613
 8566TIP3   OH247112   3.456   5.949  15.506 -0.5443  0.0344 -0.5065
 8566TIP3    H147113   3.428   6.011  15.438 -2.1680  1.6620  1.4854
 8566TIP3    H247114   3.400   5.872  15.493  0.2908 -0.3603 -1.9599
 8567TIP3   OH247115   2.474   0.107   3.880  0.5141  0.2351 -0.4415
 8567TIP3    H147116   2.539   0.172   3.903  2.1540 -0.9724 -1.4330
 8567TIP3    H247117   2.490   0.034   3.940 -0.0798  0.0251 -0.5320
 8568TIP3   OH247118   2.292   2.949  15.180 -0.4306  0.2537  0.1837
 8568TIP3    H147119   2.295   3.041  15.207  0.5238  0.3126 -0.0831
 8568TIP3    H247120   2.321   2.900  15.257 -1.3397  0.1328  0.4629
 8569TIP3   OH247121   0.497   4.951   4.230  0.0534  0.7321 -0.5089
 8569TIP3    H147122   0.580   4.991   4.204 -0.3246  0.7366 -1.7835
 8569TIP3    H247123   0.517   4.902   4.309  1.1395  1.1891 -0.4863
 8570TIP3   OH247124   5.625   3.255  15.568 -0.5147 -0.5623 -0.5675
 8570TIP3    H147125   5.579   3.330  15.606  1.5860 -0.1010  1.3071
 8570TIP3    H247126   5.596   3.180  15.619  0.7494 -0.2629  0.6528
 8571TIP3   OH247127   0.929   5.910  14.033 -0.2883  0.0497 -0.0309
 8571TIP3    H147128   0.958   5.977  13.972  1.3311 -0.4308  0.1707
 8571TIP3    H247129   1.009   5.878  14.074 -1.2246 -0.4629  1.4916
 8572TIP3   OH247130   4.402   3.305  16.595  0.1251  0.5535 -0.5447
 8572TIP3    H147131   4.402   3.287  16.501 -1.2667  1.0898 -0.6649
 8572TIP3    H247132   4.473   3.250  16.630  0.2924 -0.0710 -1.8174
 8573TIP3   OH247133   6.466   6.731  12.808 -0.1211  0.7264  0.2130
 8573TIP3    H147134   6.515   6.813  12.817 -1.0842  1.4353 -0.7950
 8573TIP3    H247135   6.394   6.752  12.749 -0.3371 -0.8810 -0.1413
 8574TIP3   OH247136   3.228   2.054  11.980 -0.3494 -0.0441  0.2165
 8574TIP3    H147137   3.230   1.975  12.033 -0.1585  1.2664  2.3088
 8574TIP3    H247138   3.309   2.051  11.928  0.7638 -0.2084  1.9008
 8575TIP3   OH247139   2.512   0.840   1.791  0.2258 -0.0240 -0.4019
 8575TIP3    H147140   2.438   0.782   1.775  0.2268  0.3720 -1.9853
 8575TIP3    H247141   2.472   0.920   1.827 -0.0414 -0.0759 -0.5820
 8576TIP3   OH247142   1.856   0.432  13.949  0.1462 -0.1829 -0.5260
 8576TIP3    H147143   1.812   0.485  13.884  1.1171 -0.0996 -1.1421
 8576TIP3    H247144   1.915   0.493  13.994  0.0903 -0.4077 -0.1455
 8577TIP3   OH247145   4.479   6.399  16.497 -0.0451  0.1417 -0.0422
 8577TIP3    H147146   4.417   6.471  16.505 -0.2334 -0.0452  0.1754
 8577TIP3    H247147   4.535   6.423  16.423 -0.4340  0.2661 -0.2973
 8578TIP3   OH247148   5.762   5.602   1.942  0.4110 -0.3791  0.2817
 8578TIP3    H147149   5.756   5.637   1.853  1.5233  0.5177  0.5430
 8578TIP3    H247150   5.680   5.554   1.954 -0.0769  0.1044 -0.9631
 8579TIP3   OH247151   4.346   3.673   3.662  0.5440  0.4559  0.1760
 8579TIP3    H147152   4.424   3.620   3.677 -0.9844 -1.4125  2.0326
 8579TIP3    H247153   4.273   3.611   3.665 -1.1697  2.3539  0.0918
 8580TIP3   OH247154   5.152   5.134  15.429 -0.1984  0.2974  1.0145
 8580TIP3    H147155   5.102   5.067  15.383  0.6920 -0.1905  0.7237
 8580TIP3    H247156   5.088   5.201  15.451 -0.7227  0.3835 -0.6314
 8581TIP3   OH247157   4.081   5.689   0.454 -0.2266 -0.2763  0.0234
 8581TIP3    H147158   4.016   5.642   0.402 -1.6507 -0.3670  1.7945
 8581TIP3    H247159   4.130   5.620   0.499 -0.7423 -0.1495  0.7944
 8582TIP3   OH247160   3.188   6.453  15.171  0.2169  0.2041 -0.5174
 8582TIP3    H147161   3.200   6.367  15.131  0.9314  0.8510 -1.7492
 8582TIP3    H247162   3.109   6.488  15.130 -0.3001 -0.0014  0.2719
 8583TIP3   OH247163   4.485   6.429   2.085 -0.2926  0.1828 -0.5666
 8583TIP3    H147164   4.471   6.486   2.009  0.6538 -0.7603 -1.4833
 8583TIP3    H247165   4.568   6.385   2.067  1.6570  2.2255  2.4961
 8584TIP3   OH247166   5.050   0.692  11.479  0.2250 -0.1321 -0.0430
 8584TIP3    H147167   5.113   0.624  11.452 -0.7767 -0.6911 -1.0912
 8584TIP3    H247168   5.065   0.764  11.417  0.9779  0.4334  0.7830
 8585TIP3   OH247169   5.123   1.833  12.211 -0.2324 -0.4267 -0.1900
 8585TIP3    H147170   5.216   1.855  12.221  0.2967 -1.6129 -1.9755
 8585TIP3    H247171   5.088   1.835  12.300  1.5531 -0.1903  0.5470
 8586TIP3   OH247172   0.898   1.119   4.828 -0.1320  0.5286  0.1240
 8586TIP3    H147173   0.908   1.177   4.752 -2.2196  0.2479 -0.4339
 8586TIP3    H247174   0.987   1.102   4.857  0.6940  1.3384 -1.7515
 8587TIP3   OH247175   1.091   0.334  12.435 -0.1284 -0.2273  0.0510
 8587TIP3    H147176   1.171   0.336  12.487  0.9985 -0.6048 -1.6007
 8587TIP3    H247177   1.020   0.340  12.500  1.2204  1.0250  1.4915
 8588TIP3   OH247178   2.864   1.943   2.812  0.2419  0.0892 -0.2197
 8588TIP3    H147179   2.844   1.909   2.899 -0.7804  1.2213  0.0148
 8588TIP3    H247180   2.816   1.885   2.752 -2.6121  1.7956  0.2453
 8589TIP3   OH247181   0.240   3.800   1.793  0.0716 -0.4563  0.0750
 8589TIP3    H147182   0.319   3.851   1.776 -0.1964  0.1978  0.7680
 8589TIP3    H247183   0.220   3.759   1.709 -0.7608  2.0689 -1.0646
 8590TIP3   OH247184   2.111   1.194   3.283  0.6301  0.3217 -0.2319
 8590TIP3    H147185   2.117   1.101   3.262  1.0344 -0.2500  2.2048
 8590TIP3    H247186   2.054   1.199   3.359  0.9175  2.0302 -0.0747
 8591TIP3   OH247187   0.782   1.254  12.547  0.4304  0.0508  0.2606
 8591TIP3    H147188   0.867   1.240  12.505  0.8308  2.1736  0.2686
 8591TIP3    H247189   0.781   1.192  12.620  1.2398 -1.1711 -0.7233
 8592TIP3   OH247190   2.606   3.502   5.494 -0.6255 -0.0737 -0.9076
 8592TIP3    H147191   2.562   3.422   5.466  0.7489 -0.5478 -1.7857
 8592TIP3    H247192   2.699   3.479   5.499 -0.2664  1.3201 -0.6346
 8593TIP3   OH247193   2.552   5.914  16.007  0.7127  0.1818  0.1235
 8593TIP3    H147194   2.525   6.005  16.021 -0.2799  0.1875 -1.5668
 8593TIP3    H247195   2.517   5.867  16.083 -0.4930  0.8997  0.0467
 8594TIP3   OH247196   0.732   4.194   0.598  0.7171 -0.3379 -0.4163
 8594TIP3    H147197   0.640   4.213   0.615  1.2281  1.7507  0.3324
 8594TIP3    H247198   0.737   4.099   0.596 -1.4730 -0.5015 -0.6419
 8595TIP3   OH247199   1.959   6.770   1.994  0.1454  0.0216  0.7538
 8595TIP3    H147200   1.877   6.811   2.022  0.5762 -0.1284  2.3628
 8595TIP3    H247201   1.988   6.721   2.071  2.7995  1.7287  0.9751
 8596TIP3   OH247202   6.369   1.331  16.240 -0.1085 -0.4591  0.2395
 8596TIP3    H147203   6.290   1.283  16.263 -0.2621 -0.2053  0.2429
 8596TIP3    H247204   6.436   1.297  16.299 -0.1799 -0.7813  0.1355
 8597TIP3   OH247205   2.047   6.724  11.040 -0.2784 -0.0541  0.4058
 8597TIP3    H147206   2.049   6.630  11.025 -0.0389 -0.3700  2.2173
 8597TIP3    H247207   1.956   6.749  11.021 -0.1645 -0.4874 -0.8166
 8598TIP3   OH247208   4.782   4.008  11.062 -0.5142  0.7753 -0.6154
 8598TIP3    H147209   4.851   3.992  10.997  0.5419 -0.2324  0.6852
 8598TIP3    H247210   4.767   3.923  11.102 -1.9531  1.1556 -0.2941
 8599TIP3   OH247211   3.885   5.947   6.702 -0.6683  0.1821  0.0240
 8599TIP3    H147212   3.925   5.868   6.665 -1.1897 -0.3429  0.5620
 8599TIP3    H247213   3.950   6.016   6.687  0.7016 -0.7572  1.3849
 8600TIP3   OH247214   2.770   0.335   3.300  0.6102  0.0103  0.0522
 8600TIP3    H147215   2.725   0.394   3.360 -2.5377 -2.8747  0.8320
 8600TIP3    H247216   2.839   0.295   3.353  1.4295  1.3998  0.0866
 8601TIP3   OH247217   5.734   3.119   2.797 -0.3264  0.4532 -0.2552
 8601TIP3    H147218   5.707   3.053   2.733 -0.5156 -0.2883  0.5640
 8601TIP3    H247219   5.804   3.168   2.754 -1.0730  0.5734 -1.3676
 8602TIP3   OH247220   2.657   2.427  10.043  0.4085 -0.3228  0.6831
 8602TIP3    H147221   2.692   2.498  10.096  0.3427 -0.4872  0.9450
 8602TIP3    H247222   2.568   2.455  10.021  1.0543  0.6173 -0.9165
 8603TIP3   OH247223   1.747   4.444   6.394  0.3841 -0.1880  0.4811
 8603TIP3    H147224   1.692   4.461   6.471  1.1682  0.1180  0.9866
 8603TIP3    H247225   1.687   4.452   6.320 -0.3304 -0.2190  1.0434
 8604TIP3   OH247226   6.084   0.888   6.682 -0.1677 -0.3241 -0.2862
 8604TIP3    H147227   6.138   0.862   6.756 -0.3926 -1.8399 -0.6253
 8604TIP3    H247228   6.019   0.948   6.720  0.4252 -0.1802  0.5167
 8605TIP3   OH247229   0.037   6.186  14.421  0.5425  0.0458 -0.3582
 8605TIP3    H147230   0.021   6.281  14.418  1.6101  0.2358 -0.5727
 8605TIP3    H247231   0.052   6.167  14.513  0.2371  0.0744 -0.3040
 8606TIP3   OH247232   3.645   1.521   2.899 -0.2640  0.1560 -0.8198
 8606TIP3    H147233   3.677   1.610   2.918 -0.5362  0.1797 -0.4462
 8606TIP3    H247234   3.581   1.504   2.969 -0.4266 -0.2213 -1.0592
 8607TIP3   OH247235   4.545   5.446  16.842  0.6638  0.6589  0.4274
 8607TIP3    H147236   4.451   5.445  16.859  0.3989 -1.0450 -0.8489
 8607TIP3    H247237   4.563   5.535  16.813 -1.6388 -0.1564 -4.3969
 8608TIP3   OH247238   2.291   0.899  17.290 -0.3101  0.8049  0.2097
 8608TIP3    H147239   2.238   0.940  17.222 -3.3187 -1.4594  0.9635
 8608TIP3    H247240   2.354   0.846  17.241 -1.7453  0.0121 -0.8891
 8609TIP3   OH247241   4.996   0.401  16.498 -0.4875  0.6230 -0.6448
 8609TIP3    H147242   4.921   0.439  16.544  0.5675  1.7321  0.2504
 8609TIP3    H247243   5.064   0.394  16.565 -0.0247 -1.1154 -1.2496
 8610TIP3   OH247244   2.632   1.263   0.844 -0.1631  0.1272  0.3896
 8610TIP3    H147245   2.627   1.274   0.939 -1.7421 -0.8843  0.4708
 8610TIP3    H247246   2.663   1.173   0.833 -0.2452  0.1518 -0.0427
 8611TIP3   OH247247   4.197   3.292   1.054  0.4249  0.6325 -0.0534
 8611TIP3    H147248   4.259   3.237   1.102  1.4510  1.4976 -0.3612
 8611TIP3    H247249   4.115   3.284   1.103  0.3201 -1.7499 -0.4962
 8612TIP3   OH247250   4.919   6.004  13.098  0.0652  0.5742 -0.6504
 8612TIP3    H147251   5.008   5.985  13.126 -1.0840 -1.2735  2.1813
 8612TIP3    H247252   4.886   5.921  13.063 -1.2542  0.5023  0.6505
 8613TIP3   OH247253   2.500   3.711   2.924 -0.1722 -0.0941  0.1299
 8613TIP3    H147254   2.551   3.777   2.971  0.2957 -0.5182  0.2264
 8613TIP3    H247255   2.417   3.754   2.904 -0.8819 -0.2490  2.3834
 8614TIP3   OH247256   1.005   2.956   5.773  0.0944  0.4522 -0.6780
 8614TIP3    H147257   1.005   3.035   5.718  0.2923 -0.1969 -1.6301
 8614TIP3    H247258   1.098   2.934   5.784  0.2028  1.6854  1.6094
 8615TIP3   OH247259   0.068   2.604   4.016 -0.1606  0.0983 -0.0773
 8615TIP3    H147260   0.106   2.532   3.966  1.0164 -0.8884  2.0701
 8615TIP3    H247261   0.111   2.682   3.983 -0.9179 -0.2034 -1.9413
 8616TIP3   OH247262   3.968   3.491  16.500 -0.6145  0.0615 -0.0226
 8616TIP3    H147263   3.908   3.563  16.520 -0.3646  0.3322 -0.2385
 8616TIP3    H247264   3.992   3.505  16.408 -0.6905 -0.3885 -0.1127
 8617TIP3   OH247265   0.720   5.346   5.923 -0.5705  0.4638  0.3826
 8617TIP3    H147266   0.676   5.366   6.006  0.9374  0.5455  1.1965
 8617TIP3    H247267   0.797   5.295   5.948 -1.3905 -1.7074 -1.2120
 8618TIP3   OH247268   1.158   3.468  12.682 -0.6846  0.6269 -0.1391
 8618TIP3    H147269   1.102   3.478  12.759 -1.3251 -0.5002 -0.4418
 8618TIP3    H247270   1.167   3.557  12.647 -0.3229  1.1720  1.2607
 8619TIP3   OH247271   3.954   6.526  14.185 -0.0446 -0.0115  0.3273
 8619TIP3    H147272   4.040   6.562  14.205  0.2845 -0.5156 -0.1581
 8619TIP3    H247273   3.969   6.432  14.175 -0.6805 -0.1228  0.4001
 8620TIP3   OH247274   0.473   3.874   2.284 -0.3498 -0.0088  0.3664
 8620TIP3    H147275   0.437   3.914   2.363 -1.6788  1.8162 -1.0629
 8620TIP3    H247276   0.406   3.811   2.257 -1.4779  1.6406 -0.9509
 8621TIP3   OH247277   1.930   0.337  16.625  0.0903 -0.7257 -0.3537
 8621TIP3    H147278   1.893   0.317  16.711 -2.3841  0.2290 -1.0998
 8621TIP3    H247279   1.862   0.311  16.563  0.7027  1.0000 -1.8450
 8622TIP3   OH247280   5.935   6.067   1.886 -0.1067  0.1308 -0.1401
 8622TIP3    H147281   5.958   6.159   1.905 -0.5536  0.0504  0.8829
 8622TIP3    H247282   5.998   6.040   1.819  0.3913  1.0207 -0.0507
 8623TIP3   OH247283   5.925   6.536   5.840  0.4683  0.2790  0.1097
 8623TIP3    H147284   5.936   6.614   5.785 -0.3238  0.9082  0.8266
 8623TIP3    H247285   5.998   6.541   5.903  0.0842  0.7681  0.5258
 8624TIP3   OH247286   4.106   2.863   2.551  0.3411 -0.3549  0.8606
 8624TIP3    H147287   4.173   2.931   2.541 -0.4553  0.4015  0.5054
 8624TIP3    H247288   4.156   2.782   2.563  1.3343  0.0958  0.0131
 8625TIP3   OH247289   1.912   3.345  14.844  0.0739 -0.2574  0.7870
 8625TIP3    H147290   1.867   3.384  14.769  0.2834 -2.6830 -0.7086
 8625TIP3    H247291   1.932   3.419  14.901  2.0962  2.1129 -2.6575
 8626TIP3   OH247292   4.899   0.026  13.297  0.3689 -0.0777 -0.8030
 8626TIP3    H147293   4.954  -0.053  13.301 -0.3714 -0.5849 -0.5664
 8626TIP3    H247294   4.938   0.085  13.361 -0.6210 -1.2609  0.9739
 8627TIP3   OH247295   5.156   3.205  12.178 -0.1849 -0.2563 -1.1103
 8627TIP3    H147296   5.203   3.258  12.113  0.7347  1.9670  1.1638
 8627TIP3    H247297   5.188   3.238  12.262 -2.4881 -1.8632  0.5125
 8628TIP3   OH247298   5.815   6.496  15.187 -0.1680  0.0242  0.1525
 8628TIP3    H147299   5.851   6.409  15.171 -2.4992 -1.0238  0.2174
 8628TIP3    H247300   5.891   6.554  15.182  1.4874 -1.9964  0.2326
 8629TIP3   OH247301   5.020   1.802  12.460  0.0280 -0.4500 -0.5362
 8629TIP3    H147302   4.942   1.753  12.486  0.2132 -0.2331  0.4540
 8629TIP3    H247303   5.093   1.745  12.482  0.1743 -0.5105 -1.1530
 8630TIP3   OH247304   1.803   5.644   4.814 -0.9004  0.0686  0.2000
 8630TIP3    H147305   1.817   5.553   4.788 -3.1320  0.2211 -1.8263
 8630TIP3    H247306   1.763   5.685   4.738 -2.1728  2.1407  1.8709
 8631TIP3   OH247307   4.278   5.517  12.379 -0.6861  0.1553  0.3152
 8631TIP3    H147308   4.231   5.436  12.399  2.7495 -2.4649 -1.2282
 8631TIP3    H247309   4.228   5.556  12.307 -2.3902 -0.5446  1.0545
 8632TIP3   OH247310   4.433   1.472  15.506 -0.0449 -0.0424 -0.3312
 8632TIP3    H147311   4.443   1.533  15.433  2.6129  2.2412  1.6940
 8632TIP3    H247312   4.520   1.433  15.516 -0.4244 -0.4990  1.4292
 8633TIP3   OH247313   0.924   0.004   4.201 -0.2343 -0.1980 -0.2336
 8633TIP3    H147314   0.956  -0.055   4.132 -0.0310 -1.2893  0.7716
 8633TIP3    H247315   0.908  -0.053   4.276 -0.0641  1.0291  0.7616
 8634TIP3   OH247316   0.202   2.995  10.926 -0.1548  0.7356  0.8435
 8634TIP3    H147317   0.144   3.036  10.862 -0.2688  0.0740  0.5102
 8634TIP3    H247318   0.288   2.997  10.884 -0.0654  1.0942  1.0439
 8635TIP3   OH247319   3.527   1.212   3.049 -0.2638  0.4869 -0.3906
 8635TIP3    H147320   3.619   1.190   3.036 -0.0562 -0.6152  2.3345
 8635TIP3    H247321   3.505   1.268   2.974  2.8863  1.6151 -0.6245
 8636TIP3   OH247322   4.179   2.645   3.367 -0.1591 -0.0721 -0.0197
 8636TIP3    H147323   4.173   2.647   3.462 -0.5214 -0.6111 -0.0249
 8636TIP3    H247324   4.098   2.686   3.336  0.0743  0.3355 -0.0987
 8637TIP3   OH247325   3.037   1.092   4.808  0.6026 -0.3054  0.6053
 8637TIP3    H147326   3.008   1.051   4.890  0.5523 -2.3216 -0.3553
 8637TIP3    H247327   2.972   1.159   4.790 -1.9019 -2.7169  0.0590
 8638TIP3   OH247328   0.380   5.887   3.397  0.2893  0.3382 -0.0463
 8638TIP3    H147329   0.436   5.812   3.378  1.0027  0.6592  0.7685
 8638TIP3    H247330   0.291   5.853   3.387  0.5883 -0.7893  0.9418
 8639TIP3   OH247331   5.254   6.449  12.581  0.5640 -0.2161  0.3481
 8639TIP3    H147332   5.232   6.511  12.512  0.1019  0.2954  0.9511
 8639TIP3    H247333   5.307   6.498  12.642 -0.3834 -0.1990  1.1877
 8640TIP3   OH247334   6.465   3.620  15.980 -0.5008  0.4073 -0.1499
 8640TIP3    H147335   6.423   3.704  16.001 -0.6898  0.4381 -0.6321
 8640TIP3    H247336   6.545   3.645  15.934 -1.0272  0.3155 -1.1421
 8641TIP3   OH247337   4.436   5.604   1.517 -0.0940 -0.2547  0.1512
 8641TIP3    H147338   4.400   5.528   1.471  1.4861 -2.0243  1.6479
 8641TIP3    H247339   4.394   5.603   1.603 -0.1955  0.6888  0.1192
 8642TIP3   OH247340   0.366   2.692  12.846  0.6139  0.2877  0.2610
 8642TIP3    H147341   0.433   2.698  12.777  1.0009  0.2654  0.6278
 8642TIP3    H247342   0.360   2.780  12.881  0.9695  0.1359  0.7087
 8643TIP3   OH247343   5.978   4.653  15.805  0.4666  0.0929 -0.9529
 8643TIP3    H147344   5.994   4.567  15.843  0.8314  0.4534 -0.2764
 8643TIP3    H247345   6.060   4.676  15.763  0.0369 -0.3460 -2.0805
 8644TIP3   OH247346   4.045   2.709  16.337 -0.0155 -0.3624  0.3178
 8644TIP3    H147347   3.956   2.706  16.373 -0.3448 -2.1360 -0.5218
 8644TIP3    H247348   4.067   2.617  16.321  2.1065  0.0162  0.8015
 8645TIP3   OH247349   5.696   1.392   4.830  0.1174 -0.2578  0.3454
 8645TIP3    H147350   5.719   1.321   4.890 -0.3574 -2.0610 -1.4986
 8645TIP3    H247351   5.602   1.382   4.816 -1.1640  3.9080  3.8699
 8646TIP3   OH247352   5.737   3.991   2.170  0.2416  0.3930  0.1818
 8646TIP3    H147353   5.667   3.971   2.108  1.6258 -1.9956 -0.7515
 8646TIP3    H247354   5.758   4.083   2.154 -2.5354  1.1529  0.4160
 8647TIP3   OH247355   4.051   1.108   1.197  0.2789  0.4644 -0.3712
 8647TIP3    H147356   4.081   1.017   1.187  0.8175  0.7336 -1.2966
 8647TIP3    H247357   3.998   1.106   1.277  0.4906 -0.6100 -0.2303
 8648TIP3   OH247358   3.058   0.564  16.969 -0.4210 -0.0399 -0.6755
 8648TIP3    H147359   3.033   0.507  17.041  0.3408 -0.4596 -0.7302
 8648TIP3    H247360   2.976   0.601  16.937 -1.1388 -2.3070 -1.6584
 8649TIP3   OH247361   6.500   4.943  15.781  0.1093  0.1174  0.1049
 8649TIP3    H147362   6.543   4.948  15.696 -0.3081  0.4802 -0.0846
 8649TIP3    H247363   6.556   4.884  15.832  0.5188  0.1286 -0.3225
 8650TIP3   OH247364   1.873   6.752   5.074  0.0961  0.4076  0.5170
 8650TIP3    H147365   1.871   6.685   5.006  0.2191 -0.3615  1.2518
 8650TIP3    H247366   1.823   6.825   5.037 -0.2227 -0.1690 -0.2184
 8651TIP3   OH247367   6.343   2.963   0.061  0.0667 -0.0807 -0.7739
 8651TIP3    H147368   6.393   2.929   0.135  1.0163  2.2663 -0.2601
 8651TIP3    H247369   6.307   2.885   0.019  1.4080 -1.6289  0.7956
 8652TIP3   OH247370   3.359   6.041  13.098  0.2301  0.2018 -0.3221
 8652TIP3    H147371   3.358   6.014  13.190 -0.2808 -1.1153 -0.6823
 8652TIP3    H247372   3.267   6.042  13.073  0.2661  1.8515 -0.4930
 8653TIP3   OH247373   3.761   2.810  15.089  0.4226 -0.0063 -0.2997
 8653TIP3    H147374   3.796   2.876  15.029  0.2610  0.6069  0.2709
 8653TIP3    H247375   3.666   2.821  15.084  0.2148 -1.9889 -2.2127
 8654TIP3   OH247376   1.793   1.857   0.211 -0.1946  0.7469  0.2310
 8654TIP3    H147377   1.711   1.869   0.163 -0.8201 -0.9561  0.7861
 8654TIP3    H247378   1.853   1.922   0.173 -0.7955 -0.1612 -2.5250
 8655TIP3   OH247379   0.711   3.071  10.827  0.7610 -0.0402 -0.3579
 8655TIP3    H147380   0.786   3.054  10.884  1.6415  2.9796 -0.4450
 8655TIP3    H247381   0.727   3.016  10.751  1.7059 -1.1149  0.5696
 8656TIP3   OH247382   0.786   3.714  15.230  0.6601 -0.5374 -0.1047
 8656TIP3    H147383   0.797   3.641  15.169  0.9228 -2.8560  2.5490
 8656TIP3    H247384   0.864   3.711  15.285  0.1493  1.0960  0.7596
 8657TIP3   OH247385   3.905   6.575  15.186  0.3110 -0.7314 -0.8683
 8657TIP3    H147386   3.827   6.614  15.149 -0.1404  0.0915  0.8458
 8657TIP3    H247387   3.880   6.484  15.204  0.2111 -0.8517 -1.5933
 8658TIP3   OH247388   2.975   6.278   1.186 -0.1990 -0.0507 -0.4224
 8658TIP3    H147389   3.043   6.251   1.124  3.2796  1.0844  2.5584
 8658TIP3    H247390   2.947   6.364   1.154 -0.2780 -0.5151 -1.6731
 8659TIP3   OH247391   4.183   6.025   5.642  0.3509 -0.1485 -0.0276
 8659TIP3    H147392   4.110   6.059   5.591 -0.6243 -2.6803 -0.4238
 8659TIP3    H247393   4.241   6.101   5.653 -1.1982  1.3752 -1.6676
 8660TIP3   OH247394   3.438   1.027   1.973  0.3758  0.1752  0.3466
 8660TIP3    H147395   3.384   1.105   1.988  2.2222  1.5291  0.3667
 8660TIP3    H247396   3.528   1.061   1.971  1.1328 -1.7527 -1.1554
 8661TIP3   OH247397   0.414   1.919  13.143 -0.1571  0.1212  0.5896
 8661TIP3    H147398   0.412   1.824  13.132  0.2341 -0.0418  1.7330
 8661TIP3    H247399   0.322   1.945  13.143 -0.2625 -0.2358  0.1694
 8662TIP3   OH247400   3.736   0.215  15.452  0.6757  0.2860  0.3922
 8662TIP3    H147401   3.720   0.130  15.411  1.6502  0.2226  0.1196
 8662TIP3    H247402   3.652   0.239  15.491  0.4387 -0.8959  0.6547
 8663TIP3   OH247403   1.719   5.147  11.749  0.1720  0.3861 -0.1165
 8663TIP3    H147404   1.716   5.240  11.770 -2.6689  0.2493  0.6092
 8663TIP3    H247405   1.717   5.144  11.653 -1.0144  1.1263 -0.1385
 8664TIP3   OH247406   0.271   4.195  11.976  0.0006  0.0701  0.0940
 8664TIP3    H147407   0.253   4.136  12.049  1.0194 -1.4928 -0.8453
 8664TIP3    H247408   0.309   4.273  12.016  0.3616 -0.6783  1.2600
 8665TIP3   OH247409   1.561   0.266   5.510 -0.0016 -0.1706  0.3062
 8665TIP3    H147410   1.549   0.185   5.559 -0.3707  0.1311  0.7266
 8665TIP3    H247411   1.652   0.263   5.480 -0.4844 -1.5363 -1.1543
 8666TIP3   OH247412   2.886   5.242   4.099 -0.4231  0.0581  0.3364
 8666TIP3    H147413   2.858   5.295   4.025 -1.4234 -1.4426 -0.4106
 8666TIP3    H247414   2.968   5.202   4.070 -0.1026  0.5323  0.5785
 8667TIP3   OH247415   5.073   3.834  16.604  0.7126  0.1970 -0.3764
 8667TIP3    H147416   5.028   3.823  16.521 -0.1208  0.3090  0.0470
 8667TIP3    H247417   5.056   3.753  16.652 -2.2895  1.6158  1.2692
 8668TIP3   OH247418   3.675   0.897  14.639 -0.2040 -0.3063  0.6251
 8668TIP3    H147419   3.716   0.928  14.558 -1.2484  0.1071  0.2382
 8668TIP3    H247420   3.716   0.950  14.708 -0.1750  0.1886  0.2346
 8669TIP3   OH247421   2.655   1.386   5.221  0.1319  0.7045 -0.0759
 8669TIP3    H147422   2.576   1.366   5.171  1.3899 -0.2840 -1.7661
 8669TIP3    H247423   2.640   1.347   5.307 -0.7894 -0.3975 -0.7134
 8670TIP3   OH247424   5.147   5.774   1.609  0.0428  0.0410 -0.1265
 8670TIP3    H147425   5.056   5.779   1.582  0.5752  2.2753 -1.7593
 8670TIP3    H247426   5.165   5.859   1.649  1.1530 -0.7727  1.2189
 8671TIP3   OH247427   4.128   4.077  14.503  0.5257 -0.5671  0.1268
 8671TIP3    H147428   4.103   4.165  14.475  0.2255 -1.0849 -1.3483
 8671TIP3    H247429   4.209   4.059  14.454 -0.6389 -1.9473 -1.3896
 8672TIP3   OH247430   6.761   4.097   1.294  0.4360  0.3013 -0.3601
 8672TIP3    H147431   6.682   4.042   1.289 -0.0304  1.0467 -1.9291
 8672TIP3    H247432   6.832   4.035   1.310 -0.6031 -0.2132  3.0948
 8673TIP3   OH247433   0.027   2.125   3.066  0.3368 -0.0043  0.4948
 8673TIP3    H147434   0.063   2.206   3.031  4.3697 -1.7394  0.0680
 8673TIP3    H247435   0.051   2.058   3.002 -1.1625 -1.8450  1.7395
 8674TIP3   OH247436   5.649   1.612   3.228 -0.1098  0.0355  0.0392
 8674TIP3    H147437   5.684   1.700   3.212 -1.0870  0.2089 -1.3484
 8674TIP3    H247438   5.714   1.570   3.284  1.0198  1.2053 -0.3475
 8675TIP3   OH247439   4.378   2.158   5.093  0.1261  0.4895  0.1405
 8675TIP3    H147440   4.408   2.174   5.182 -0.5958 -1.7950  0.8836
 8675TIP3    H247441   4.441   2.094   5.058  0.5525  1.5533 -1.1189
 8676TIP3   OH247442   6.232   3.649   4.996 -0.2710 -0.4393  0.1604
 8676TIP3    H147443   6.224   3.630   4.903 -0.3539  1.1519 -0.1981
 8676TIP3    H247444   6.318   3.691   5.005 -1.9001  3.3352 -0.0315
 8677TIP3   OH247445   5.334   0.097   1.215  0.3641 -0.5182 -0.0164
 8677TIP3    H147446   5.257   0.063   1.260  0.5577 -1.7646 -0.5903
 8677TIP3    H247447   5.407   0.044   1.248  0.8260 -0.0200 -0.2122
 8678TIP3   OH247448   4.563   0.058   1.945  0.2269  0.4931 -0.1349
 8678TIP3    H147449   4.510   0.012   1.880 -2.2577  2.2336  0.5202
 8678TIP3    H247450   4.573  -0.004   2.017  0.8963 -0.5696 -1.1016
 8679TIP3   OH247451   2.473   2.564   0.937  0.0865  0.4168  0.6536
 8679TIP3    H147452   2.550   2.585   0.885  0.1041  0.1867  0.5843
 8679TIP3    H247453   2.450   2.475   0.910 -0.6904  0.7812  0.0711
 8680TIP3   OH247454   3.590   1.995   5.337  0.1183  0.1176 -0.4926
 8680TIP3    H147455   3.559   2.082   5.312 -1.8362 -0.1799  0.7196
 8680TIP3    H247456   3.512   1.940   5.337  1.2728 -1.6224 -1.0369
 8681TIP3   OH247457   3.345   2.531  16.545  0.1277 -0.3748  0.7335
 8681TIP3    H147458   3.426   2.487  16.571  0.7768  0.5929  0.4015
 8681TIP3    H247459   3.277   2.489  16.597  0.7130 -1.7851  0.4081
 8682TIP3   OH247460   1.962   1.487  15.578  0.7732  0.2605 -0.5834
 8682TIP3    H147461   1.873   1.452  15.584  0.9343  0.0952  2.3819
 8682TIP3    H247462   2.017   1.411  15.561  0.6243 -0.1620  0.7446
 8683TIP3   OH247463   3.167   0.986   5.371  0.4765  0.0924 -0.1804
 8683TIP3    H147464   3.152   0.925   5.299 -0.9429 -0.2409  0.3531
 8683TIP3    H247465   3.082   1.029   5.384  0.3350 -0.7372  2.0520
 8684TIP3   OH247466   4.668   1.762   2.565  0.1311  0.0012  0.6011
 8684TIP3    H147467   4.667   1.790   2.657 -2.2493  0.6337  0.4528
 8684TIP3    H247468   4.672   1.843   2.515  0.9679 -0.3258  0.1233
 8685TIP3   OH247469   3.003   5.909  14.578  0.3495 -0.4077  0.0117
 8685TIP3    H147470   3.022   5.844  14.646  0.1132 -2.4570 -1.7389
 8685TIP3    H247471   3.089   5.941  14.550  0.6552 -1.6935 -0.6158
 8686TIP3   OH247472   4.412   6.638  11.886  0.1145 -0.4659 -0.1301
 8686TIP3    H147473   4.495   6.600  11.857 -0.3418  0.4288 -2.8769
 8686TIP3    H247474   4.345   6.584  11.845 -0.5495  2.4328 -3.2905
 8687TIP3   OH247475   0.897   1.703  11.254  0.1686  0.1279  0.0711
 8687TIP3    H147476   0.820   1.754  11.281 -0.6750 -2.0013  2.1391
 8687TIP3    H247477   0.917   1.734  11.166 -0.4235  3.7111  1.0478
 8688TIP3   OH247478   3.323   5.475   3.624 -0.0971  0.5882 -0.0337
 8688TIP3    H147479   3.416   5.483   3.603  0.2024 -0.0501  0.9763
 8688TIP3    H247480   3.279   5.536   3.565  1.0343  1.4222 -0.0271
 8689TIP3   OH247481   0.239   1.929  14.075 -0.0220  0.1813  0.3940
 8689TIP3    H147482   0.146   1.919  14.051 -0.0507  0.1156  0.5288
 8689TIP3    H247483   0.284   1.943  13.992  0.0826 -1.5543  0.1188
 8690TIP3   OH247484   3.126   3.228  15.144  0.3668  0.1705 -0.1440
 8690TIP3    H147485   3.126   3.138  15.112  3.1248  0.3941 -1.0033
 8690TIP3    H247486   3.139   3.282  15.066  1.8237  1.0740  0.6622
 8691TIP3   OH247487   1.015   3.438   6.496 -0.2886 -0.8941  0.0611
 8691TIP3    H147488   1.071   3.499   6.449  1.8103 -3.0703 -0.5034
 8691TIP3    H247489   0.930   3.445   6.454  0.6094 -0.2949 -1.7640
 8692TIP3   OH247490   5.373   6.414   2.003 -0.3107 -0.3605 -0.0293
 8692TIP3    H147491   5.298   6.474   1.999 -0.4259 -0.5626 -1.0662
 8692TIP3    H247492   5.398   6.400   1.912  0.8341 -0.5057  0.2868
 8693TIP3   OH247493   2.350   5.754  12.526  0.2886  0.3859 -0.2496
 8693TIP3    H147494   2.340   5.691  12.598  0.6461 -0.4546 -0.9157
 8693TIP3    H247495   2.273   5.739  12.470 -1.1786  2.5555  1.0466
 8694TIP3   OH247496   3.909   2.166   1.468  0.2934 -0.3042  0.3862
 8694TIP3    H147497   3.977   2.165   1.400  0.1224 -1.0288  0.2194
 8694TIP3    H247498   3.952   2.130   1.545  0.5448  0.7029  0.7317
 8695TIP3   OH247499   0.577   5.150  13.270 -0.0723 -0.0636 -0.0214
 8695TIP3    H147500   0.503   5.210  13.267  0.1181  0.1825  0.2684
 8695TIP3    H247501   0.650   5.203  13.300 -0.0163 -0.5573  0.7403
 8696TIP3   OH247502   3.285   0.441  16.017 -0.1955 -0.8420 -0.1500
 8696TIP3    H147503   3.245   0.464  15.933  1.1099  0.4612 -0.4464
 8696TIP3    H247504   3.273   0.519  16.071 -0.2360 -1.3483  0.5826
 8697TIP3   OH247505   3.777   2.831   0.252 -0.0366  0.3900 -0.1893
 8697TIP3    H147506   3.797   2.738   0.242  0.0550  0.5314 -1.4833
 8697TIP3    H247507   3.683   2.833   0.270 -0.3899  0.1143 -1.8587
 8698TIP3   OH247508   1.862   2.614  10.881  0.2735  0.1043 -0.3311
 8698TIP3    H147509   1.875   2.551  10.810  1.0569 -0.5953  0.4147
 8698TIP3    H247510   1.773   2.646  10.868 -0.3573 -1.5848 -0.3986
 8699TIP3   OH247511   2.503   4.437   2.978  0.1564 -0.0584 -0.0638
 8699TIP3    H147512   2.489   4.466   3.069  2.0359  1.3934 -0.1839
 8699TIP3    H247513   2.514   4.517   2.929 -1.5563 -0.7978 -1.7772
 8700TIP3   OH247514   4.297   2.218   4.146 -0.3606  0.2151 -0.3572
 8700TIP3    H147515   4.282   2.215   4.051  0.4502 -0.6784 -0.4719
 8700TIP3    H247516   4.347   2.138   4.165 -0.6337  0.3155  0.8471
 8701TIP3   OH247517   3.714   3.644  11.053 -0.5452  0.4919 -0.0105
 8701TIP3    H147518   3.808   3.649  11.074 -0.1103 -0.7410 -1.4789
 8701TIP3    H247519   3.706   3.685  10.967 -0.9639 -1.3024 -0.8713
 8702TIP3   OH247520   0.746   1.982   4.536  0.2214 -0.5410  0.6345
 8702TIP3    H147521   0.828   1.995   4.584  1.7201 -0.7690 -1.7183
 8702TIP3    H247522   0.767   1.918   4.469 -1.3028  0.9453 -1.3808
 8703TIP3   OH247523   3.354   5.357   2.154  0.4831  0.1562  0.3748
 8703TIP3    H147524   3.265   5.349   2.121  0.8102  0.5975 -0.6789
 8703TIP3    H247525   3.389   5.434   2.108  0.7611  1.2157  2.2625
 8704TIP3   OH247526   5.875   4.992  13.214  0.1638  0.0596  0.2945
 8704TIP3    H147527   5.885   5.084  13.237 -1.2667  0.9409 -2.1579
 8704TIP3    H247528   5.781   4.981  13.198  0.2719 -1.9034  0.7238
 8705TIP3   OH247529   6.113   3.249   5.901  0.0663  0.2470  0.0263
 8705TIP3    H147530   6.067   3.214   5.977  0.3056  1.2876  0.6615
 8705TIP3    H247531   6.185   3.187   5.886  0.5396  0.4950  1.1912
 8706TIP3   OH247532   3.192   2.330  11.529 -0.0933  0.0338  0.3671
 8706TIP3    H147533   3.193   2.425  11.519 -2.0289  0.0027 -0.6030
 8706TIP3    H247534   3.209   2.296  11.441 -0.8209 -0.4861  0.4199
 8707TIP3   OH247535   2.792   5.706  11.037  0.2741 -0.1450  0.1001
 8707TIP3    H147536   2.764   5.791  11.003  0.3492 -0.0545  0.2608
 8707TIP3    H247537   2.808   5.653  10.959 -1.9600 -0.7447 -0.0152
 8708TIP3   OH247538   4.937   6.152  15.275  0.0146  0.6653 -0.0556
 8708TIP3    H147539   4.953   6.211  15.348  0.2543  1.5286 -0.7791
 8708TIP3    H247540   5.024   6.127  15.245 -0.0527  1.0449 -0.5982
 8709TIP3   OH247541   5.508   6.154   3.887 -0.0879 -0.8317 -0.3333
 8709TIP3    H147542   5.454   6.130   3.812  1.4446 -0.5337 -1.5943
 8709TIP3    H247543   5.578   6.089   3.888  1.6077  0.8824 -1.0598
 8710TIP3   OH247544   0.413   3.213  17.178  0.1671 -0.0041  0.0071
 8710TIP3    H147545   0.319   3.232  17.175 -0.0350 -0.8537  0.5859
 8710TIP3    H247546   0.433   3.205  17.271  0.8024  0.1116 -0.1149
 8711TIP3   OH247547   6.172   2.681  16.908 -0.4080 -0.3152  0.3696
 8711TIP3    H147548   6.197   2.611  16.969 -0.4681 -0.0983  0.6456
 8711TIP3    H247549   6.245   2.684  16.845  0.7760  0.9609  1.7260
 8712TIP3   OH247550   6.043   2.633   1.973 -0.3372  0.6015  0.9190
 8712TIP3    H147551   5.962   2.586   1.952  1.5767 -2.1717 -0.9203
 8712TIP3    H247552   6.031   2.720   1.935 -2.3887  0.2235  0.5867
 8713TIP3   OH247553   1.278   1.764  15.396 -0.0885  0.7271 -0.0841
 8713TIP3    H147554   1.299   1.678  15.360 -1.3215 -0.0314  0.9588
 8713TIP3    H247555   1.287   1.754  15.491 -0.6465  1.6331  0.0808
 8714TIP3   OH247556   5.114   6.417  14.631  0.4238  0.4233 -0.4459
 8714TIP3    H147557   5.151   6.345  14.581  1.3509  0.4528  0.1549
 8714TIP3    H247558   5.082   6.479  14.566 -0.2014 -0.4349 -0.9664
 8715TIP3   OH247559   0.333   5.531  11.296  0.4051 -0.4566 -0.4003
 8715TIP3    H147560   0.357   5.531  11.203 -0.3399  0.2397 -0.6060
 8715TIP3    H247561   0.356   5.443  11.327 -0.8813 -1.2802 -1.6609
 8716TIP3   OH247562   1.118   5.410  14.713 -0.3248  0.4869 -0.6437
 8716TIP3    H147563   1.044   5.454  14.671 -0.7810 -2.7855 -3.7732
 8716TIP3    H247564   1.078   5.341  14.765  0.4577 -0.3703 -1.1534
 8717TIP3   OH247565   6.543   2.032  11.355 -0.1698  0.0992  0.5319
 8717TIP3    H147566   6.624   2.066  11.392  1.8014 -1.3102 -2.1919
 8717TIP3    H247567   6.499   2.109  11.318  0.8995  0.6151  0.3213
 8718TIP3   OH247568   3.914   2.257  15.931  0.1331 -0.2501  0.0020
 8718TIP3    H147569   3.903   2.258  16.026 -1.6490  0.2575 -0.1830
 8718TIP3    H247570   3.834   2.217  15.898 -0.5188  2.0515 -1.4063
 8719TIP3   OH247571   1.761   5.638  16.668  0.0665 -0.3710 -0.0425
 8719TIP3    H147572   1.844   5.684  16.681 -0.1787 -0.2951  1.4304
 8719TIP3    H247573   1.714   5.691  16.604  1.2803 -0.6078 -1.1731
 8720TIP3   OH247574   2.152   4.927   6.508 -0.3499 -0.4958 -0.2133
 8720TIP3    H147575   2.173   4.857   6.569 -1.3965 -1.8256 -1.3206
 8720TIP3    H247576   2.235   4.948   6.466 -0.0483 -1.1714  0.0337
 8721TIP3   OH247577   0.860   6.129  14.255  0.8651 -0.1192  0.2523
 8721TIP3    H147578   0.872   6.179  14.336 -1.1918 -0.9904  1.1793
 8721TIP3    H247579   0.851   6.038  14.284  0.4394 -0.4914 -0.9938
 8722TIP3   OH247580   0.497   0.606  15.689  0.0024  0.3826  0.0821
 8722TIP3    H147581   0.514   0.699  15.706  1.1024  0.2051  0.0503
 8722TIP3    H247582   0.504   0.565  15.775 -1.4389  0.4359  0.2581
 8723TIP3   OH247583   6.457   2.353   1.564  0.1221 -0.2538 -0.3151
 8723TIP3    H147584   6.431   2.444   1.582 -1.0809 -0.9325  1.6907
 8723TIP3    H247585   6.472   2.315   1.650 -0.6809 -2.3133 -1.0293
 8724TIP3   OH247586   1.876   3.448   3.805  0.1889  0.0696 -0.0412
 8724TIP3    H147587   1.918   3.425   3.888  1.4909 -0.3934 -0.7936
 8724TIP3    H247588   1.832   3.531   3.823  1.1082  0.3878  0.9085
 8725TIP3   OH247589   0.598   0.256   4.684 -0.3307  0.0109 -0.4184
 8725TIP3    H147590   0.629   0.177   4.727  0.1527 -1.1173 -2.6864
 8725TIP3    H247591   0.676   0.309   4.669 -0.0594 -0.8287 -2.2095
 8726TIP3   OH247592   6.710   4.583   1.210  0.1690 -0.1296 -0.7242
 8726TIP3    H147593   6.736   4.611   1.298 -0.0775  0.8541 -0.9515
 8726TIP3    H247594   6.625   4.540   1.222 -0.9139  1.9201 -0.7413
 8727TIP3   OH247595   5.568   0.928  10.822  0.8108 -0.3919 -0.1230
 8727TIP3    H147596   5.636   0.961  10.881  1.2146 -0.6041 -0.4658
 8727TIP3    H247597   5.536   0.849  10.865  0.5395 -0.1023  0.2092
 8728TIP3   OH247598   0.751   5.558  13.349 -0.0640 -0.0155  0.3146
 8728TIP3    H147599   0.768   5.572  13.442 -0.9709  0.8209  0.3614
 8728TIP3    H247600   0.828   5.594  13.305  0.0203  0.2869  0.7045
 8729TIP3   OH247601   4.780   6.174   3.212 -0.3484 -0.3661 -0.6761
 8729TIP3    H147602   4.737   6.229   3.278  1.3818  1.4043 -0.9049
 8729TIP3    H247603   4.750   6.209   3.128  0.3849 -0.0700 -0.8234
 8730TIP3   OH247604   1.505   2.355  10.205 -0.2317 -0.1410 -0.0317
 8730TIP3    H147605   1.506   2.360  10.110 -3.3899  0.7604 -0.1255
 8730TIP3    H247606   1.452   2.278  10.225 -1.1307  0.7005  0.9440
 8731TIP3   OH247607   2.782   4.575  11.947  0.2996 -0.1929  0.3871
 8731TIP3    H147608   2.725   4.531  12.011  0.2434 -0.3981  0.1969
 8731TIP3    H247609   2.870   4.547  11.973  0.5318  1.7852  1.9934
 8732TIP3   OH247610   5.414   1.149   4.210 -0.3259 -0.1041 -0.6842
 8732TIP3    H147611   5.434   1.238   4.182  1.8349 -0.3575 -0.1983
 8732TIP3    H247612   5.382   1.105   4.132  0.4040  0.6136 -1.4083
 8733TIP3   OH247613   4.573   1.098  17.171 -0.2019 -0.8070  0.4835
 8733TIP3    H147614   4.580   1.019  17.118  0.8409  0.4364 -1.3531
 8733TIP3    H247615   4.600   1.169  17.112 -0.1068  0.8086  2.3642
 8734TIP3   OH247616   5.776   5.179  14.581 -0.3681 -0.5917  0.1179
 8734TIP3    H147617   5.686   5.213  14.588 -0.9790 -1.3093 -2.9636
 8734TIP3    H247618   5.831   5.252  14.608 -1.8142  1.0260 -1.0472
 8735TIP3   OH247619   2.027   1.433  12.477 -0.0312  0.0023 -0.1376
 8735TIP3    H147620   1.974   1.493  12.530 -0.0220 -0.0814 -0.0332
 8735TIP3    H247621   2.095   1.489  12.439  1.6827 -0.3618  2.1689
 8736TIP3   OH247622   3.394   2.866   5.970  0.0342 -0.0221 -0.6461
 8736TIP3    H147623   3.453   2.802   5.931 -0.1841 -1.2093  0.8731
 8736TIP3    H247624   3.396   2.847   6.064 -0.4894  1.8448 -0.2168
 8737TIP3   OH247625   2.485   1.510   1.778  0.3958  0.3329  0.5942
 8737TIP3    H147626   2.534   1.562   1.714 -0.2279 -0.0702 -0.2336
 8737TIP3    H247627   2.428   1.573   1.823 -1.1055  0.2787 -1.1084
 8738TIP3   OH247628   2.047   3.778   1.745  0.0443  0.1718 -0.0328
 8738TIP3    H147629   1.985   3.712   1.775  0.5960 -0.7869 -0.9025
 8738TIP3    H247630   2.133   3.738   1.761  0.4915  1.6723  1.6036
 8739TIP3   OH247631   2.340   1.657  15.730 -0.1174 -0.0847 -0.0488
 8739TIP3    H147632   2.279   1.685  15.662  1.1461  3.1454  0.0147
 8739TIP3    H247633   2.343   1.730  15.792  1.3280 -1.5329  1.7001
 8740TIP3   OH247634   4.733   5.841  14.194 -0.3784  0.4296 -0.3410
 8740TIP3    H147635   4.780   5.895  14.258 -0.3018  1.0445 -0.9039
 8740TIP3    H247636   4.681   5.903  14.144 -2.2087 -0.2906  0.5877
 8741TIP3   OH247637   4.288   4.205  14.995  0.6864 -0.3999 -0.0159
 8741TIP3    H147638   4.260   4.266  14.927  0.2459  0.5167  0.9442
 8741TIP3    H247639   4.326   4.131  14.948  0.9295  0.4684 -1.2306
 8742TIP3   OH247640   3.652   4.261  16.654 -0.7553 -0.4455  0.4501
 8742TIP3    H147641   3.595   4.195  16.695  2.0284 -1.9851  2.1084
 8742TIP3    H247642   3.610   4.344  16.676 -3.1351 -1.4930  0.2885
 8743TIP3   OH247643   2.426   0.748   6.244  0.0788 -0.3475 -0.4856
 8743TIP3    H147644   2.375   0.806   6.301  0.8968 -0.8445  0.7875
 8743TIP3    H247645   2.393   0.766   6.156  0.2476  1.9971 -0.1278
 8744TIP3   OH247646   6.009   4.188  17.086 -0.2666 -0.4054  0.0863
 8744TIP3    H147647   5.958   4.120  17.129 -0.6042 -0.1095  0.1627
 8744TIP3    H247648   5.953   4.266  17.089  0.0487 -0.1640 -0.1377
 8745TIP3   OH247649   1.358   4.716  17.223 -0.1552  0.3507 -0.1710
 8745TIP3    H147650   1.292   4.720  17.293  0.5577 -0.2192  0.5494
 8745TIP3    H247651   1.383   4.623  17.219  2.4889  0.8895  1.3919
 8746TIP3   OH247652   2.243   5.111   1.284  0.1257 -0.1213 -0.2322
 8746TIP3    H147653   2.314   5.133   1.223  0.2733  1.1107  0.3635
 8746TIP3    H247654   2.287   5.086   1.365 -0.0866  1.6724  0.4869
 8747TIP3   OH247655   5.778   6.593   0.378 -0.5118  0.3251 -0.1964
 8747TIP3    H147656   5.707   6.650   0.407 -0.1347  0.7487 -0.0976
 8747TIP3    H247657   5.734   6.518   0.338 -1.0473 -0.2584  1.4174
 8748TIP3   OH247658   2.798   6.278   5.537  0.2694  0.0173  0.4396
 8748TIP3    H147659   2.894   6.279   5.547  0.2914  2.1478  0.5301
 8748TIP3    H247660   2.765   6.284   5.626 -0.0607 -2.5343  0.5743
 8749TIP3   OH247661   2.235   6.669   2.618  0.1009 -0.2391  0.1738
 8749TIP3    H147662   2.263   6.632   2.701  0.6361  0.0254  0.1105
 8749TIP3    H247663   2.315   6.678   2.567 -0.0565  0.7891  0.1016
 8750TIP3   OH247664   0.625   1.367   0.201 -0.0350 -0.2122  0.2086
 8750TIP3    H147665   0.716   1.339   0.208  0.6328  1.5736 -0.7991
 8750TIP3    H247666   0.595   1.332   0.117 -0.4733 -1.1867  0.7401
 8751TIP3   OH247667   0.840   5.864  12.841 -0.4183  0.1010 -0.0573
 8751TIP3    H147668   0.762   5.919  12.849  0.3718  1.3348 -0.4912
 8751TIP3    H247669   0.843   5.841  12.748 -0.0376  0.4276 -0.1293
 8752TIP3   OH247670   5.376   6.410  14.728 -0.1872 -0.2777 -0.1168
 8752TIP3    H147671   5.287   6.404  14.693 -0.4256  1.1343  0.1922
 8752TIP3    H247672   5.388   6.502  14.749  1.8361 -0.1542 -1.4147
 8753TIP3   OH247673   6.012   2.029  14.996 -0.1444  0.7297 -0.0897
 8753TIP3    H147674   6.074   2.015  15.068 -0.4157  0.0440  0.0166
 8753TIP3    H247675   6.043   1.972  14.926 -1.1336 -0.2677  0.2671
 8754TIP3   OH247676   6.652   5.848   4.777  0.3342 -0.0249 -0.2546
 8754TIP3    H147677   6.628   5.925   4.725 -1.3660  0.1267  0.6716
 8754TIP3    H247678   6.668   5.780   4.712 -2.3323 -0.0103 -1.0715
 8755TIP3   OH247679   5.159   6.264   0.328  0.0551  0.3961 -0.0018
 8755TIP3    H147680   5.116   6.316   0.261 -0.7061 -0.3239 -0.0886
 8755TIP3    H247681   5.243   6.238   0.289  0.5094  1.6488  0.0983
 8756TIP3   OH247682   5.619   0.128  15.651  0.3955  0.3106  0.3730
 8756TIP3    H147683   5.563   0.092  15.582 -0.8096  1.2627  0.8381
 8756TIP3    H247684   5.705   0.136  15.609  0.2615 -1.3514 -0.2882
 8757TIP3   OH247685   4.555   3.481   2.436  0.4155 -0.4749  0.3417
 8757TIP3    H147686   4.504   3.437   2.504 -0.2492 -1.0940 -0.5304
 8757TIP3    H247687   4.552   3.574   2.459  0.0743 -0.6624  1.0695
 8758TIP3   OH247688   5.340   4.207  11.385  1.1126 -0.2834  0.5021
 8758TIP3    H147689   5.412   4.232  11.327  0.3866  0.1962 -0.2224
 8758TIP3    H247690   5.282   4.153  11.330  0.6169 -0.1620  0.8939
 8759TIP3   OH247691   0.681   4.159   1.917 -0.5031 -0.0160  0.5521
 8759TIP3    H147692   0.687   4.166   2.012 -0.1114 -1.6498  0.6791
 8759TIP3    H247693   0.736   4.230   1.884 -0.2162  0.2411  1.5576
 8760TIP3   OH247694   4.237   6.652  14.972 -0.4218 -0.3365 -0.1610
 8760TIP3    H147695   4.269   6.706  14.900  0.4988 -0.0058  0.4824
 8760TIP3    H247696   4.268   6.696  15.051 -1.2328 -0.8112  0.4373
 8761TIP3   OH247697   4.334   5.708  14.090 -0.2750 -0.0159 -0.4373
 8761TIP3    H147698   4.246   5.689  14.123 -0.4453 -0.6005 -1.2030
 8761TIP3    H247699   4.378   5.623  14.089  0.6214  0.3989  0.8072
 8762TIP3   OH247700   0.621   5.072  15.168 -0.0003 -0.0268 -0.1825
 8762TIP3    H147701   0.560   4.999  15.156  1.2905 -0.9251 -1.5358
 8762TIP3    H247702   0.580   5.126  15.236 -1.2975 -1.6623  0.4020
 8763TIP3   OH247703   3.489   0.396  12.313 -0.1287 -0.1437  0.0589
 8763TIP3    H147704   3.548   0.464  12.345 -0.1105 -0.2366  0.2274
 8763TIP3    H247705   3.411   0.443  12.285  0.8320  0.2194 -2.2051
 8764TIP3   OH247706   0.078   6.124   2.635  0.1948 -0.4716 -0.2712
 8764TIP3    H147707   0.123   6.061   2.692  2.1219 -0.5897 -1.8109
 8764TIP3    H247708   0.082   6.207   2.683  0.3886 -0.8784  0.4314
 8765TIP3   OH247709   6.292   4.759   6.231 -0.4046 -0.2824  0.6144
 8765TIP3    H147710   6.207   4.715   6.224  0.9698 -3.0189 -0.6463
 8765TIP3    H247711   6.340   4.707   6.295  0.4733  0.9940  1.0113
 8766TIP3   OH247712   2.280   0.172  13.489  0.1313  0.9723  0.0023
 8766TIP3    H147713   2.330   0.131  13.559 -0.2244 -0.7068 -0.6580
 8766TIP3    H247714   2.205   0.211  13.533 -0.8062 -1.2163  0.5122
 8767TIP3   OH247715   4.795   4.866  12.581  0.0404  0.4931  0.7838
 8767TIP3    H147716   4.824   4.937  12.523  0.6833 -0.9372 -0.7380
 8767TIP3    H247717   4.702   4.857  12.563  0.4091 -0.5416 -0.7769
 8768TIP3   OH247718   5.376   1.306  14.681  0.4822 -0.3749 -0.0135
 8768TIP3    H147719   5.310   1.374  14.699 -1.7316 -2.7227  1.4327
 8768TIP3    H247720   5.389   1.310  14.587 -0.0995  1.5634 -0.0568
 8769TIP3   OH247721   0.154   4.943   5.598 -0.7770  0.0978  0.4592
 8769TIP3    H147722   0.102   4.888   5.539  1.2564  0.3551 -1.7202
 8769TIP3    H247723   0.217   4.883   5.637 -1.1073  0.2260  1.2207
 8770TIP3   OH247724   0.776   2.315   5.046 -0.6163 -0.7977  0.5583
 8770TIP3    H147725   0.855   2.294   5.096 -1.3364 -1.1431  1.5826
 8770TIP3    H247726   0.718   2.240   5.060 -0.8617 -0.8782 -0.7681
 8771TIP3   OH247727   3.946   3.333   0.660 -0.1066  0.0021  0.5692
 8771TIP3    H147728   3.888   3.274   0.708  0.5365  0.4706  1.9922
 8771TIP3    H247729   4.031   3.325   0.703  0.2407  1.2300  0.1833
 8772TIP3   OH247730   4.655   5.163  16.288 -0.5323  0.1291 -0.0310
 8772TIP3    H147731   4.704   5.082  16.305 -1.1272 -0.1055  0.5915
 8772TIP3    H247732   4.591   5.138  16.221 -2.8152 -0.7900  2.3146
 8773TIP3   OH247733   6.200   5.055  13.816 -0.4394 -0.4278 -0.5466
 8773TIP3    H147734   6.129   5.090  13.869  0.6684  0.4351  0.4092
 8773TIP3    H247735   6.157   4.995  13.754 -2.0793  0.6839 -0.5303
 8774TIP3   OH247736   2.692   6.392  14.046  0.0775  0.1599  0.4023
 8774TIP3    H147737   2.613   6.412  13.996  0.2424 -0.7170 -0.2402
 8774TIP3    H247738   2.683   6.442  14.127 -2.5710 -2.1413  1.7184
 8775TIP3   OH247739   0.342   6.398   3.378  0.1274 -0.0233 -0.1259
 8775TIP3    H147740   0.261   6.365   3.339  0.8652 -0.4426 -1.3354
 8775TIP3    H247741   0.402   6.323   3.376  0.9509  0.6399 -0.3964
 8776TIP3   OH247742   4.723   5.772   4.978 -0.4183 -0.3478  0.0292
 8776TIP3    H147743   4.807   5.728   4.966 -0.6583 -1.0140  0.7315
 8776TIP3    H247744   4.719   5.792   5.071 -1.2517 -0.7619  0.0891
 8777TIP3   OH247745   2.563   5.035  14.325 -0.6022  0.6696  0.2092
 8777TIP3    H147746   2.529   5.068  14.242  1.3127 -0.3512 -1.0847
 8777TIP3    H247747   2.563   4.940  14.314 -1.9439  0.4126  2.1080
 8778TIP3   OH247748   3.191   2.055  11.027  0.4288  0.2234  0.1722
 8778TIP3    H147749   3.187   1.962  11.003  2.4982  0.5029 -1.6011
 8778TIP3    H247750   3.152   2.059  11.114  1.0549 -2.4559  0.6716
 8779TIP3   OH247751   5.528   5.995  15.575  0.1028 -0.1969 -0.2253
 8779TIP3    H147752   5.483   6.078  15.589 -0.1262 -0.2176 -0.8327
 8779TIP3    H247753   5.500   5.966  15.489  0.3478 -0.8038 -0.1072
 8780TIP3   OH247754   2.203   4.726  17.264 -0.5698 -0.2789  0.3194
 8780TIP3    H147755   2.244   4.812  17.255 -1.4579  0.0067 -1.4200
 8780TIP3    H247756   2.185   4.717  17.358  2.6162 -0.0779  1.0773
 8781TIP3   OH247757   2.253   5.627  14.889 -1.0491  0.5973 -0.2815
 8781TIP3    H147758   2.208   5.709  14.868 -0.6888  0.8856  0.0539
 8781TIP3    H247759   2.280   5.592  14.804 -1.5955  0.5981 -0.4571
 8782TIP3   OH247760   4.560   6.421  13.696 -0.9741 -0.1828  0.3476
 8782TIP3    H147761   4.599   6.476  13.628 -0.2407  0.3561  1.1825
 8782TIP3    H247762   4.616   6.343  13.697 -0.8858 -0.1184  0.4424
 8783TIP3   OH247763   2.369   5.069   2.670 -0.8926 -0.2315 -0.0585
 8783TIP3    H147764   2.386   5.077   2.576  2.2252 -0.5944  0.3743
 8783TIP3    H247765   2.398   5.153   2.707  1.9196 -1.5461  0.9685
 8784TIP3   OH247766   0.106   1.170  10.708 -0.2415  0.3640  0.2423
 8784TIP3    H147767   0.145   1.237  10.764 -2.2169  1.3604  0.4814
 8784TIP3    H247768   0.115   1.089  10.758  0.5152  0.7488  0.7591
 8785TIP3   OH247769   4.600   1.314   5.813 -0.7322 -0.0001 -0.0922
 8785TIP3    H147770   4.557   1.256   5.876 -0.3797 -0.1788 -0.0130
 8785TIP3    H247771   4.600   1.400   5.855 -2.8040  0.4530 -0.9217
 8786TIP3   OH247772   2.247   0.555  11.364 -0.0741 -0.1442  0.4120
 8786TIP3    H147773   2.155   0.562  11.390  0.1624  0.2728  1.1881
 8786TIP3    H247774   2.290   0.627  11.410  0.7518 -0.7364  0.5859
 8787TIP3   OH247775   0.527   4.436  11.857 -0.5033  0.1292  0.5817
 8787TIP3    H147776   0.473   4.399  11.787  0.5783 -2.2645  0.8931
 8787TIP3    H247777   0.616   4.429  11.824 -0.1740  1.9037  0.9923
 8788TIP3   OH247778   5.086   5.711  10.470 -0.6388 -0.2919  0.2445
 8788TIP3    H147779   5.038   5.711  10.387  1.7788 -2.1639 -1.2962
 8788TIP3    H247780   5.057   5.632  10.515 -1.6414  0.5039  1.0238
 8789TIP3   OH247781   5.709   6.289  13.841 -0.0220 -0.2629  0.2352
 8789TIP3    H147782   5.681   6.236  13.915  0.3986  0.2478  0.7680
 8789TIP3    H247783   5.794   6.324  13.867  0.6825 -0.9817 -0.9380
 8790TIP3   OH247784   2.680   0.662   6.275  0.0615 -0.1439 -0.5128
 8790TIP3    H147785   2.745   0.700   6.216 -0.8519  0.6008 -1.0625
 8790TIP3    H247786   2.597   0.671   6.229 -0.6795  0.4332  0.8638
 8791TIP3   OH247787   6.143   0.864   2.597 -0.1497  0.3013 -0.0533
 8791TIP3    H147788   6.206   0.812   2.547 -0.4572 -0.0184 -0.1121
 8791TIP3    H247789   6.171   0.954   2.585  0.3489  0.1510 -0.0054
 8792TIP3   OH247790   0.181   5.267  11.391  0.4572  0.0261 -0.5041
 8792TIP3    H147791   0.264   5.274  11.343  0.1708  1.7232 -0.8203
 8792TIP3    H247792   0.199   5.310  11.475  0.2815 -0.8426 -0.0136
 8793TIP3   OH247793   2.585   2.895  16.861  0.2628 -0.2075 -0.1115
 8793TIP3    H147794   2.588   2.803  16.884  1.3176  0.1905  1.4699
 8793TIP3    H247795   2.491   2.914  16.850  0.0620 -1.5208 -0.8637
 8794TIP3   OH247796   2.139   4.985   2.568 -0.9988  0.4240  0.0371
 8794TIP3    H147797   2.232   4.979   2.547 -0.8409  0.1970  0.7887
 8794TIP3    H247798   2.122   4.911   2.625 -2.0135 -0.4848 -1.3882
 8795TIP3   OH247799   4.890   4.615  12.437 -0.0211 -0.5425 -0.0954
 8795TIP3    H147800   4.858   4.668  12.511 -0.6057  1.2744 -1.5488
 8795TIP3    H247801   4.950   4.552  12.476 -2.2277 -1.3689  2.2540
 8796TIP3   OH247802   5.121   0.607  16.848 -0.4575 -0.4244  0.0592
 8796TIP3    H147803   5.041   0.650  16.817  0.8118  1.1809 -1.1610
 8796TIP3    H247804   5.127   0.632  16.940 -1.0313 -0.0461 -0.0002
 8797TIP3   OH247805   4.833   2.296   1.628 -0.5199  0.0903 -0.3257
 8797TIP3    H147806   4.798   2.284   1.716 -2.0918 -1.9930 -1.1614
 8797TIP3    H247807   4.764   2.264   1.570  1.1777 -0.2696 -2.2468
 8798TIP3   OH247808   3.913   4.699  11.155 -0.0145  0.4044 -0.2169
 8798TIP3    H147809   3.825   4.662  11.145  0.3736 -0.9577  1.0557
 8798TIP3    H247810   3.906   4.759  11.228  0.1738  0.0745  0.0741
 8799TIP3   OH247811   3.620   6.347   0.014  0.5756  0.1775 -0.0637
 8799TIP3    H147812   3.617   6.441  -0.004 -0.6494  0.3380  0.8883
 8799TIP3    H247813   3.664   6.340   0.098 -0.2015 -0.0227  0.3340
 8800TIP3   OH247814   0.777   3.519   4.659  0.4242  0.2433 -0.0627
 8800TIP3    H147815   0.766   3.488   4.749  1.7849 -0.7561 -0.1927
 8800TIP3    H247816   0.839   3.592   4.666  2.7360 -1.5556 -0.3701
 8801TIP3   OH247817   1.456   2.669   4.308  0.1841  0.7569  0.0210
 8801TIP3    H147818   1.526   2.664   4.243  1.4968  1.1197  1.3570
 8801TIP3    H247819   1.408   2.750   4.286 -0.6470 -0.1463 -1.6632
 8802TIP3   OH247820   4.695   5.392   4.880 -0.4126  0.3094 -0.2176
 8802TIP3    H147821   4.610   5.396   4.835 -0.1483 -1.4975 -0.9683
 8802TIP3    H247822   4.675   5.417   4.970 -1.9958 -1.2074 -0.0866
 8803TIP3   OH247823   2.091   0.922   5.853 -0.0595 -1.0619 -0.2051
 8803TIP3    H147824   2.129   0.863   5.918  1.9892 -0.6144 -0.8972
 8803TIP3    H247825   2.080   1.005   5.900 -0.4679 -1.2745  0.0809
 8804TIP3   OH247826   2.518   2.669  15.667  0.0848  0.1700 -0.0186
 8804TIP3    H147827   2.506   2.607  15.595 -1.3279 -1.9753  1.9188
 8804TIP3    H247828   2.432   2.707  15.681  0.6704  1.6921 -0.3553
 8805TIP3   OH247829   4.560   3.444  15.876 -0.5384  0.6897  0.2067
 8805TIP3    H147830   4.564   3.537  15.852 -0.8315  0.9294  1.0812
 8805TIP3    H247831   4.480   3.412  15.834 -0.1225  0.6830 -0.5958
 8806TIP3   OH247832   3.199   6.191   6.239  0.3391 -0.1262  0.0753
 8806TIP3    H147833   3.218   6.161   6.150  0.6474 -0.0433  0.1119
 8806TIP3    H247834   3.147   6.270   6.227 -0.6351 -0.7672 -0.0213
 8807TIP3   OH247835   3.025   3.348  14.603 -0.6873  0.3293 -0.2313
 8807TIP3    H147836   2.957   3.318  14.543 -1.1196  1.0541 -0.1188
 8807TIP3    H247837   2.993   3.321  14.689 -0.5657  0.1914 -0.2293
 8808TIP3   OH247838   6.089   5.402  16.079 -0.8513 -0.3500  0.2197
 8808TIP3    H147839   6.142   5.456  16.137 -0.6948 -1.0471  0.7437
 8808TIP3    H247840   6.108   5.434  15.991  2.2957 -2.0659  0.1426
 8809TIP3   OH247841   6.715   3.072   2.947 -0.5787 -0.7321  0.2563
 8809TIP3    H147842   6.788   3.047   3.003  0.8520  1.7995 -0.2985
 8809TIP3    H247843   6.734   3.033   2.862 -0.2475 -0.6670  0.3009
 8810TIP3   OH247844   4.989   4.998   0.856 -0.0758 -0.4905 -0.2848
 8810TIP3    H147845   5.028   4.960   0.935 -0.7623 -0.5801  0.0289
 8810TIP3    H247846   4.955   4.922   0.808 -0.6015 -0.3657 -0.1270
 8811TIP3   OH247847   4.727   1.348   0.880  0.3531 -0.0227 -0.0881
 8811TIP3    H147848   4.740   1.434   0.920  0.6263  0.7773 -1.8251
 8811TIP3    H247849   4.814   1.308   0.882  0.9386  1.0201 -2.0333
 8812TIP3   OH247850   5.943   3.671  14.070 -0.4402 -0.0986  0.2731
 8812TIP3    H147851   6.014   3.652  14.131  1.2982  2.1320 -0.8928
 8812TIP3    H247852   5.982   3.657  13.983 -0.9549  2.3210 -0.4269
 8813TIP3   OH247853   0.242   1.363  15.893 -0.2299 -0.6948 -0.0885
 8813TIP3    H147854   0.178   1.308  15.849 -0.0387 -0.8586 -0.1624
 8813TIP3    H247855   0.190   1.427  15.942 -0.6337 -2.9619  2.7363
 8814TIP3   OH247856   2.280   5.990  12.293  0.1947 -0.0494  0.3625
 8814TIP3    H147857   2.212   5.977  12.359 -0.4389  0.7320 -0.1162
 8814TIP3    H247858   2.285   6.085  12.282  2.7955  0.0846  1.8314
 8815TIP3   OH247859   2.500   3.846   1.880 -0.5662 -0.1095  0.5439
 8815TIP3    H147860   2.474   3.784   1.812  2.3715  0.2925 -1.1145
 8815TIP3    H247861   2.481   3.932   1.842  3.6004  0.2668 -1.2293
 8816TIP3   OH247862   2.131   2.644  14.742 -0.0268 -0.1284  0.4730
 8816TIP3    H147863   2.058   2.614  14.688 -0.5336  0.8172  0.6130
 8816TIP3    H247864   2.091   2.705  14.804  1.0499  1.3407 -0.2241
 8817TIP3   OH247865   5.244   2.919  12.127  0.7640 -0.3585 -0.2744
 8817TIP3    H147866   5.270   2.901  12.217  3.0121 -2.4429 -1.2391
 8817TIP3    H247867   5.209   3.008  12.130  3.3521  0.7399  2.1890
 8818TIP3   OH247868   5.400   5.558   5.372 -0.0733 -0.4508  0.5362
 8818TIP3    H147869   5.474   5.612   5.345 -0.6798 -0.4845 -1.3129
 8818TIP3    H247870   5.333   5.573   5.306 -1.0355 -1.8710  1.1322
 8819TIP3   OH247871   4.881   1.806  15.152 -0.1838 -0.1236  0.1016
 8819TIP3    H147872   4.824   1.819  15.228 -3.3920  0.5690 -2.2088
 8819TIP3    H247873   4.884   1.711  15.141  0.4252 -0.2369  1.1192
 8820TIP3   OH247874   3.648   4.642  11.077 -0.3765 -0.5720  0.1916
 8820TIP3    H147875   3.648   4.556  11.119 -2.2408  0.3560  2.3359
 8820TIP3    H247876   3.566   4.683  11.107  0.2520  1.7975 -1.0739
 8821TIP3   OH247877   5.041   0.847  14.028 -0.2542 -0.1009 -0.1630
 8821TIP3    H147878   4.968   0.832  13.967 -1.3669 -1.5276  1.3859
 8821TIP3    H247879   5.040   0.941  14.044 -0.5696  0.1592 -1.5722
 8822TIP3   OH247880   0.800   5.632   0.521  0.1776  0.0233  0.4606
 8822TIP3    H147881   0.863   5.667   0.584  0.3942  0.8810 -0.2068
 8822TIP3    H247882   0.720   5.681   0.537  0.1764  0.1059  0.2067
 8823TIP3   OH247883   5.585   5.902   5.006 -0.0278 -0.5635 -0.1363
 8823TIP3    H147884   5.676   5.927   5.023 -0.3060  1.4792 -1.2543
 8823TIP3    H247885   5.548   5.886   5.093  0.8715  0.6891  0.5146
 8824TIP3   OH247886   2.915   3.053   4.586 -0.3107  0.2030  0.0515
 8824TIP3    H147887   2.863   2.999   4.527 -0.2438 -0.3720  0.5078
 8824TIP3    H247888   2.869   3.137   4.590  0.3584  0.7103 -1.8078
 8825TIP3   OH247889   5.880   5.358  12.835 -0.0118  0.1255  0.2137
 8825TIP3    H147890   5.831   5.289  12.789 -0.2891  0.3969  0.1018
 8825TIP3    H247891   5.864   5.437  12.785  0.0228  0.3445  0.5436
 8826TIP3   OH247892   5.818   0.857   6.380  0.3524 -0.3565 -0.7291
 8826TIP3    H147893   5.757   0.872   6.307 -1.4654 -1.5210  0.4632
 8826TIP3    H247894   5.813   0.938   6.431 -1.0848 -0.8080 -0.0810
 8827TIP3   OH247895   1.735   2.616  14.305 -0.3117 -0.4627 -0.0205
 8827TIP3    H147896   1.775   2.532  14.284  1.6103 -0.3825  2.8601
 8827TIP3    H247897   1.780   2.679  14.249  1.0186 -0.8924  0.5200
 8828TIP3   OH247898   4.150   6.283   5.946  0.0272  0.2515  0.2009
 8828TIP3    H147899   4.103   6.211   5.988 -0.6675 -0.0071 -0.9858
 8828TIP3    H247900   4.243   6.262   5.961 -0.1657 -0.8708 -0.0799
 8829TIP3   OH247901   4.207   5.428   3.097 -0.1470  0.0085  0.0859
 8829TIP3    H147902   4.211   5.498   3.031  1.5658  1.9113  2.0445
 8829TIP3    H247903   4.297   5.419   3.128 -0.8213 -1.0781  1.8782
 8830TIP3   OH247904   1.281   4.278  14.667 -0.5406  0.1411  0.1812
 8830TIP3    H147905   1.353   4.275  14.729 -0.7528  0.3975  0.4461
 8830TIP3    H247906   1.225   4.205  14.691 -0.0259 -0.4696 -0.4568
 8831TIP3   OH247907   1.312   2.961  16.916  0.5413  0.0252 -0.2935
 8831TIP3    H147908   1.406   2.980  16.921  0.8106 -1.2227 -0.1177
 8831TIP3    H247909   1.288   2.941  17.006  0.0459  0.5546 -0.3055
 8832TIP3   OH247910   2.796   4.781   4.855 -0.1712 -0.7431 -0.2293
 8832TIP3    H147911   2.818   4.788   4.762 -1.4069  2.8452 -0.4000
 8832TIP3    H247912   2.737   4.706   4.860 -0.9889 -0.3355 -2.5571
 8833TIP3   OH247913   6.252   0.653  12.138  0.0464 -0.0122 -0.1787
 8833TIP3    H147914   6.157   0.658  12.133  0.1152  1.1596 -0.7425
 8833TIP3    H247915   6.282   0.728  12.087  1.2500  0.2823  0.9242
 8834TIP3   OH247916   3.300   3.595   5.988  0.8771 -0.2392 -0.0465
 8834TIP3    H147917   3.227   3.608   5.928  0.0371  0.6842  1.1274
 8834TIP3    H247918   3.287   3.506   6.022 -0.7980  0.5607  1.5301
 8835TIP3   OH247919   6.248   5.666   1.962 -0.4757  0.1499 -0.4256
 8835TIP3    H147920   6.178   5.628   2.016  1.3291 -0.9642  1.2487
 8835TIP3    H247921   6.250   5.610   1.884  0.7420 -2.0557  1.0620
 8836TIP3   OH247922   4.912   2.443   5.963 -0.6460  0.8366  0.2107
 8836TIP3    H147923   4.869   2.453   5.878 -0.1208 -0.5644 -0.2418
 8836TIP3    H247924   4.844   2.466   6.027 -1.7789 -0.3505 -0.5218
 8837TIP3   OH247925   5.520   3.727  13.251 -0.3412  0.4012  0.0152
 8837TIP3    H147926   5.585   3.775  13.303  0.7611  1.3573 -2.0857
 8837TIP3    H247927   5.465   3.796  13.213 -0.3150 -0.1373 -1.0392
 8838TIP3   OH247928   5.388   4.972  13.920  0.2636  0.0908  0.1727
 8838TIP3    H147929   5.339   5.054  13.913  0.5384  0.2106 -0.4671
 8838TIP3    H247930   5.342   4.922  13.987 -0.1817  0.5810  0.2405
 8839TIP3   OH247931   3.613   0.698   4.135 -0.0112 -0.1330  0.0625
 8839TIP3    H147932   3.673   0.698   4.060 -1.6285 -0.8440 -1.2758
 8839TIP3    H247933   3.648   0.630   4.193  0.1188 -1.0182 -1.0216
 8840TIP3   OH247934   2.302   4.265  11.633 -0.4300  0.2208 -0.6352
 8840TIP3    H147935   2.377   4.325  11.630  0.1776 -0.5677 -1.5904
 8840TIP3    H247936   2.311   4.221  11.717  0.1675  0.1543 -0.7253
 8841TIP3   OH247937   2.672   0.927   2.806 -0.3132  0.3088  0.0321
 8841TIP3    H147938   2.588   0.926   2.760 -0.8434  0.0710  0.9844
 8841TIP3    H247939   2.688   0.835   2.829 -1.5409  0.7135  2.9037
 8842TIP3   OH247940   1.683   1.804  17.137  0.0164  0.3524  0.0482
 8842TIP3    H147941   1.768   1.838  17.111 -1.0960  2.4861 -1.0390
 8842TIP3    H247942   1.646   1.769  17.056 -0.1769 -0.5350  0.5069
 8843TIP3   OH247943   6.450   1.995   0.958  0.6399 -0.3181 -0.4320
 8843TIP3    H147944   6.430   2.012   0.866 -0.2558  2.0861  0.1468
 8843TIP3    H247945   6.365   1.993   1.002  1.1216  0.1345  0.5659
 8844TIP3   OH247946   6.123   4.379  11.017 -0.3594 -0.2734 -0.0773
 8844TIP3    H147947   6.048   4.320  11.022 -2.2626  2.0283  0.1386
 8844TIP3    H247948   6.159   4.365  10.929 -1.8762 -0.4940 -0.6941
 8845TIP3   OH247949   0.789   6.724  14.385 -0.0224  0.0467  0.4482
 8845TIP3    H147950   0.764   6.646  14.335 -1.6336  0.5903  0.3499
 8845TIP3    H247951   0.795   6.794  14.320 -0.7258  0.4549  0.8106
 8846TIP3   OH247952   3.394   4.925  10.941 -0.3188 -0.6381  0.0265
 8846TIP3    H147953   3.371   4.879  10.861 -1.8485 -0.7203  0.4665
 8846TIP3    H247954   3.411   4.856  11.005  1.2072 -0.5736 -0.2946
 8847TIP3   OH247955   4.712   1.410  15.423  0.2166 -0.8989 -0.1828
 8847TIP3    H147956   4.740   1.381  15.510 -1.2568 -1.8037  0.0162
 8847TIP3    H247957   4.698   1.329  15.373 -3.7515 -0.7132  0.3024
 8848TIP3   OH247958   0.225   4.456   3.802 -0.4266 -0.8800 -0.7287
 8848TIP3    H147959   0.195   4.465   3.892 -1.4677 -1.7488 -0.9696
 8848TIP3    H247960   0.292   4.388   3.804  0.7896  0.2752 -0.3706
 8849TIP3   OH247961   5.166   6.419   4.060  0.3476  0.3914 -0.4037
 8849TIP3    H147962   5.246   6.373   4.083  0.5295  0.0432 -1.6544
 8849TIP3    H247963   5.107   6.350   4.029 -0.5134  0.6162  0.6868
 8850TIP3   OH247964   2.190   2.013  16.825  0.4914  0.6203  0.8833
 8850TIP3    H147965   2.208   1.976  16.912 -0.1814 -0.0786  0.7431
 8850TIP3    H247966   2.185   1.937  16.767 -1.7275  0.8020  0.7270
 8851TIP3   OH247967   5.134   0.443  15.253 -0.1084  0.0167 -0.2798
 8851TIP3    H147968   5.111   0.531  15.283  0.2436 -0.4589  1.5066
 8851TIP3    H247969   5.070   0.385  15.295  0.2951 -0.6692 -0.5900
 8852TIP3   OH247970   6.358   4.305  12.473  0.0552 -0.3472  0.2754
 8852TIP3    H147971   6.445   4.303  12.434  0.9848 -3.1619  2.1439
 8852TIP3    H247972   6.316   4.225  12.441 -1.6946  0.6608 -0.1171
 8853TIP3   OH247973   6.198   2.884   4.842  0.0295 -0.0791 -0.6550
 8853TIP3    H147974   6.232   2.846   4.923 -2.9551 -0.6088  0.4858
 8853TIP3    H247975   6.124   2.938   4.870 -0.8250  0.0639 -2.9947
 8854TIP3   OH247976   5.409   4.496  12.262  0.4107 -0.0564  0.1652
 8854TIP3    H147977   5.388   4.545  12.183 -0.4715 -0.9085 -0.1509
 8854TIP3    H247978   5.500   4.520  12.282  0.9299 -0.4387 -1.5743
 8855TIP3   OH247979   0.911   0.203   5.762  0.2166 -1.0400  0.6477
 8855TIP3    H147980   0.956   0.192   5.678  0.3295  2.5463  0.0565
 8855TIP3    H247981   0.823   0.232   5.738 -0.6522 -2.5868  1.8190
 8856TIP3   OH247982   2.457   1.437   4.782  0.3031 -0.1157  0.0496
 8856TIP3    H147983   2.424   1.524   4.803 -1.2827 -0.6645  0.0261
 8856TIP3    H247984   2.488   1.403   4.866  0.4770  0.2845  0.1509
 8857TIP3   OH247985   1.940   0.500  12.045  0.1872  0.3156 -0.0399
 8857TIP3    H147986   2.030   0.484  12.073 -0.1781  0.0228  1.0223
 8857TIP3    H247987   1.887   0.476  12.121 -0.7758  0.6645 -0.5868
 8858TIP3   OH247988   1.358   0.865  11.872 -0.1836  0.1347  0.3223
 8858TIP3    H147989   1.415   0.942  11.870 -0.9080  0.6691 -0.6560
 8858TIP3    H247990   1.414   0.794  11.902  1.3352  0.3816 -1.7527
 8859TIP3   OH247991   0.751   2.974   5.601  0.2551  0.2292  0.2666
 8859TIP3    H147992   0.828   3.002   5.651 -0.0936 -0.9405  1.5126
 8859TIP3    H247993   0.709   2.908   5.656 -0.1671 -1.1148 -1.5723
 8860TIP3   OH247994   5.443   5.370   1.190 -0.1809 -0.0565 -0.5571
 8860TIP3    H147995   5.354   5.384   1.157 -0.1146  0.4233 -0.5437
 8860TIP3    H247996   5.494   5.347   1.112 -0.1452  0.4943 -0.6999
 8861TIP3   OH247997   2.502   4.876  11.768 -0.6353 -0.2423  0.2526
 8861TIP3    H147998   2.528   4.797  11.721 -0.9031  0.8840 -1.9566
 8861TIP3    H247999   2.583   4.927  11.775 -1.0268  0.6777 -1.3220
 8862TIP3   OH248000   4.041   2.952  10.759 -0.5186 -0.1084 -0.5460
 8862TIP3    H148001   4.014   2.915  10.675  0.0174 -3.6154  0.6976
 8862TIP3    H248002   4.075   2.878  10.809  0.0987  2.0067  2.4463
 8863TIP3   OH248003   4.800   0.052   2.876 -0.7216  0.0916  0.5646
 8863TIP3    H148004   4.844  -0.033   2.880 -1.0823 -0.0911  0.6845
 8863TIP3    H248005   4.811   0.089   2.963  1.6178  1.2850 -0.1720
 8864TIP3   OH248006   5.473   4.617   5.887 -0.2522 -0.1724  0.8040
 8864TIP3    H148007   5.421   4.606   5.967  1.3696  1.8131  2.2329
 8864TIP3    H248008   5.461   4.535   5.840 -1.2909 -1.4279  3.0539
 8865TIP3   OH248009   0.924   1.112   1.235 -0.3252 -0.3772  0.4873
 8865TIP3    H148010   0.846   1.061   1.254 -0.8190  0.4834  0.8391
 8865TIP3    H248011   0.906   1.198   1.272 -0.2350  0.5855 -1.5952
 8866TIP3   OH248012   6.548   0.063  16.097 -0.1736 -0.8786 -0.6225
 8866TIP3    H148013   6.481   0.106  16.045  0.4044 -0.9383 -1.4466
 8866TIP3    H248014   6.626   0.063  16.041  0.4327 -1.0725  0.1884
 8867TIP3   OH248015   6.557   2.455  14.994  0.0407  0.3309  0.7830
 8867TIP3    H148016   6.595   2.535  14.959 -0.9806  0.2580 -0.6083
 8867TIP3    H248017   6.601   2.441  15.077  1.8182  1.1336  0.0249
 8868TIP3   OH248018   1.442   0.056  17.242 -0.2587 -0.0617 -0.4627
 8868TIP3    H148019   1.505   0.079  17.174  0.1017  1.8984  0.4757
 8868TIP3    H248020   1.359   0.092  17.212  0.0364  1.4190  0.3893
 8869TIP3   OH248021   4.028   1.113  12.140  0.1885 -1.2364  0.1399
 8869TIP3    H148022   4.020   1.188  12.081 -0.5174 -0.4833  1.1520
 8869TIP3    H248023   4.055   1.151  12.224  0.9088 -2.2526  0.3872
 8870TIP3   OH248024   6.140   2.313  11.976 -0.4405  0.2702  0.0568
 8870TIP3    H148025   6.229   2.346  11.960  0.3895 -0.1757  3.1948
 8870TIP3    H248026   6.138   2.294  12.070 -3.4318 -1.0992 -0.1897
 8871TIP3   OH248027   1.416   3.789   6.022 -0.2975 -0.0918  0.2808
 8871TIP3    H148028   1.433   3.739   6.102 -0.3897 -0.1578  0.2597
 8871TIP3    H248029   1.390   3.875   6.053 -0.8293 -0.2673  0.3379
 8872TIP3   OH248030   1.403   0.823  13.164  0.3420  0.2231 -0.2670
 8872TIP3    H148031   1.339   0.755  13.184 -0.5041  1.2002  0.4400
 8872TIP3    H248032   1.371   0.864  13.084 -0.7436  1.6353  0.8314
 8873TIP3   OH248033   1.618   5.539  17.197 -0.2048 -0.5500  0.6426
 8873TIP3    H148034   1.601   5.565  17.107 -0.8652 -2.0186  0.3024
 8873TIP3    H248035   1.621   5.443  17.194 -0.9500 -0.6666  2.2753
 8874TIP3   OH248036   1.557   2.976   4.534  0.3353  0.1091 -0.3251
 8874TIP3    H148037   1.505   3.030   4.474  0.0497  0.4572  0.2179
 8874TIP3    H248038   1.527   2.887   4.520 -1.6316  0.4743  1.1299
 8875TIP3   OH248039   0.469   3.942   4.099 -0.3863 -0.6527 -0.0517
 8875TIP3    H148040   0.498   3.895   4.021 -2.1969 -0.0852 -1.1515
 8875TIP3    H248041   0.544   3.995   4.125  0.4596 -1.3381 -1.0291
 8876TIP3   OH248042   0.554   5.824   5.678 -0.4430 -0.2271 -0.5322
 8876TIP3    H148043   0.563   5.843   5.771  0.2361  1.6728 -0.9560
 8876TIP3    H248044   0.464   5.793   5.668 -0.4549 -0.6573  0.7667
 8877TIP3   OH248045   4.225   4.355  15.475 -0.1295 -0.0978  0.2268
 8877TIP3    H148046   4.296   4.396  15.425 -0.1656 -0.2162  0.0763
 8877TIP3    H248047   4.224   4.401  15.559  0.5996 -0.5721  0.5064
 8878TIP3   OH248048   2.627   1.415  13.587  1.1403 -0.3474  0.1278
 8878TIP3    H148049   2.637   1.470  13.665 -1.5455  0.1062  0.2366
 8878TIP3    H248050   2.593   1.475  13.520  2.3297 -0.9864 -1.0946
 8879TIP3   OH248051   0.604   6.753  16.894 -0.2576  0.6005 -0.1073
 8879TIP3    H148052   0.645   6.784  16.814  0.2715 -0.1456 -0.1273
 8879TIP3    H248053   0.510   6.767  16.880 -0.4315 -1.7383 -1.8639
 8880TIP3   OH248054   5.692   0.982  12.849  0.7149 -0.4957 -0.0778
 8880TIP3    H148055   5.669   0.890  12.861  0.3578 -0.2671  1.1260
 8880TIP3    H248056   5.735   0.985  12.763  3.5095 -2.3204  1.1141
 8881TIP3   OH248057   1.045   4.761   3.380 -0.0675 -0.5192  0.3380
 8881TIP3    H148058   1.114   4.771   3.315  0.6999 -3.1892  0.6349
 8881TIP3    H248059   0.964   4.776   3.331  0.5960  0.1021 -0.6054
 8882TIP3   OH248060   1.929   4.820   3.099  0.2403 -0.0447  0.4302
 8882TIP3    H148061   1.868   4.797   3.029  1.3264  1.2609 -1.0113
 8882TIP3    H248062   2.013   4.784   3.070  0.3688 -1.1066  1.9865
 8883TIP3   OH248063   5.372   3.563  15.600 -0.4761  0.1745  0.1007
 8883TIP3    H148064   5.308   3.632  15.616 -1.1269  0.1183 -2.0097
 8883TIP3    H248065   5.331   3.506  15.536  0.8085 -1.1409  0.3951
 8884TIP3   OH248066   5.413   4.444  15.418 -0.0022 -0.3843  0.2365
 8884TIP3    H148067   5.403   4.484  15.504  1.2882 -2.3488  1.3611
 8884TIP3    H248068   5.354   4.495  15.361  1.1648  2.7449  1.6007
 8885TIP3   OH248069   4.358   4.441   6.294 -0.2715 -0.6005 -0.3893
 8885TIP3    H148070   4.448   4.448   6.264 -1.0688  0.0572 -2.9244
 8885TIP3    H248071   4.335   4.528   6.326  0.8061 -1.4757  3.2075
 8886TIP3   OH248072   4.497   2.732   0.928 -0.0745 -0.4054  0.2193
 8886TIP3    H148073   4.461   2.817   0.952 -0.5461 -0.5989  0.2140
 8886TIP3    H248074   4.539   2.746   0.844 -1.0766 -0.4120 -0.2960
 8887TIP3   OH248075   5.671   4.941   2.030  0.4894  0.0418 -0.1367
 8887TIP3    H148076   5.753   4.923   2.077  2.2395 -0.3899 -3.0779
 8887TIP3    H248077   5.652   4.860   1.983 -0.8972  0.5770 -0.5322
 8888TIP3   OH248078   0.932   6.571   1.661  0.0840 -0.4694 -0.1484
 8888TIP3    H148079   1.008   6.621   1.630  1.0749 -0.4632  2.1526
 8888TIP3    H248080   0.895   6.533   1.581  0.7438  1.9066 -1.7021
 8889TIP3   OH248081   0.952   2.071  13.639 -0.7084  0.1018  0.0984
 8889TIP3    H148082   0.860   2.081  13.665 -0.6200 -1.6043  1.2364
 8889TIP3    H248083   0.949   2.067  13.543 -1.7651  0.5008  0.1024
 8890TIP3   OH248084   1.630   0.815  14.785  0.4711  0.1444 -0.3072
 8890TIP3    H148085   1.577   0.777  14.856  1.8156  1.3048  1.3949
 8890TIP3    H248086   1.600   0.770  14.706 -0.9727 -1.3260  1.0091
 8891TIP3   OH248087   5.734   0.933   3.937 -0.0406 -0.1706 -0.1527
 8891TIP3    H148088   5.813   0.895   3.899 -1.5063 -2.6737 -0.9905
 8891TIP3    H248089   5.703   0.996   3.873  0.6475 -0.0039 -0.3298
 8892TIP3   OH248090   5.435   1.923  15.759  0.0231  0.2887 -0.0174
 8892TIP3    H148091   5.487   1.939  15.680 -0.7204  0.5666 -0.4577
 8892TIP3    H248092   5.363   1.986  15.754 -0.5347 -0.2977  0.4193
 8893TIP3   OH248093   2.492   4.800  13.331 -0.0128 -0.7784 -0.0624
 8893TIP3    H148094   2.400   4.805  13.358  0.0464 -0.9091  0.1744
 8893TIP3    H248095   2.529   4.886  13.354 -0.6358  0.1763 -2.3529
 8894TIP3   OH248096   1.262   4.841   5.519  0.3975 -0.0132  0.0692
 8894TIP3    H148097   1.193   4.899   5.550 -0.1466 -0.5241 -0.1742
 8894TIP3    H248098   1.334   4.900   5.494  0.4294  0.4604  1.2496
 8895TIP3   OH248099   1.599   0.768  15.513  0.3495 -0.4227 -0.3339
 8895TIP3    H148100   1.602   0.674  15.494 -0.8365 -0.6104  0.3031
 8895TIP3    H248101   1.548   0.806  15.442  0.4069 -0.3344 -0.3288
 8896TIP3   OH248102   4.761   6.371   4.211 -0.3929  0.4889  0.0711
 8896TIP3    H148103   4.733   6.335   4.296  0.5558 -0.8561 -0.1577
 8896TIP3    H248104   4.853   6.392   4.224  0.2290 -1.3027 -1.0736
 8897TIP3   OH248105   2.579   2.703   3.860  0.1114  0.2325 -0.6369
 8897TIP3    H148106   2.661   2.654   3.859  0.4897  0.7315 -3.7024
 8897TIP3    H248107   2.603   2.787   3.900  0.1417 -0.9189  1.9245
 8898TIP3   OH248108   2.611   0.888  14.266  0.2735 -0.3187  0.1589
 8898TIP3    H148109   2.683   0.911  14.325 -1.8384  1.4980  2.2379
 8898TIP3    H248110   2.549   0.841  14.322 -1.2316  0.2636 -0.9533
 8899TIP3   OH248111   3.241   2.595   2.826  0.4430 -0.5596  0.4491
 8899TIP3    H148112   3.256   2.617   2.918  0.1194 -1.5898  0.7693
 8899TIP3    H248113   3.277   2.668   2.777 -1.3246  1.0641  1.4506
 8900TIP3   OH248114   2.609   1.874   0.455  0.7516  0.8074  0.0496
 8900TIP3    H148115   2.613   1.829   0.540 -2.0323 -2.3249 -1.2606
 8900TIP3    H248116   2.700   1.873   0.424  1.1745 -2.3115  1.0052
 8901TIP3   OH248117   0.624   6.372   0.247 -0.3698 -0.6699 -0.2634
 8901TIP3    H148118   0.545   6.424   0.230 -0.7262 -0.7458  1.0401
 8901TIP3    H248119   0.594   6.281   0.243 -0.5689 -0.6871  1.0983
 8902TIP3   OH248120   4.591   1.847   3.614  0.4204 -0.1123 -0.2605
 8902TIP3    H148121   4.669   1.880   3.659 -0.1953  0.5038  0.3973
 8902TIP3    H248122   4.537   1.925   3.600 -0.7156 -0.7140  0.6088
 8903TIP3   OH248123   2.634   6.534   5.092 -0.0762  0.2678 -0.1021
 8903TIP3    H148124   2.695   6.590   5.044 -0.1733 -0.2811 -0.8741
 8903TIP3    H248125   2.675   6.524   5.179  0.1108  1.2352 -0.0658
 8904TIP3   OH248126   4.341   3.607  13.913  0.4605  0.6049 -0.0361
 8904TIP3    H148127   4.366   3.578  13.825  0.6527 -1.2153  0.5737
 8904TIP3    H248128   4.250   3.637  13.904 -0.7446 -2.7326 -0.2891
 8905TIP3   OH248129   1.657   0.317  14.586  0.2282  0.4585 -0.0288
 8905TIP3    H148130   1.712   0.240  14.575 -1.2612 -0.6018 -0.2651
 8905TIP3    H248131   1.568   0.283  14.591 -0.5896  2.2437 -1.3615
 8906TIP3   OH248132   4.167   4.908  16.648 -0.0962 -0.4794  0.2619
 8906TIP3    H148133   4.124   4.827  16.676 -0.6841  0.4541  2.2178
 8906TIP3    H248134   4.259   4.896  16.671 -0.5632  0.2668  2.8148
 8907TIP3   OH248135   3.592   3.362   2.628 -0.1240  0.2760 -0.7322
 8907TIP3    H148136   3.575   3.273   2.597 -0.6727 -0.3602  1.2532
 8907TIP3    H248137   3.660   3.353   2.694  0.3637  1.4472 -1.0448
 8908TIP3   OH248138   0.793   6.286  14.508 -0.7037 -0.1585 -0.2324
 8908TIP3    H148139   0.714   6.263  14.458 -0.0488 -2.3414 -0.3971
 8908TIP3    H248140   0.776   6.252  14.596  1.2034 -3.7834 -1.0424
 8909TIP3   OH248141   5.949   6.748   0.873  0.1584 -0.0167  0.2915
 8909TIP3    H148142   6.043   6.761   0.864  0.1208  0.5667  0.6780
 8909TIP3    H248143   5.930   6.670   0.821  1.2163 -1.5715  2.1181
 8910TIP3   OH248144   6.181   0.150  15.241 -0.1190 -0.8928  0.2141
 8910TIP3    H148145   6.188   0.055  15.245  2.1779 -0.7951 -0.0425
 8910TIP3    H248146   6.234   0.175  15.166 -1.2523  0.5681 -0.1472
 8911TIP3   OH248147   1.430   0.248  16.103  0.5331  0.0069  0.0561
 8911TIP3    H148148   1.356   0.306  16.123  0.1737 -0.6278  0.6323
 8911TIP3    H248149   1.428   0.182  16.173  1.5146 -0.1464 -0.0444
 8912TIP3   OH248150   0.385   3.362  12.315 -0.1245  0.3330 -0.3227
 8912TIP3    H148151   0.373   3.384  12.407 -2.0726  1.0928 -0.6995
 8912TIP3    H248152   0.473   3.394  12.293  0.2170  0.4624  1.1686
 8913TIP3   OH248153   0.044   4.588   3.656  0.1167  0.2367  0.2954
 8913TIP3    H148154   0.056   4.668   3.708 -0.1346 -0.2441  1.1080
 8913TIP3    H248155   0.114   4.529   3.685  0.1453  0.0691 -0.1154
 8914TIP3   OH248156   2.736   5.827   1.213 -0.1525 -0.0032 -0.4641
 8914TIP3    H148157   2.815   5.784   1.245  0.1749  0.5548 -0.5009
 8914TIP3    H248158   2.666   5.763   1.225  0.3185 -0.5252 -0.4897
 8915TIP3   OH248159   2.616   2.811   5.520  0.0850 -0.3251  0.3424
 8915TIP3    H148160   2.617   2.907   5.525 -0.1970 -0.3669  2.1103
 8915TIP3    H248161   2.677   2.790   5.450 -0.4373  1.1639 -0.6022
 8916TIP3   OH248162   2.190   5.074  14.960  0.1943 -0.7081 -0.7840
 8916TIP3    H148163   2.185   5.162  14.922 -1.4537 -0.9263 -1.1210
 8916TIP3    H248164   2.250   5.027  14.902  2.5981  0.6299  0.4205
 8917TIP3   OH248165   4.934   4.410   1.925  0.1021  0.3432 -0.3418
 8917TIP3    H148166   4.887   4.487   1.896 -1.4505 -0.6020 -0.4208
 8917TIP3    H248167   4.906   4.396   2.015  1.8557  0.9488  0.3521
 8918TIP3   OH248168   5.038   3.541  11.167  0.2285  0.0418 -0.0805
 8918TIP3    H148169   5.095   3.531  11.090  1.5676 -1.0746  0.9958
 8918TIP3    H248170   5.022   3.452  11.196 -0.3792  0.4454  0.8585
 8919TIP3   OH248171   0.419   0.464  11.301  0.0327 -0.3434 -0.0199
 8919TIP3    H148172   0.369   0.451  11.220  0.3233  0.5487 -0.3553
 8919TIP3    H248173   0.354   0.493  11.365 -0.0800 -0.3909 -0.1120
 8920TIP3   OH248174   1.705   3.840   5.811  0.3045  0.3509  0.0097
 8920TIP3    H148175   1.786   3.788   5.807 -0.1581 -0.5095  1.1956
 8920TIP3    H248176   1.696   3.864   5.903 -0.8530  0.3126 -0.0782
 8921TIP3   OH248177   0.241   4.214   4.846 -0.1685 -0.7678  0.4135
 8921TIP3    H148178   0.298   4.158   4.793  1.8473  0.8044  0.8027
 8921TIP3    H248179   0.259   4.187   4.937 -1.7203 -1.7127  0.4883
 8922TIP3   OH248180   4.420   1.594   2.532 -0.4569  0.2693  0.0362
 8922TIP3    H148181   4.491   1.659   2.530  2.3250 -2.4857  0.2335
 8922TIP3    H248182   4.404   1.573   2.440 -0.8132  0.6723  0.0041
 8923TIP3   OH248183   6.637   5.184  12.913  0.2210  0.5249 -0.5126
 8923TIP3    H148184   6.618   5.108  12.967  1.2783  0.4084 -0.2799
 8923TIP3    H248185   6.551   5.215  12.884 -0.2130 -0.9845 -0.9531
 8924TIP3   OH248186   0.373   5.558   3.588  0.0439 -0.4746 -0.3517
 8924TIP3    H148187   0.411   5.607   3.516  1.2657 -0.9350 -0.0462
 8924TIP3    H248188   0.295   5.516   3.550  0.2867 -0.1672 -1.2104
 8925TIP3   OH248189   4.416   3.916   3.755 -0.0399 -0.2554 -0.7610
 8925TIP3    H148190   4.374   3.839   3.716 -2.1376 -0.0116  0.8268
 8925TIP3    H248191   4.498   3.883   3.791 -0.2424 -1.4307 -1.3192
 8926TIP3   OH248192   3.521   5.983  16.940  0.1873 -0.3809 -0.2896
 8926TIP3    H148193   3.542   5.976  16.847 -0.8227  2.5533 -0.8459
 8926TIP3    H248194   3.477   5.901  16.962  0.2264 -1.0326 -2.4538
 8927TIP3   OH248195   5.802   6.014  16.850  0.4026  0.2736 -0.1655
 8927TIP3    H148196   5.880   5.966  16.879 -0.1204 -0.3094  0.2928
 8927TIP3    H248197   5.827   6.049  16.764  0.5992 -1.3632 -0.8305
 8928TIP3   OH248198   0.739   4.256   4.023  0.3064  0.3285 -0.4320
 8928TIP3    H148199   0.723   4.300   3.940  0.5762  1.1000 -0.0826
 8928TIP3    H248200   0.830   4.227   4.018 -0.3669 -1.8805 -1.4150
 8929TIP3   OH248201   5.601   1.543  16.320 -0.4807  0.1985 -0.2608
 8929TIP3    H148202   5.523   1.537  16.266  0.5865 -0.1353 -1.8486
 8929TIP3    H248203   5.573   1.515  16.407 -1.8623 -0.9977 -1.0570
 8930TIP3   OH248204   2.768   6.066  13.838  0.3515 -0.4032 -0.4280
 8930TIP3    H148205   2.814   6.135  13.886 -0.0347 -0.1172 -0.4698
 8930TIP3    H248206   2.803   6.071  13.749 -0.7852  0.7658 -0.8337
 8931TIP3   OH248207   2.457   5.287  11.972  0.1361  0.0667 -0.0561
 8931TIP3    H148208   2.389   5.222  11.989 -0.4013  0.6214 -0.0313
 8931TIP3    H248209   2.513   5.284  12.049 -1.1000  1.1109  0.9302
 8932TIP3   OH248210   4.710   3.154  16.563  0.0370 -0.5366 -0.5519
 8932TIP3    H148211   4.668   3.116  16.486 -0.5985  0.0410 -0.5064
 8932TIP3    H248212   4.774   3.089  16.590  0.4750 -0.6214 -1.7407
 8933TIP3   OH248213   2.474   0.357  16.280 -0.2268 -0.1710 -0.7526
 8933TIP3    H148214   2.503   0.270  16.254 -0.3274 -0.7444  0.9140
 8933TIP3    H248215   2.411   0.383  16.213  1.0963 -0.6250 -2.2093
 8934TIP3   OH248216   0.748   0.613  11.849 -0.5318 -0.9864  0.2150
 8934TIP3    H148217   0.774   0.701  11.879  0.1749 -1.1786  0.1763
 8934TIP3    H248218   0.666   0.595  11.896  0.1063 -0.9254  1.3842
 8935TIP3   OH248219   1.670   5.704   6.765  0.5687 -0.2999  0.1933
 8935TIP3    H148220   1.575   5.695   6.768  0.2860  1.7246 -0.8009
 8935TIP3    H248221   1.686   5.759   6.688  2.7410 -2.6743 -1.2026
 8936TIP3   OH248222   0.772   2.926  12.106 -0.2121 -0.0774 -0.0192
 8936TIP3    H148223   0.779   2.880  12.189  2.3777 -1.1618 -0.7458
 8936TIP3    H248224   0.829   3.003  12.115 -0.9180  0.5015 -0.3635
 8937TIP3   OH248225   1.669   1.265   6.574  0.3410  0.0183  0.0691
 8937TIP3    H148226   1.716   1.181   6.567 -1.1833 -0.8660  0.0484
 8937TIP3    H248227   1.668   1.299   6.485 -0.7368 -0.9270 -0.3012
 8938TIP3   OH248228   0.560   2.673   5.460 -0.0091 -1.1402 -1.0212
 8938TIP3    H148229   0.589   2.701   5.547  0.3874  0.0167 -1.4992
 8938TIP3    H248230   0.563   2.577   5.463  0.4935 -1.1043  0.0750
 8939TIP3   OH248231   6.319   3.848   1.581 -0.2078  0.3920 -0.3981
 8939TIP3    H148232   6.388   3.872   1.519  0.9946  1.1483  1.1621
 8939TIP3    H248233   6.307   3.927   1.635  1.1373 -1.1684  2.4137
 8940TIP3   OH248234   4.269   1.918   3.760 -0.4684 -0.3819 -0.6205
 8940TIP3    H148235   4.267   1.829   3.725  2.0456 -0.5291 -0.5360
 8940TIP3    H248236   4.241   1.973   3.687  2.0602 -0.9201 -2.0922
 8941TIP3   OH248237   5.486   5.099   3.558  0.0240 -0.8363 -0.7955
 8941TIP3    H148238   5.427   5.174   3.550 -1.7538 -1.8386  1.5603
 8941TIP3    H248239   5.573   5.137   3.567 -1.1005  1.3322  3.6691
 8942TIP3   OH248240   4.182   0.559  12.338  0.4537 -0.8752 -0.0154
 8942TIP3    H148241   4.267   0.573  12.381  0.3514 -2.2541  0.6885
 8942TIP3    H248242   4.122   0.618  12.385  0.8686 -0.4245 -0.0386
 8943TIP3   OH248243   2.145   6.128   1.828  0.4238  0.0753 -0.5522
 8943TIP3    H148244   2.149   6.035   1.849 -1.4344  0.4508  1.8784
 8943TIP3    H248245   2.232   6.162   1.848  0.3326 -0.6662  1.2637
 8944TIP3   OH248246   1.539   6.171  16.240  0.1443 -0.3961 -0.9425
 8944TIP3    H148247   1.610   6.207  16.293 -0.3184 -1.8108  0.7025
 8944TIP3    H248248   1.583   6.116  16.175  0.6131 -0.5084 -0.5364
 8945TIP3   OH248249   4.096   6.649  13.496 -0.5554 -0.3717  0.0793
 8945TIP3    H148250   4.109   6.735  13.538 -1.4079 -0.2848  0.1834
 8945TIP3    H248251   4.073   6.670  13.406  1.2599 -0.5588 -0.4787
 8946TIP3   OH248252   1.999   2.902   3.779  0.0799  0.3986 -0.4370
 8946TIP3    H148253   2.064   2.841   3.742  0.1993 -0.8035  1.6396
 8946TIP3    H248254   2.050   2.980   3.801  0.8579 -0.4881  1.0616
 8947TIP3   OH248255   2.370   5.951   3.903 -0.1130  0.0742 -0.2714
 8947TIP3    H148256   2.408   5.878   3.855  0.3958  1.3410 -1.8939
 8947TIP3    H248257   2.406   6.029   3.860 -0.7169  1.2834  1.3294
 8948TIP3   OH248258   2.940   3.216   4.198 -0.5541  0.0743 -0.3642
 8948TIP3    H148259   2.940   3.312   4.196 -1.9407  0.1324  0.6683
 8948TIP3    H248260   3.006   3.190   4.133  0.0657  1.7200 -0.4310
 8949TIP3   OH248261   4.343   4.763   0.997  0.1105  0.1882 -0.2274
 8949TIP3    H148262   4.263   4.745   1.046 -1.4898  2.9113 -1.5750
 8949TIP3    H248263   4.399   4.687   1.012 -2.8010 -1.9405  0.5781
 8950TIP3   OH248264   6.164   2.823   3.290  0.1636  0.0570  0.5271
 8950TIP3    H148265   6.149   2.886   3.220  0.3182  0.0796  0.5130
 8950TIP3    H248266   6.250   2.785   3.269 -0.9637 -1.9431 -0.8516
 8951TIP3   OH248267   2.888   5.248  11.604 -0.1769 -0.1719  0.5942
 8951TIP3    H148268   2.981   5.259  11.621 -0.0769  1.2092 -0.6728
 8951TIP3    H248269   2.884   5.218  11.513 -1.0049  1.4771  0.0503
 8952TIP3   OH248270   4.117   3.964   2.004  0.0426 -0.1171 -0.5692
 8952TIP3    H148271   4.194   3.954   2.059 -0.9229 -0.3208  0.7829
 8952TIP3    H248272   4.063   3.887   2.021  0.6959 -1.3771 -3.5146
 8953TIP3   OH248273   1.195   5.935   6.236  0.4824 -0.4333  0.1067
 8953TIP3    H148274   1.208   5.842   6.216  0.4553 -0.2818 -0.6266
 8953TIP3    H248275   1.154   5.935   6.323 -1.1474 -1.1868 -0.6202
 8954TIP3   OH248276   6.281   5.069   1.175 -0.2154  0.1010 -0.1039
 8954TIP3    H148277   6.309   5.160   1.179  0.8933 -0.2390  0.5161
 8954TIP3    H248278   6.335   5.025   1.241 -2.5992 -0.5296  1.5684
 8955TIP3   OH248279   1.658   0.286   2.728 -0.4890 -0.4071 -0.1363
 8955TIP3    H148280   1.628   0.311   2.815  1.2056 -1.4056  0.8031
 8955TIP3    H248281   1.702   0.202   2.741  1.2416  0.1855 -1.6277
 8956TIP3   OH248282   2.338   4.782   2.659 -0.2950 -0.1581 -0.5286
 8956TIP3    H148283   2.381   4.772   2.574  0.1564 -0.7498 -0.2440
 8956TIP3    H248284   2.361   4.871   2.687 -0.3915  0.0147 -0.9929
 8957TIP3   OH248285   0.571   2.505  16.186 -0.1037 -0.0528  0.3339
 8957TIP3    H148286   0.543   2.424  16.143  0.9491 -0.7586  0.9259
 8957TIP3    H248287   0.660   2.486  16.217 -0.5816  0.6278  2.2429
 8958TIP3   OH248288   0.082   5.867   0.228 -0.1297 -0.1635  0.0083
 8958TIP3    H148289   0.168   5.898   0.256 -2.2032  3.0163  4.1275
 8958TIP3    H248290   0.087   5.772   0.233  3.5327 -0.2610 -1.9673
 8959TIP3   OH248291   2.636   3.546   1.466  1.0407  0.3119 -0.3128
 8959TIP3    H148292   2.658   3.638   1.481  1.4124  0.3396 -0.9901
 8959TIP3    H248293   2.557   3.532   1.518  1.1851  0.9145  0.0845
 8960TIP3   OH248294   2.622   1.896  16.846 -0.1593 -0.0367 -0.0575
 8960TIP3    H148295   2.635   1.830  16.914 -0.0987 -0.3666 -0.3897
 8960TIP3    H248296   2.538   1.873  16.806  0.6502 -0.9349 -1.3024
 8961TIP3   OH248297   6.338   0.180   4.015  0.3680 -0.3031 -0.0316
 8961TIP3    H148298   6.316   0.229   4.095  0.1922  0.3274 -0.4519
 8961TIP3    H248299   6.366   0.248   3.953  2.9205 -1.0019  0.2522
 8962TIP3   OH248300   5.893   5.541   4.199  0.0100  0.3092 -0.3850
 8962TIP3    H148301   5.816   5.517   4.250 -0.8697  1.2056 -1.2591
 8962TIP3    H248302   5.871   5.516   4.109  1.0760 -0.1753 -0.5290
 8963TIP3   OH248303   0.805   0.258   2.753 -0.0099 -0.0529 -0.6499
 8963TIP3    H148304   0.789   0.170   2.786 -1.7398  0.7518  0.8523
 8963TIP3    H248305   0.724   0.282   2.708  0.0748  1.0828 -0.2417
 8964TIP3   OH248306   3.170   3.622  17.194 -0.0760  0.0981  0.1402
 8964TIP3    H148307   3.117   3.549  17.225 -0.4300  0.0775 -0.4849
 8964TIP3    H248308   3.182   3.604  17.100  0.3208  0.5425  0.1012
 8965TIP3   OH248309   4.144   6.177   0.667 -0.1143 -0.0357  0.8478
 8965TIP3    H148310   4.198   6.171   0.746 -0.7919 -1.2090  1.2562
 8965TIP3    H248311   4.144   6.088   0.631 -0.7381  0.2312  0.1539
 8966TIP3   OH248312   1.247   2.091   4.745 -0.8391  0.1559 -0.3738
 8966TIP3    H148313   1.333   2.066   4.712 -1.2778 -0.6258 -0.9473
 8966TIP3    H248314   1.244   2.056   4.834 -0.8736 -0.5457 -0.6453
 8967TIP3   OH248315   3.606   3.064  13.679 -0.7507 -0.7477  0.0258
 8967TIP3    H148316   3.644   3.152  13.680 -0.9213 -0.6812  0.3829
 8967TIP3    H248317   3.681   3.006  13.692 -0.8607 -0.5848  1.4992
 8968TIP3   OH248318   4.275   6.065   1.455 -0.0187 -0.9044  0.2324
 8968TIP3    H148319   4.278   6.161   1.460 -1.7706 -0.8047 -0.1838
 8968TIP3    H248320   4.299   6.036   1.543 -0.1513 -0.0745  0.5539
 8969TIP3   OH248321   0.393   6.224   2.706  0.5907 -0.0862 -0.1114
 8969TIP3    H148322   0.316   6.264   2.747  1.0047  1.6849 -1.0091
 8969TIP3    H248323   0.453   6.209   2.779 -0.4347 -1.1818  0.5494
 8970TIP3   OH248324   1.970   2.927  15.659  0.3033 -0.1191 -0.3480
 8970TIP3    H148325   1.958   2.853  15.718  0.4219  0.8861  0.9713
 8970TIP3    H248326   1.905   2.914  15.590  0.0144 -1.1954  0.1203
 8971TIP3   OH248327   3.581   1.447   1.834 -0.1027  0.3668  0.0626
 8971TIP3    H148328   3.515   1.379   1.823  1.0385 -0.9976  1.2203
 8971TIP3    H248329   3.532   1.529   1.830 -1.5566 -0.5038 -1.1752
 8972TIP3   OH248330   2.029   1.982   1.390  0.4150  0.1539 -0.3756
 8972TIP3    H148331   1.967   1.930   1.339 -0.2772 -0.5304  1.0902
 8972TIP3    H248332   2.036   1.936   1.473  0.9699  1.5932  0.4145
 8973TIP3   OH248333   0.315   4.586   3.465 -0.6033 -0.3154 -0.5036
 8973TIP3    H148334   0.318   4.666   3.413  1.1254  1.1323  1.6156
 8973TIP3    H248335   0.223   4.580   3.494 -1.0401  0.1623 -1.7370
 8974TIP3   OH248336   5.754   1.288  14.879  0.1417 -0.1311 -0.2721
 8974TIP3    H148337   5.743   1.351  14.807  0.2125  1.8490  1.3704
 8974TIP3    H248338   5.841   1.307  14.914 -0.1171 -0.6845  0.6985
 8975TIP3   OH248339   4.641   5.712   0.922  0.2689 -0.3603 -0.4337
 8975TIP3    H148340   4.555   5.675   0.904  0.6482 -0.7412 -1.5187
 8975TIP3    H248341   4.647   5.788   0.864  1.1099 -1.0090 -1.2175
 8976TIP3   OH248342   2.415   2.869  14.939 -0.4238 -0.0738 -0.8368
 8976TIP3    H148343   2.395   2.945  14.883 -0.8655 -0.0289 -0.6253
 8976TIP3    H248344   2.349   2.873  15.008  0.8637  0.5887  0.4089
 8977TIP3   OH248345   0.113   2.152   4.471 -0.1115 -0.6798 -0.1247
 8977TIP3    H148346   0.107   2.247   4.465  0.4171 -0.4470  2.1235
 8977TIP3    H248347   0.195   2.130   4.426  2.3720  0.5463  3.3882
 8978TIP3   OH248348   0.339   1.761   2.635 -0.7745 -0.8419 -0.5111
 8978TIP3    H148349   0.409   1.778   2.698 -1.5563 -0.4474  0.2834
 8978TIP3    H248350   0.379   1.706   2.568  0.9018  1.1035 -1.2324
 8979TIP3   OH248351   5.893   6.432  11.003 -0.0500  0.5490 -0.1413
 8979TIP3    H148352   5.802   6.428  11.032  0.7838 -0.7160  2.7225
 8979TIP3    H248353   5.920   6.341  10.996  1.5010  0.8690  1.0928
 8980TIP3   OH248354   3.072   2.527  12.964  0.4852  0.1059  0.2746
 8980TIP3    H148355   3.074   2.622  12.952 -1.3521  0.2751  0.9358
 8980TIP3    H248356   3.117   2.512  13.047  0.6108  0.4161  0.2630
 8981TIP3   OH248357   0.904   5.707   3.399 -0.4479  0.2098 -0.6650
 8981TIP3    H148358   0.836   5.698   3.333 -1.6908 -1.6937  0.7905
 8981TIP3    H248359   0.857   5.723   3.481  1.0420  2.3653 -0.1213
 8982TIP3   OH248360   5.801   2.529  11.107 -1.1541 -0.1176  0.4741
 8982TIP3    H148361   5.727   2.589  11.100 -0.7405  0.1568 -2.7304
 8982TIP3    H248362   5.834   2.519  11.018  1.5610 -1.6813  1.5094
 8983TIP3   OH248363   3.624   5.107   5.808  0.2989  0.2588 -0.1612
 8983TIP3    H148364   3.555   5.169   5.830  0.3578  0.3935 -0.3487
 8983TIP3    H248365   3.643   5.061   5.890 -0.0034  0.2301 -0.1060
 8984TIP3   OH248366   5.432   6.448   5.532 -0.4858 -0.4032 -0.1531
 8984TIP3    H148367   5.411   6.434   5.440 -0.3888 -0.4800 -0.1638
 8984TIP3    H248368   5.513   6.399   5.546 -0.6792 -0.6684  0.0560
 8985TIP3   OH248369   2.204   4.521   3.715 -0.0157 -0.1393  0.4763
 8985TIP3    H148370   2.287   4.551   3.679 -0.7530  1.9022  0.3727
 8985TIP3    H248371   2.161   4.475   3.643 -0.3471  1.6485 -0.5261
 8986TIP3   OH248372   2.839   5.657   2.741  0.0792 -0.2360  0.2570
 8986TIP3    H148373   2.853   5.699   2.825 -1.3806  0.0414  0.3914
 8986TIP3    H248374   2.912   5.687   2.686 -0.1286  1.3143  0.7839
 8987TIP3   OH248375   2.209   2.497  12.717  0.4149  0.0339 -0.4643
 8987TIP3    H148376   2.134   2.525  12.666  1.3890  2.4304 -0.7296
 8987TIP3    H248377   2.217   2.563  12.786  1.9635 -0.4723 -0.1159
 8988TIP3   OH248378   2.224   4.256   3.290 -0.1752  0.0311 -0.0106
 8988TIP3    H148379   2.154   4.198   3.260  0.8902 -1.2335 -0.1146
 8988TIP3    H248380   2.248   4.307   3.213 -0.0471 -0.5010 -0.3235
 8989TIP3   OH248381   4.608   4.452   3.278 -0.2074 -0.2610  0.1439
 8989TIP3    H148382   4.548   4.520   3.310  0.1823 -0.0602  0.4533
 8989TIP3    H248383   4.694   4.494   3.277 -0.3045 -0.0134 -1.8961
 8990TIP3   OH248384   1.758   0.264   2.328  0.0066 -0.4574 -0.5437
 8990TIP3    H148385   1.738   0.196   2.392  0.6512 -0.9970 -0.8983
 8990TIP3    H248386   1.807   0.330   2.378 -0.6686 -0.2191 -0.1871
 8991TIP3   OH248387   3.177   3.134  14.727  0.4118  0.1975 -0.1530
 8991TIP3    H148388   3.166   3.102  14.638  0.0266  0.4585 -0.2064
 8991TIP3    H248389   3.111   3.086  14.778 -0.0804  0.7864 -0.2102
 8992TIP3   OH248390   1.442   2.557   1.880  0.2386  0.2328  0.0457
 8992TIP3    H148391   1.509   2.623   1.897  0.9166 -0.2051 -0.8412
 8992TIP3    H248392   1.360   2.607   1.875  0.8733  1.1859 -1.7060
 8993TIP3   OH248393   2.609   4.890   1.024 -0.2219 -0.3395 -0.0112
 8993TIP3    H148394   2.537   4.929   0.975  0.5010  0.7708 -0.2403
 8993TIP3    H248395   2.566   4.838   1.093 -1.2487  0.8499  0.2866
 8994TIP3   OH248396   4.982   4.326  14.814  0.9621 -0.3621  0.5023
 8994TIP3    H148397   5.055   4.266  14.801  0.3815 -1.1967  0.9717
 8994TIP3    H248398   4.905   4.276  14.788  0.3689 -0.1459  1.7413
 8995TIP3   OH248399   4.070   1.410   2.958  0.2793  0.8451 -0.3756
 8995TIP3    H148400   4.101   1.479   3.018  1.7668 -1.1736  1.3036
 8995TIP3    H248401   4.147   1.386   2.907  0.0007 -0.1542 -0.3403
 8996TIP3   OH248402   0.644   1.147  13.954 -0.0649  0.0458 -0.1954
 8996TIP3    H148403   0.582   1.154  13.882 -0.5248 -0.6762  0.1250
 8996TIP3    H248404   0.609   1.205  14.022  1.5378  2.5463 -1.3184
 8997TIP3   OH248405   3.806   0.885   0.912 -0.1161  0.0851 -0.2504
 8997TIP3    H148406   3.797   0.970   0.870  0.4728  0.7595  0.9452
 8997TIP3    H248407   3.812   0.905   1.006 -0.8814 -1.3339  0.1327
 8998TIP3   OH248408   3.988   3.514  12.319 -0.0564 -0.3738 -0.3057
 8998TIP3    H148409   3.959   3.445  12.259  0.6132 -0.7130 -0.2453
 8998TIP3    H248410   4.028   3.467  12.391 -0.7426  0.0396  0.3587
 8999TIP3   OH248411   3.801   6.745  16.195 -0.3003 -0.2083 -0.3101
 8999TIP3    H148412   3.874   6.805  16.184 -0.1480 -0.2741  0.2858
 8999TIP3    H248413   3.782   6.747  16.289 -1.1549 -0.0892 -0.4791
 9000TIP3   OH248414   6.426   6.524  14.899  0.1149  0.2572 -0.2378
 9000TIP3    H148415   6.521   6.520  14.888  0.3519  3.3802 -0.1412
 9000TIP3    H248416   6.391   6.510  14.812  0.9137  2.8059 -1.0447
 9001TIP3   OH248417   2.604   1.946   4.981 -0.6543 -0.0603 -0.0798
 9001TIP3    H148418   2.591   1.879   5.048 -2.3368 -0.0672 -0.3600
 9001TIP3    H248419   2.691   1.982   4.999 -0.4070 -1.1746  1.0909
 9002TIP3   OH248420   6.657   2.307   6.060 -0.2206  0.3572  0.1556
 9002TIP3    H148421   6.747   2.339   6.069  0.4061 -1.1173 -0.4701
 9002TIP3    H248422   6.638   2.315   5.967 -0.6604  0.4203  0.2474
 9003TIP3   OH248423   6.047   2.856   5.368  0.7062  0.2649  0.2196
 9003TIP3    H148424   6.062   2.950   5.373  0.0284  0.5097 -1.6022
 9003TIP3    H248425   5.984   2.845   5.297  0.3385 -1.5249  0.7689
 9004TIP3   OH248426   3.762   2.119   4.108 -0.0881 -0.6333 -0.1448
 9004TIP3    H148427   3.790   2.210   4.099  1.1626 -1.0451 -0.6258
 9004TIP3    H248428   3.729   2.095   4.021 -0.6173 -0.5852  0.0373
 9005TIP3   OH248429   6.715   5.676   6.966 -0.0883 -0.1608 -0.1169
 9005TIP3    H148430   6.793   5.684   7.021 -1.7136  1.0338  2.1903
 9005TIP3    H248431   6.748   5.640   6.884  2.3762 -3.3612  1.9802
 9006TIP3   OH248432   2.245   4.985   4.439  0.0629 -0.4051  0.2054
 9006TIP3    H148433   2.229   4.945   4.353  1.2466 -0.2724 -0.0989
 9006TIP3    H248434   2.194   5.065   4.438  0.5619 -0.0863 -0.6387
 9007TIP3   OH248435   6.169   3.211  14.664 -0.3514  0.1563 -0.4893
 9007TIP3    H148436   6.146   3.177  14.578 -1.2664 -1.8748  0.4932
 9007TIP3    H248437   6.156   3.137  14.724 -0.2718  1.6447  1.4808
 9008TIP3   OH248438   2.624   0.219   0.699 -0.5107 -0.4880  0.6971
 9008TIP3    H148439   2.628   0.184   0.610  0.7358 -1.8430  1.2364
 9008TIP3    H248440   2.700   0.276   0.707 -0.4683 -0.5745  0.9567
 9009TIP3   OH248441   6.515   3.793  11.185 -0.1782  0.2705 -0.6915
 9009TIP3    H148442   6.602   3.801  11.224  0.0373  1.1847 -1.3201
 9009TIP3    H248443   6.458   3.767  11.257  0.0646  2.6167  0.4525
 9010TIP3   OH248444   3.512   0.462   5.206 -0.3150 -0.4092 -0.6357
 9010TIP3    H148445   3.421   0.478   5.232 -0.8568 -2.6694 -0.8690
 9010TIP3    H248446   3.562   0.531   5.249 -1.8637 -0.5449  1.5534
 9011TIP3   OH248447   2.015   1.431  14.717  0.3376  0.3249 -0.1124
 9011TIP3    H148448   2.054   1.458  14.634  1.7405 -2.5130 -0.5033
 9011TIP3    H248449   2.090   1.417  14.775 -0.3992 -0.9739  0.5556
 9012TIP3   OH248450   2.646   6.531  16.479  0.1875 -0.3411  0.0101
 9012TIP3    H148451   2.698   6.581  16.542  1.6183 -1.7833  0.0506
 9012TIP3    H248452   2.581   6.593  16.447  1.6230  1.4150  0.3231
 9013TIP3   OH248453   4.955   1.828   2.271  0.1859 -0.3227  0.2165
 9013TIP3    H148454   4.929   1.784   2.190  0.2981 -0.1071  0.0614
 9013TIP3    H248455   4.887   1.894   2.286  0.7959  0.4677 -0.3709
 9014TIP3   OH248456   1.815   5.175   3.918  0.6809 -0.2431  0.0576
 9014TIP3    H148457   1.899   5.214   3.941 -0.5591  1.8162  1.5604
 9014TIP3    H248458   1.782   5.229   3.846  0.0145 -0.0608  0.4878
 9015TIP3   OH248459   2.282   4.321   1.762 -0.0126  0.0350 -0.3500
 9015TIP3    H148460   2.321   4.234   1.765  1.0632  0.5249  0.6394
 9015TIP3    H248461   2.304   4.355   1.675  1.6952  0.2402  0.1268
 9016TIP3   OH248462   6.760   2.471   2.014  0.1156 -0.2881  0.5118
 9016TIP3    H148463   6.705   2.498   2.087  1.0720 -0.3922  1.2985
 9016TIP3    H248464   6.700   2.464   1.939 -0.7554  0.4950  1.1189
 9017TIP3   OH248465   5.085   0.081  16.268 -0.3496  0.5998  0.7558
 9017TIP3    H148466   5.043   0.008  16.222 -0.2541  0.8671  0.2313
 9017TIP3    H248467   5.178   0.072  16.247 -0.3944  1.1477  0.2753
 9018TIP3   OH248468   1.620   1.218   5.455  0.2961  0.2767 -0.4269
 9018TIP3    H148469   1.665   1.246   5.375 -1.0438  1.2960 -0.8463
 9018TIP3    H248470   1.543   1.170   5.424  0.1588  0.0278  0.2785
 9019TIP3   OH248471   6.344   0.197   1.878  0.2373  0.2761 -0.0635
 9019TIP3    H148472   6.370   0.284   1.907  0.0734  0.5709 -0.7722
 9019TIP3    H248473   6.406   0.138   1.919 -0.1686  0.6430  1.1195
 9020TIP3   OH248474   1.515   1.449   5.136  0.1359 -0.2601 -0.3780
 9020TIP3    H148475   1.547   1.533   5.170 -1.7282  0.3069  0.0829
 9020TIP3    H248476   1.580   1.385   5.165  0.6568  0.7810  0.8514
 9021TIP3   OH248477   3.614   3.325   0.678  0.2127  0.6475 -0.5712
 9021TIP3    H148478   3.534   3.318   0.625 -0.6473  0.0453  0.7707
 9021TIP3    H248479   3.623   3.419   0.694 -1.0698  0.6122  0.4935
 9022TIP3   OH248480   5.897   4.422   2.358  0.5876 -0.3144 -0.1680
 9022TIP3    H148481   5.982   4.401   2.397  0.5828 -1.1391 -0.5591
 9022TIP3    H248482   5.917   4.488   2.291  0.7227  0.4463  0.6060
 9023TIP3   OH248483   1.802   3.801   3.478 -0.1038 -0.1015 -0.1088
 9023TIP3    H148484   1.715   3.802   3.518 -0.2415  1.2234 -0.4054
 9023TIP3    H248485   1.792   3.849   3.396  0.5321 -1.4438 -1.0019
 9024TIP3   OH248486   2.681   2.146   1.105 -0.1583 -0.1840  0.0263
 9024TIP3    H148487   2.694   2.171   1.197 -1.3240 -2.4423  0.8938
 9024TIP3    H248488   2.631   2.218   1.068 -1.3152 -0.0423  1.7166
 9025TIP3   OH248489   2.012   6.596   6.095 -0.1848 -0.1034 -0.0259
 9025TIP3    H148490   1.987   6.656   6.165 -1.7507 -1.7163  0.8688
 9025TIP3    H248491   2.085   6.640   6.051  0.3293  1.3252  2.0944
 9026TIP3   OH248492   6.286   2.153   2.859  0.2474 -0.1473 -0.7646
 9026TIP3    H148493   6.210   2.124   2.809  0.1927  1.1610 -1.4919
 9026TIP3    H248494   6.360   2.104   2.822 -0.1929 -1.2853 -0.1805
 9027TIP3   OH248495   3.124   1.581   3.909 -0.0314  0.3775  0.2111
 9027TIP3    H148496   3.146   1.603   3.818 -0.3736  0.5716  0.1755
 9027TIP3    H248497   3.138   1.662   3.958  0.2523  0.2464  0.3527
 9028TIP3   OH248498   4.316   3.867   2.156  0.2609 -0.0500  0.2525
 9028TIP3    H148499   4.370   3.788   2.159  1.1607  0.5624  1.0160
 9028TIP3    H248500   4.252   3.855   2.225 -0.1646 -0.4875 -0.2114
 9029TIP3   OH248501   3.054   0.308   2.597 -0.0467  0.0736 -0.0107
 9029TIP3    H148502   2.993   0.357   2.541 -0.2906 -0.5415 -0.2934
 9029TIP3    H248503   2.997   0.259   2.656  0.1052 -1.7310 -1.3009
 9030TIP3   OH248504   6.392   6.673  11.017 -0.5272 -0.1658  0.0332
 9030TIP3    H148505   6.469   6.714  10.975 -0.1829 -1.3054 -0.5006
 9030TIP3    H248506   6.429   6.599  11.066 -1.2937 -0.8692 -0.4236
 9031TIP3   OH248507   6.695   4.758  17.206  0.3276 -0.3996  0.2845
 9031TIP3    H148508   6.614   4.755  17.154  1.1457  0.7406 -1.1225
 9031TIP3    H248509   6.758   4.803  17.150  1.4489  0.3187  2.0308
 9032TIP3   OH248510   1.626   0.482   6.040 -0.4664  0.0596 -0.5310
 9032TIP3    H148511   1.700   0.529   6.003 -1.8603  0.5583 -2.8835
 9032TIP3    H248512   1.575   0.549   6.086 -0.0921 -0.0638  0.0769
 9033TIP3   OH248513   1.556   0.522   4.755  0.0489 -0.1343  0.7482
 9033TIP3    H148514   1.492   0.472   4.805 -0.5094 -0.6164 -0.3931
 9033TIP3    H248515   1.593   0.458   4.693  0.2923  0.5601  0.1621
 9034TIP3   OH248516   3.556   0.852  13.008 -0.2568 -0.0544 -0.4274
 9034TIP3    H148517   3.531   0.878  13.096 -1.7044  0.9245 -1.0953
 9034TIP3    H248518   3.514   0.767  12.995 -1.4712  0.5716 -0.7478
 9035TIP3   OH248519   1.785   2.734   3.217 -0.1299 -0.5635 -0.3585
 9035TIP3    H148520   1.750   2.731   3.306 -0.9811 -0.1867 -0.6691
 9035TIP3    H248521   1.808   2.825   3.202  3.6692 -1.1622  0.7995
 9036TIP3   OH248522   5.825   1.435   5.358  0.0236 -0.2324  1.0584
 9036TIP3    H148523   5.820   1.435   5.453 -1.7109 -0.5512  0.9997
 9036TIP3    H248524   5.903   1.486   5.337 -1.5730  3.0889  2.5592
 9037TIP3   OH248525   2.652   6.208   2.238 -0.1931 -0.0776 -0.1822
 9037TIP3    H148526   2.623   6.147   2.170 -1.9338 -0.2724  0.6598
 9037TIP3    H248527   2.657   6.154   2.317 -1.0947  0.6962  0.4321
 9038TIP3   OH248528   4.310   2.700  15.925  0.1508  0.2659  0.5593
 9038TIP3    H148529   4.292   2.637  15.855  0.4198  0.2646  0.4896
 9038TIP3    H248530   4.226   2.710  15.970 -0.2884  1.0403 -0.3966
 9039TIP3   OH248531   0.969   3.226  13.756 -0.5561  0.2760 -0.0963
 9039TIP3    H148532   0.888   3.262  13.792 -0.9647  1.1775 -1.7675
 9039TIP3    H248533   1.035   3.291  13.778 -0.4665 -0.0172  0.4969
 9040TIP3   OH248534   5.202   4.665   4.277 -0.6944  0.0597 -0.2170
 9040TIP3    H148535   5.263   4.598   4.246  1.5631  2.0937 -0.3479
 9040TIP3    H248536   5.170   4.707   4.197 -1.2824 -0.1050 -0.0787
 9041TIP3   OH248537   4.357   2.742  13.740 -0.4032 -0.3127  0.7379
 9041TIP3    H148538   4.329   2.651  13.748  0.8581 -0.6173  2.1299
 9041TIP3    H248539   4.426   2.741  13.674 -2.1909  0.1350 -1.2733
 9042TIP3   OH248540   3.929   0.307   1.712  0.4292  0.3464  0.2875
 9042TIP3    H148541   3.898   0.274   1.796 -1.4762 -0.9688 -0.8570
 9042TIP3    H248542   3.949   0.400   1.728 -0.8200  0.3670  1.9490
 9043TIP3   OH248543   0.214   4.639   1.219 -0.1330  0.4945 -0.3357
 9043TIP3    H148544   0.239   4.606   1.306  1.6863  1.9107 -0.2656
 9043TIP3    H248545   0.121   4.618   1.211 -0.0645 -0.7071  1.4622
 9044TIP3   OH248546   4.728   3.161   3.245 -0.1123  0.0269  0.0744
 9044TIP3    H148547   4.644   3.201   3.266  0.7319  2.3500 -0.6741
 9044TIP3    H248548   4.762   3.212   3.172  1.3112 -1.7849 -0.6085
 9045TIP3   OH248549   3.254   4.197  16.547 -0.0052 -0.0912  0.2397
 9045TIP3    H148550   3.234   4.104  16.563  0.0630 -0.2036 -0.3193
 9045TIP3    H248551   3.204   4.244  16.614 -2.1802 -0.3734 -1.0813
 9046TIP3   OH248552   3.142   1.982   5.774  0.4115  0.1423  0.0958
 9046TIP3    H148553   3.150   1.980   5.679  0.9064  0.9086  0.1093
 9046TIP3    H248554   3.061   2.031   5.791  0.1319 -0.3098  0.0642
 9047TIP3   OH248555   1.259   1.224  15.161 -0.1790 -0.0718 -0.3127
 9047TIP3    H148556   1.191   1.210  15.228 -1.4079 -0.1576 -1.5408
 9047TIP3    H248557   1.269   1.139  15.119  0.2741  0.0850 -0.5258
 9048TIP3   OH248558   4.102   0.273  13.992  0.0063 -0.5556  0.0286
 9048TIP3    H148559   4.016   0.273  13.951 -0.0092 -1.7479  0.0351
 9048TIP3    H248560   4.153   0.337  13.941 -0.6363 -0.4472 -0.4851
 9049TIP3   OH248561   6.232   6.713   4.090  0.5596 -0.2670  0.0435
 9049TIP3    H148562   6.300   6.707   4.157  0.9510  1.7069 -0.1195
 9049TIP3    H248563   6.248   6.796   4.046  0.1876 -1.4004 -2.4106
 9050TIP3   OH248564   3.980   5.320   4.141  0.3462 -0.8271 -0.0366
 9050TIP3    H148565   3.965   5.373   4.220  1.3342 -0.5520 -0.0233
 9050TIP3    H248566   4.058   5.359   4.101  0.8855 -2.0505 -0.2105
 9051TIP3   OH248567   1.156   1.061  14.741  0.0604 -0.5069  0.2942
 9051TIP3    H148568   1.218   0.988  14.733  1.5561  0.7730 -0.3711
 9051TIP3    H248569   1.132   1.082  14.651 -1.2003 -0.8400  0.5358
 9052TIP3   OH248570   2.495   5.284   5.124  0.1788  0.1315  0.1767
 9052TIP3    H148571   2.572   5.339   5.140  0.1624 -0.2636  1.7906
 9052TIP3    H248572   2.433   5.309   5.193  0.1435 -1.8461  0.9154
 9053TIP3   OH248573   6.050   5.411  13.743 -0.1836  0.0493  0.8396
 9053TIP3    H148574   6.139   5.410  13.707 -0.5232  2.3481 -0.2661
 9053TIP3    H248575   6.061   5.443  13.833  0.0603  1.4819  0.3337
 9054TIP3   OH248576   3.312   5.929   2.243 -0.9378 -0.0066  0.2617
 9054TIP3    H148577   3.272   6.015   2.256 -1.6146 -0.3457  0.4547
 9054TIP3    H248578   3.406   5.948   2.235 -0.8472  0.5793  2.2105
 9055TIP3   OH248579   1.836   5.288  16.673 -0.1432  0.7309 -0.7145
 9055TIP3    H148580   1.917   5.325  16.709  0.1754  0.4526 -1.1281
 9055TIP3    H248581   1.861   5.201  16.641 -0.7600  0.3710 -0.2445
 9056TIP3   OH248582   5.097   3.743  13.077 -0.1946  0.6098  0.6466
 9056TIP3    H148583   5.131   3.758  13.165 -0.3975  0.1085  0.8114
 9056TIP3    H248584   5.173   3.752  13.020 -0.0371  0.8018  0.8857
 9057TIP3   OH248585   0.692   0.762  15.847 -0.0223  0.0875  0.0452
 9057TIP3    H148586   0.649   0.677  15.859  0.8011 -0.3619 -0.1044
 9057TIP3    H248587   0.621   0.822  15.826 -0.6215 -0.5626  0.1842
 9058TIP3   OH248588   5.685   0.415   5.961 -0.0494  0.0038 -0.2895
 9058TIP3    H148589   5.642   0.348   5.909  0.8240  0.3435 -1.5054
 9058TIP3    H248590   5.750   0.368   6.013  0.3102 -0.1477 -0.8667
 9059TIP3   OH248591   5.410   2.583   0.809 -0.4452 -0.2038  0.6823
 9059TIP3    H148592   5.357   2.631   0.745  0.3040  0.3204  0.4432
 9059TIP3    H248593   5.476   2.538   0.756 -0.8453 -1.1335  0.9489
 9060TIP3   OH248594   1.636   2.297  13.955  0.2345 -0.3030 -0.1512
 9060TIP3    H148595   1.658   2.204  13.968 -0.1495 -0.4734 -0.7059
 9060TIP3    H248596   1.541   2.299  13.961  0.2664  0.1298  0.2769
 9061TIP3   OH248597   6.359   2.919  16.974 -0.2386  0.0586  0.1503
 9061TIP3    H148598   6.266   2.901  16.988 -0.7981  1.5833 -1.2803
 9061TIP3    H248599   6.369   2.920  16.878  1.7195 -2.1461  0.2421
 9062TIP3   OH248600   1.412   3.515  12.274 -0.0607 -0.4999 -0.1889
 9062TIP3    H148601   1.456   3.522  12.189  2.3018 -0.5377  0.9644
 9062TIP3    H248602   1.398   3.421  12.286  2.7465 -0.8630  0.8927
 9063TIP3   OH248603   3.767   2.170   2.349 -0.0131 -0.3123 -0.1079
 9063TIP3    H148604   3.680   2.179   2.311  0.3487 -1.6805 -1.3679
 9063TIP3    H248605   3.752   2.158   2.443 -1.0102  1.9799  0.0818
 9064TIP3   OH248606   2.771   2.391   4.594 -0.3971  0.4031 -0.0059
 9064TIP3    H148607   2.723   2.449   4.654 -1.3484  0.0325 -0.3965
 9064TIP3    H248608   2.844   2.445   4.562 -0.9540  1.2044  0.0583
 9065TIP3   OH248609   1.705   4.329   5.057 -0.2748 -0.5232  0.1043
 9065TIP3    H148610   1.733   4.406   5.107 -1.0767 -1.1058  1.5245
 9065TIP3    H248611   1.687   4.263   5.124  0.3941 -1.9581 -1.0781
 9066TIP3   OH248612   1.995   6.136  14.940  0.5307  0.3065  0.3286
 9066TIP3    H148613   2.011   6.182  15.022 -1.8610  1.4468  0.2358
 9066TIP3    H248614   1.943   6.060  14.964  0.4988  0.2099 -0.0406
 9067TIP3   OH248615   2.229   1.995   4.352  0.2491 -0.3552  0.2546
 9067TIP3    H148616   2.271   1.933   4.293  0.7413 -0.4335  0.6774
 9067TIP3    H248617   2.136   1.979   4.341  0.3338 -0.3606 -0.5033
 9068TIP3   OH248618   3.525   6.211  16.109 -0.1953 -0.2792  0.2514
 9068TIP3    H148619   3.592   6.275  16.085 -1.8942  0.9571 -1.4882
 9068TIP3    H248620   3.574   6.135  16.139  2.0067  0.3848 -1.4065
 9069TIP3   OH248621   4.877   3.887   2.696  0.3189 -0.0098  0.2454
 9069TIP3    H148622   4.836   3.802   2.677  0.7902 -0.4127  0.9662
 9069TIP3    H248623   4.875   3.934   2.613 -0.2534 -0.6005 -0.0827
 9070TIP3   OH248624   1.998   4.109   4.593 -0.3639  0.1675  0.6021
 9070TIP3    H148625   1.941   4.035   4.613 -1.0401  0.5458  0.1163
 9070TIP3    H248626   1.962   4.181   4.646  1.6837 -0.3652  2.9252
 9071TIP3   OH248627   5.468   3.047  16.543 -0.2564  0.4196 -0.3801
 9071TIP3    H148628   5.528   3.108  16.499  0.0499  0.3758 -0.0317
 9071TIP3    H248629   5.381   3.079  16.522 -0.1036  0.6907 -0.6074
 9072TIP3   OH248630   4.519   0.856  14.691 -0.3533  0.2510 -0.6789
 9072TIP3    H148631   4.573   0.824  14.619  0.7058 -0.8636  0.5785
 9072TIP3    H248632   4.429   0.842  14.661  0.0770 -1.5454 -1.2055
 9073TIP3   OH248633   4.774   0.069   3.893 -0.0998  0.5700 -0.7016
 9073TIP3    H148634   4.801   0.071   3.985  0.4821  3.0115 -0.8587
 9073TIP3    H248635   4.811   0.148   3.855 -1.8548  0.5670 -2.6228
 9074TIP3   OH248636   2.904   6.610  13.908 -0.5883 -0.4377  0.1096
 9074TIP3    H148637   2.932   6.659  13.986 -0.7100  0.1610 -0.2170
 9074TIP3    H248638   2.967   6.634  13.840 -0.3097 -1.1843  0.0885
 9075TIP3   OH248639   1.032   5.391  13.494  0.0338  0.1802  0.7553
 9075TIP3    H148640   1.086   5.313  13.482  0.7132  0.5789  1.1324
 9075TIP3    H248641   1.048   5.445  13.416  0.5942  0.5315  1.1058
 9076TIP3   OH248642   0.798   1.464   4.606 -0.0309  0.5450  0.1411
 9076TIP3    H148643   0.795   1.374   4.572  1.4185  0.4456  0.2471
 9076TIP3    H248644   0.812   1.453   4.700 -0.8842  0.8781  0.3144
 9077TIP3   OH248645   3.320   6.412   0.585  0.7178  0.1573  0.1101
 9077TIP3    H148646   3.247   6.398   0.525 -0.7102 -0.6028  1.9542
 9077TIP3    H248647   3.292   6.484   0.641  1.1097 -0.5240  1.2118
 9078TIP3   OH248648   6.411   6.578  11.756  0.5743  0.4184 -0.0794
 9078TIP3    H148649   6.389   6.494  11.798  1.1259 -0.1891 -0.9787
 9078TIP3    H248650   6.469   6.622  11.819 -0.5231  0.5911  0.8476
 9079TIP3   OH248651   1.258   6.563   5.579  0.6335 -0.5915 -0.1322
 9079TIP3    H148652   1.222   6.475   5.568 -0.4003  0.0471 -2.3199
 9079TIP3    H248653   1.324   6.570   5.510  0.1615  0.5963 -0.4845
 9080TIP3   OH248654   0.268   1.437   0.997 -0.1536 -0.0982  0.0896
 9080TIP3    H148655   0.360   1.410   0.988  0.6652  2.5474 -0.4778
 9080TIP3    H248656   0.260   1.463   1.089 -0.0592  0.4461 -0.0487
 9081TIP3   OH248657   0.935   1.418   4.071  0.7100 -0.0054  0.4937
 9081TIP3    H148658   0.857   1.469   4.051 -0.9867 -2.1382  1.3473
 9081TIP3    H248659   0.968   1.456   4.153 -1.0388 -0.7380  1.5998
 9082TIP3   OH248660   2.373   3.398   4.193  0.0016  0.0973  0.3193
 9082TIP3    H148661   2.462   3.406   4.159 -0.6755  0.5247 -1.5065
 9082TIP3    H248662   2.357   3.482   4.237  0.6824 -0.2199  1.2070
 9083TIP3   OH248663   5.380   5.701   4.246  0.1648 -0.4513  0.2684
 9083TIP3    H148664   5.344   5.628   4.196  0.6603 -1.0926  0.8254
 9083TIP3    H248665   5.469   5.711   4.213 -0.3105  0.7576 -0.7075
 9084TIP3   OH248666   1.182   2.514   0.598  0.0074 -0.1037  0.2734
 9084TIP3    H148667   1.168   2.423   0.572 -0.7857 -0.3087  1.3502
 9084TIP3    H248668   1.272   2.516   0.632  0.6392 -0.0829 -1.2799
 9085TIP3   OH248669   5.369   2.316   2.083 -0.8253 -0.0224 -0.0379
 9085TIP3    H148670   5.296   2.273   2.127 -1.2446  1.5114  0.8200
 9085TIP3    H248671   5.384   2.264   2.004 -1.3313 -1.7010  0.9267
 9086TIP3   OH248672   0.310   6.207  12.673  0.4368  0.1445 -0.0138
 9086TIP3    H148673   0.253   6.181  12.746 -1.3916  0.2032 -1.3586
 9086TIP3    H248674   0.322   6.301  12.685  0.1579  0.1504  0.2370
 9087TIP3   OH248675   5.070   3.050   4.154 -0.4930  0.2485  0.0955
 9087TIP3    H148676   5.082   3.145   4.143  0.8339  0.1577  0.5241
 9087TIP3    H248677   5.031   3.041   4.241 -0.3639  0.3933  0.1693
 9088TIP3   OH248678   6.585   3.545  14.428  0.9057 -0.1221  0.0235
 9088TIP3    H148679   6.653   3.530  14.362  0.3532 -0.7517 -0.4149
 9088TIP3    H248680   6.533   3.617  14.394  1.0485  0.0268  0.1181
 9089TIP3   OH248681   1.204   1.771  13.659 -0.0493 -0.3310 -0.3116
 9089TIP3    H148682   1.214   1.695  13.601  1.7555 -0.0912 -0.3720
 9089TIP3    H248683   1.112   1.796  13.650 -0.1966 -1.2810 -1.8582
 9090TIP3   OH248684   5.212   0.147  17.159 -0.2685 -0.4767  0.1603
 9090TIP3    H148685   5.241   0.211  17.094  0.8877  0.3163  1.4055
 9090TIP3    H248686   5.258   0.066  17.135  0.0516 -0.2276 -0.0828
 9091TIP3   OH248687   3.308   4.022   1.695  0.1435  0.1014 -0.7291
 9091TIP3    H148688   3.275   3.959   1.631 -0.5744  0.0836 -0.3524
 9091TIP3    H248689   3.229   4.059   1.734  0.5161 -1.2593  1.4939
 9092TIP3   OH248690   0.165   1.154  12.618 -1.0390  0.0693 -0.3105
 9092TIP3    H148691   0.224   1.081  12.637  0.5687  1.4398  0.1900
 9092TIP3    H248692   0.129   1.133  12.532  0.7668 -0.4639 -0.9864
 9093TIP3   OH248693   5.182   6.533   1.006 -0.0493  0.4766  0.1285
 9093TIP3    H148694   5.168   6.624   0.979 -1.5612 -0.0370 -1.0193
 9093TIP3    H248695   5.102   6.509   1.054 -1.1010 -1.0742 -2.1648
 9094TIP3   OH248696   2.350   6.470   4.444 -0.1800  0.1908 -0.1636
 9094TIP3    H148697   2.388   6.555   4.423  1.4601 -0.4953 -0.0764
 9094TIP3    H248698   2.365   6.417   4.367 -3.0017  0.4786 -1.0402
 9095TIP3   OH248699   4.121   3.881   0.126  0.0699 -0.4455 -0.2047
 9095TIP3    H148700   4.138   3.792   0.095  2.0850 -0.7497  1.5274
 9095TIP3    H248701   4.205   3.927   0.114 -0.5272  0.8091  0.2532
 9096TIP3   OH248702   5.677   4.193  12.246 -0.0108 -0.1537 -0.9457
 9096TIP3    H148703   5.637   4.208  12.160  0.1756  3.3472 -0.5555
 9096TIP3    H248704   5.621   4.241  12.307  1.1241 -0.7103  0.5911
 9097TIP3   OH248705   0.333   5.871  12.277 -0.3641  0.6616  0.3771
 9097TIP3    H148706   0.322   5.948  12.332 -0.3211  0.1860  1.0728
 9097TIP3    H248707   0.266   5.810  12.307  1.2980 -0.6182  1.7288
 9098TIP3   OH248708   0.362   0.493  16.760 -0.0886 -0.4993 -0.4972
 9098TIP3    H148709   0.294   0.525  16.819 -0.0504 -0.1935 -0.6135
 9098TIP3    H248710   0.427   0.453  16.817 -0.7088 -1.4465 -0.4384
 9099TIP3   OH248711   4.100   0.207  11.154 -0.4294 -0.0801  0.6769
 9099TIP3    H148712   4.171   0.271  11.155  0.3379 -0.6561 -2.8604
 9099TIP3    H248713   4.144   0.122  11.149 -1.3604 -0.5539  0.1638
 9100TIP3   OH248714   0.964   4.818  14.387 -0.2672  0.0018 -0.1743
 9100TIP3    H148715   1.058   4.815  14.405 -0.2482 -1.2324 -0.4062
 9100TIP3    H248716   0.958   4.830  14.293 -0.3723  1.9913  0.0350
 9101TIP3   OH248717   6.454   2.664   2.432  0.0328 -0.4841 -0.2150
 9101TIP3    H148718   6.462   2.754   2.400 -0.0030 -0.8377 -1.2459
 9101TIP3    H248719   6.410   2.673   2.517 -1.3410  0.3556 -0.9843
 9102TIP3   OH248720   6.607   5.493  16.044 -0.1063 -0.4342  0.1349
 9102TIP3    H148721   6.699   5.494  16.018 -0.3581 -2.7909 -1.0950
 9102TIP3    H248722   6.594   5.407  16.085 -1.5057  0.3039  1.3425
 9103TIP3   OH248723   0.460   0.955  13.507 -0.5855  0.2762  0.3391
 9103TIP3    H148724   0.413   0.985  13.585 -1.8338 -0.7664  0.0006
 9103TIP3    H248725   0.495   0.869  13.531 -0.4561  0.2161 -0.0518
 9104TIP3   OH248726   2.763   2.086  15.177 -0.3161 -0.0867 -0.9125
 9104TIP3    H148727   2.728   2.003  15.147  1.0753  0.3169 -4.0840
 9104TIP3    H248728   2.848   2.064  15.215  0.7192 -0.0964 -3.0643
 9105TIP3   OH248729   5.580   6.156  16.393 -0.4320  0.1223 -0.5261
 9105TIP3    H148730   5.664   6.199  16.406 -1.4653  2.0155  0.2309
 9105TIP3    H248731   5.597   6.064  16.413  1.9630 -0.0173 -2.6542
 9106TIP3   OH248732   1.875   5.395   2.710  0.0104 -0.5551  0.1392
 9106TIP3    H148733   1.884   5.312   2.757  2.6945 -0.0275  0.7006
 9106TIP3    H248734   1.840   5.456   2.775 -1.2256 -1.0347 -0.0561
 9107TIP3   OH248735   3.244   5.638   1.332  0.2861 -0.0378  0.1081
 9107TIP3    H148736   3.308   5.630   1.261  1.3723  2.9322  0.6097
 9107TIP3    H248737   3.293   5.617   1.412 -1.5420 -6.0860  0.1336
 9108TIP3   OH248738   1.808   1.279   5.821 -0.4658  0.7205  0.5081
 9108TIP3    H148739   1.869   1.216   5.859 -0.8041 -0.0945 -0.2774
 9108TIP3    H248740   1.771   1.325   5.896  1.0184  1.1438  1.0055
 9109TIP3   OH248741   4.377   0.080   0.843 -0.8306  0.0819 -0.2130
 9109TIP3    H148742   4.408   0.043   0.925 -0.0512  0.5512 -0.2871
 9109TIP3    H248743   4.297   0.031   0.823 -0.0841 -1.2224 -0.0736
 9110TIP3   OH248744   0.877   4.968  15.889  0.4393  0.5322 -0.6099
 9110TIP3    H148745   0.944   5.036  15.883 -0.9717  2.4738  2.7131
 9110TIP3    H248746   0.826   4.992  15.966 -1.6163 -3.0805 -0.6330
 9111TIP3   OH248747   2.438   0.704  13.130 -0.1822  0.0943  0.2197
 9111TIP3    H148748   2.345   0.687  13.143  0.0427  0.5542  3.1489
 9111TIP3    H248749   2.458   0.775  13.191  2.2971 -0.7012  0.4506
 9112TIP3   OH248750   2.545   4.722  13.678 -0.4240  0.5012  0.0321
 9112TIP3    H148751   2.639   4.723  13.693 -0.5508  0.4823  0.8549
 9112TIP3    H248752   2.535   4.690  13.588  0.2969 -0.7096  0.3675
 9113TIP3   OH248753   0.300   5.910  13.156 -0.0372  0.3964  0.6997
 9113TIP3    H148754   0.373   5.926  13.096 -0.6272  1.3684  0.2197
 9113TIP3    H248755   0.278   5.818  13.143  0.1216  0.4885 -0.2697
 9114TIP3   OH248756   3.528   2.095  15.527 -0.3996  0.2617  0.0382
 9114TIP3    H148757   3.522   2.063  15.437 -3.6659 -0.5678  0.4095
 9114TIP3    H248758   3.467   2.169  15.530 -2.4203 -1.3585  2.1011
 9115TIP3   OH248759   5.404   0.252  11.875  0.1042  0.0702 -0.5567
 9115TIP3    H148760   5.373   0.296  11.954  2.1142 -1.2667  1.1108
 9115TIP3    H248761   5.349   0.286  11.805 -2.3294  0.7128  1.5200
 9116TIP3   OH248762   5.996   0.997  15.240  0.3133  0.4834  0.5631
 9116TIP3    H148763   5.912   0.990  15.286  0.1962 -2.3485  0.0873
 9116TIP3    H248764   5.990   0.934  15.168  1.9447  2.0257 -1.0579
 9117TIP3   OH248765   5.824   1.415   3.335  0.1795 -0.1380 -0.6693
 9117TIP3    H148766   5.795   1.431   3.245  0.6726  2.0762 -0.4726
 9117TIP3    H248767   5.916   1.390   3.327  0.1632 -0.1636 -0.7769
 9118TIP3   OH248768   6.732   5.018   4.057  0.2536  0.5212  0.5343
 9118TIP3    H148769   6.690   5.104   4.061  1.1023  0.9265  1.0348
 9118TIP3    H248770   6.809   5.031   4.001 -0.9568 -0.5240 -1.4780
 9119TIP3   OH248771   3.336   1.151   1.209 -0.5659  0.2739 -0.3113
 9119TIP3    H148772   3.297   1.083   1.264 -1.5481  0.6501 -0.5239
 9119TIP3    H248773   3.423   1.117   1.187 -0.8274 -0.6522  0.0461
 9120TIP3   OH248774   5.600   6.503  15.791  0.5698  0.8264 -0.0778
 9120TIP3    H148775   5.532   6.562  15.821 -0.1655 -0.9690  2.1173
 9120TIP3    H248776   5.665   6.503  15.861  0.7250 -0.6240 -0.1770
 9121TIP3   OH248777   1.758   3.513  13.181 -0.2420 -0.0007  0.1620
 9121TIP3    H148778   1.770   3.500  13.087 -1.2719  1.2620 -0.1669
 9121TIP3    H248779   1.763   3.607  13.194 -1.7114 -0.0182  1.1306
 9122TIP3   OH248780   1.687   1.819  15.899  0.7790 -0.0324 -0.2934
 9122TIP3    H148781   1.717   1.734  15.868 -0.8851 -0.7418 -0.0677
 9122TIP3    H248782   1.664   1.867  15.819 -0.5310 -0.7011 -0.3462
 9123TIP3   OH248783   4.341   1.527   1.358  0.3732  0.0416 -0.1323
 9123TIP3    H148784   4.301   1.454   1.309 -2.0159  0.5497  0.9485
 9123TIP3    H248785   4.360   1.490   1.444  2.2886 -0.1663 -0.5995
 9124TIP3   OH248786   6.467   3.150  15.246  0.2110 -0.5157  0.0549
 9124TIP3    H148787   6.434   3.222  15.193 -0.9913  0.4399  1.9797
 9124TIP3    H248788   6.522   3.192  15.312  0.1263 -1.4259  0.7306
 9125TIP3   OH248789   4.231   4.072   4.775 -0.0740 -0.3101  0.0415
 9125TIP3    H148790   4.268   4.035   4.695 -0.9958 -0.4110 -0.3513
 9125TIP3    H248791   4.146   4.106   4.748 -1.0267 -1.5987  1.2710
 9126TIP3   OH248792   3.072   1.284  13.573 -0.2247  0.3524  0.3997
 9126TIP3    H148793   2.984   1.278  13.536 -0.1835 -1.2074  0.4951
 9126TIP3    H248794   3.101   1.373  13.551 -0.6323 -0.1041 -2.3880
 9127TIP3   OH248795   5.141   1.892  11.932  0.2484  0.2205  0.0833
 9127TIP3    H148796   5.129   1.881  12.027 -0.2583 -0.7076 -0.0780
 9127TIP3    H248797   5.212   1.833  11.910 -1.2919 -1.5033 -0.5018
 9128TIP3   OH248798   4.834   1.401   1.164 -0.1211 -0.3405 -0.9924
 9128TIP3    H148799   4.917   1.361   1.136  0.1637  1.4706 -2.9240
 9128TIP3    H248800   4.787   1.329   1.207  3.2529 -0.9860  2.2107
 9129TIP3   OH248801   4.260   5.825   6.094 -0.6889 -0.1107 -0.3806
 9129TIP3    H148802   4.242   5.733   6.116 -0.5308 -0.2324 -0.7461
 9129TIP3    H248803   4.337   5.820   6.036 -0.4124  0.2829 -0.0509
 9130TIP3   OH248804   5.518   6.209  15.336 -0.1279 -0.1521  0.3310
 9130TIP3    H148805   5.577   6.245  15.402  0.4874 -0.5485  0.0132
 9130TIP3    H248806   5.515   6.275  15.267  1.5698 -0.9508 -0.5849
 9131TIP3   OH248807   4.707   0.243   1.563 -0.1138  0.6061  0.4294
 9131TIP3    H148808   4.681   0.201   1.481 -1.3588 -1.0338  1.6056
 9131TIP3    H248809   4.803   0.251   1.557  0.2094 -2.4562  0.1036
 9132TIP3   OH248810   4.337   6.224   5.623 -0.2115  0.0269  0.1089
 9132TIP3    H148811   4.311   6.300   5.570 -0.8968  0.6353  1.2657
 9132TIP3    H248812   4.420   6.250   5.662 -0.0285 -0.1573 -0.1593
 9133TIP3   OH248813   2.976   4.758   3.707 -0.1719 -0.0838  0.0434
 9133TIP3    H148814   2.890   4.787   3.737  0.0798  1.0009 -0.2567
 9133TIP3    H248815   2.957   4.703   3.630 -0.5876  0.2260 -0.0773
 9134TIP3   OH248816   6.366   2.934  10.696  0.3417  0.1825  0.3826
 9134TIP3    H148817   6.324   3.020  10.684  0.8328  0.5521  1.1730
 9134TIP3    H248818   6.453   2.944  10.657  0.5206  0.1553  0.7697
 9135TIP3   OH248819   5.503   0.016   4.715  0.6319  0.2150 -0.1358
 9135TIP3    H148820   5.564   0.086   4.738  0.2115  0.2894  0.8067
 9135TIP3    H248821   5.420   0.061   4.697  0.0271 -0.1092  1.6793
 9136TIP3   OH248822   4.757   0.080  13.979  0.0334 -0.4025  0.3679
 9136TIP3    H148823   4.671   0.038  13.974  0.2995 -0.9022 -0.1486
 9136TIP3    H248824   4.819   0.007  13.977  0.5219  0.0146 -0.8532
 9137TIP3   OH248825   1.473   1.669   4.513 -0.5423  0.1468 -0.4409
 9137TIP3    H148826   1.524   1.619   4.577 -3.3012 -0.9074  1.1197
 9137TIP3    H248827   1.459   1.754   4.555  0.8147  0.8688 -1.3756
 9138TIP3   OH248828   3.578   5.556  16.701  0.2219 -0.1214 -0.0794
 9138TIP3    H148829   3.503   5.597  16.745  1.7732  0.2545  2.4540
 9138TIP3    H248830   3.539   5.501  16.633 -2.2991  0.6354  0.6350
 9139TIP3   OH248831   5.827   4.999   3.062 -0.3663  0.5184  0.4675
 9139TIP3    H148832   5.779   5.055   3.000  0.3383  1.1213  0.4512
 9139TIP3    H248833   5.867   5.061   3.123  2.0210  0.1695 -0.6657
 9140TIP3   OH248834   3.790   2.578   0.433  0.1955  0.0942 -0.0831
 9140TIP3    H148835   3.835   2.500   0.400  1.2006  0.1228  1.1222
 9140TIP3    H248836   3.860   2.641   0.448 -0.4706  0.8074  0.0852
 9141TIP3   OH248837   1.913   0.271   2.576 -0.1868  0.4182  0.7002
 9141TIP3    H148838   1.994   0.222   2.586  0.7681  1.8169  0.1957
 9141TIP3    H248839   1.887   0.292   2.666 -0.5691 -0.9176  0.9110
 9142TIP3   OH248840   3.732   4.272   4.148 -0.5196  0.4467 -0.3496
 9142TIP3    H148841   3.784   4.240   4.074 -2.6104  1.0576 -2.2159
 9142TIP3    H248842   3.696   4.192   4.187  2.3478 -0.0547  1.5310
 9143TIP3   OH248843   5.499   1.217  13.503  0.1010 -0.0589 -0.2890
 9143TIP3    H148844   5.446   1.179  13.433 -2.6353  0.7316  1.2257
 9143TIP3    H248845   5.584   1.174  13.494 -1.6667 -3.8714 -0.8772
 9144TIP3   OH248846   3.020   0.797  16.586 -0.2760 -0.7291  0.3238
 9144TIP3    H148847   2.935   0.769  16.622 -0.2871  1.3656  2.1903
 9144TIP3    H248848   3.075   0.809  16.664  0.2457  2.4319 -0.3887
 9145TIP3   OH248849   3.368   4.422  14.049 -0.0883 -0.5192 -0.7676
 9145TIP3    H148850   3.443   4.376  14.011 -0.9453 -1.6205 -1.2133
 9145TIP3    H248851   3.338   4.364  14.120 -0.0727  0.2668 -0.1063
 9146TIP3   OH248852   3.751   1.798  12.125  0.2555  0.2409  0.0021
 9146TIP3    H148853   3.761   1.823  12.217  2.2387 -1.5875  0.3649
 9146TIP3    H248854   3.691   1.724  12.127  1.9495 -1.1995  0.1618
 9147TIP3   OH248855   2.388   4.979  14.764 -0.2618  0.4068  0.6320
 9147TIP3    H148856   2.438   4.976  14.682 -1.7437 -1.6626 -0.2607
 9147TIP3    H248857   2.453   5.004  14.830  1.1871  1.1255 -0.9869
 9148TIP3   OH248858   4.772   1.774  14.894  0.0875  0.0190 -0.0088
 9148TIP3    H148859   4.826   1.799  14.969  1.8856  1.3098 -1.6287
 9148TIP3    H248860   4.751   1.682  14.910  1.8711 -0.2277  1.2477
 9149TIP3   OH248861   3.085   0.136   0.546 -0.2934  0.2101  0.0470
 9149TIP3    H148862   3.042   0.051   0.533  0.0558  0.1108 -0.5212
 9149TIP3    H248863   3.178   0.118   0.535 -0.1832  0.5986  0.3147
 9150TIP3   OH248864   1.140   5.364  15.477 -0.1269 -0.0226  0.0511
 9150TIP3    H148865   1.086   5.287  15.464 -0.9495  0.7017 -1.0049
 9150TIP3    H248866   1.160   5.395  15.388  0.0828  1.0408  0.4451
 9151TIP3   OH248867   4.177   4.522   1.416  0.6095 -0.1035 -0.7064
 9151TIP3    H148868   4.155   4.487   1.330 -1.6934  1.2014 -0.7175
 9151TIP3    H248869   4.225   4.603   1.397  0.6684 -0.1505 -0.7596
 9152TIP3   OH248870   2.094   2.805  12.006  0.0733 -0.2783  0.1961
 9152TIP3    H148871   2.153   2.734  11.980 -0.0848 -0.5515  0.5772
 9152TIP3    H248872   2.013   2.786  11.959 -0.7364 -1.6569  2.0654
 9153TIP3   OH248873   1.165   2.938   2.424  0.8403 -0.1309  0.1205
 9153TIP3    H148874   1.072   2.944   2.446  0.3311  0.3277 -1.9405
 9153TIP3    H248875   1.190   3.028   2.404  0.7077 -0.6864 -2.9717
 9154TIP3   OH248876   6.384   4.557  15.512  0.0300 -0.1979  0.6103
 9154TIP3    H148877   6.408   4.514  15.430  1.9624  2.9115 -0.6258
 9154TIP3    H248878   6.372   4.649  15.489  0.4912  0.7945  3.8066
 9155TIP3   OH248879   4.346   0.342  13.316  0.2195 -0.4937 -0.7107
 9155TIP3    H148880   4.311   0.253  13.320 -0.7698 -0.2154 -2.1866
 9155TIP3    H248881   4.438   0.331  13.292  0.3526 -1.1397  0.0566
 9156TIP3   OH248882   3.993   3.096   5.183 -0.2617 -0.3429  0.3229
 9156TIP3    H148883   3.929   3.166   5.164 -0.5959 -0.8705 -0.5726
 9156TIP3    H248884   4.022   3.114   5.272  0.3338  1.4762 -0.1791
 9157TIP3   OH248885   6.613   0.522  13.295 -0.5876  0.3660  0.5233
 9157TIP3    H148886   6.583   0.446  13.245 -0.5990  0.0132  1.0569
 9157TIP3    H248887   6.538   0.581  13.295 -0.2567  0.7990 -0.7048
 9158TIP3   OH248888   0.983   4.873   2.211 -0.1994 -0.1869  0.3914
 9158TIP3    H148889   0.908   4.922   2.245 -0.2648  0.7625 -1.0614
 9158TIP3    H248890   0.962   4.781   2.230 -0.9006  0.1935  1.5590
 9159TIP3   OH248891   0.003   0.696  14.933 -0.5862 -0.2477 -0.1840
 9159TIP3    H148892  -0.052   0.667  15.006  0.4485 -0.4998  0.5172
 9159TIP3    H248893  -0.057   0.744  14.875 -2.1324 -2.6794 -0.7752
 9160TIP3   OH248894   4.876   1.393   3.725 -1.0685  0.9877 -0.0174
 9160TIP3    H148895   4.900   1.484   3.742 -2.2130  1.3425 -0.2680
 9160TIP3    H248896   4.958   1.353   3.694 -0.3229  1.6858  0.9755
 9161TIP3   OH248897   0.095   5.421   5.944  0.5713 -0.7258 -0.4192
 9161TIP3    H148898   0.002   5.431   5.924  0.6145 -0.0288 -0.3060
 9161TIP3    H248899   0.135   5.399   5.859  0.6083  1.2230 -0.9649
 9162TIP3   OH248900   3.572   4.905  11.234 -0.0873 -0.5021 -0.2612
 9162TIP3    H148901   3.607   4.830  11.282 -2.3805  0.4318  3.2818
 9162TIP3    H248902   3.534   4.868  11.155  1.4719 -2.6068 -0.0881
 9163TIP3   OH248903   1.545   4.240   0.790  0.2382  0.3250 -0.1636
 9163TIP3    H148904   1.508   4.217   0.705  1.3500  1.2292 -0.9268
 9163TIP3    H248905   1.614   4.303   0.770  2.3941 -1.4582  1.1158
 9164TIP3   OH248906   1.737   3.196  15.428  0.4248  0.3008  0.0198
 9164TIP3    H148907   1.794   3.254  15.378  0.7656  0.7825  0.9550
 9164TIP3    H248908   1.728   3.238  15.514 -3.4217  1.6024 -0.8193
 9165TIP3   OH248909   2.377   0.603  11.943 -0.4012 -0.3590 -0.1187
 9165TIP3    H148910   2.395   0.695  11.959  0.3369 -0.3316 -1.0005
 9165TIP3    H248911   2.400   0.589  11.850  1.0023 -1.7458  0.3752
 9166TIP3   OH248912   6.731   6.083  11.666 -0.3874  0.0869  0.7355
 9166TIP3    H148913   6.693   6.062  11.751 -2.2370  1.1537  0.2333
 9166TIP3    H248914   6.739   5.999  11.621  0.8059 -0.5071  2.0058
 9167TIP3   OH248915   5.791   2.175  11.991 -0.1253 -0.4933  0.1026
 9167TIP3    H148916   5.844   2.096  12.005  0.6930  0.3038  1.7604
 9167TIP3    H248917   5.794   2.221  12.075 -0.7717  1.1916 -0.7574
 9168TIP3   OH248918   3.035   1.403   3.527 -0.0691  0.4988 -0.2213
 9168TIP3    H148919   3.080   1.461   3.465 -0.8202  0.4670 -0.8222
 9168TIP3    H248920   2.942   1.423   3.514 -0.2028  2.3790  2.7647
 9169TIP3   OH248921   1.377   1.351   2.863 -0.0465  0.4490 -0.4666
 9169TIP3    H148922   1.455   1.297   2.856 -0.7444 -0.5047 -1.0719
 9169TIP3    H248923   1.369   1.370   2.957 -1.0640 -2.4537  0.1126
 9170TIP3   OH248924   3.748   2.327   1.311 -0.7322  0.4642 -0.3360
 9170TIP3    H148925   3.810   2.384   1.265  0.9489 -1.9269 -1.1937
 9170TIP3    H248926   3.798   2.292   1.385 -1.2264 -1.0455 -0.6935
 9171TIP3   OH248927   5.313   0.103  12.257  0.5076 -0.2964  0.3454
 9171TIP3    H148928   5.271   0.041  12.197 -1.2218  0.8956  0.2706
 9171TIP3    H248929   5.365   0.047  12.316 -0.5778 -1.7713 -0.0303
 9172TIP3   OH248930   6.531   4.138   4.167  0.0111 -0.1168  0.1587
 9172TIP3    H148931   6.558   4.150   4.258  0.5106  0.1511 -0.0237
 9172TIP3    H248932   6.490   4.052   4.166  2.4810 -1.3808  0.0887
 9173TIP3   OH248933   5.589   4.197  14.930  0.2848 -0.0407 -0.1146
 9173TIP3    H148934   5.527   4.250  14.981  0.8517  3.5491 -2.7585
 9173TIP3    H248935   5.675   4.235  14.950  0.7791 -0.2397 -1.7294
 9174TIP3   OH248936   6.217   3.767   6.319 -0.2562  0.1194  1.3772
 9174TIP3    H148937   6.152   3.697   6.319  0.1815 -0.3942 -1.3028
 9174TIP3    H248938   6.296   3.727   6.356 -0.3192 -0.5020  0.8545
 9175TIP3   OH248939   5.581   1.825  16.893  0.0718  0.4672  0.4203
 9175TIP3    H148940   5.647   1.882  16.932 -0.4154  1.3674 -0.0310
 9175TIP3    H248941   5.500   1.875  16.897 -0.5174 -0.4721  0.6221
 9176TIP3   OH248942   0.460   6.457  15.627 -0.1257 -0.1618  0.2251
 9176TIP3    H148943   0.539   6.407  15.605  0.7945  1.7842 -1.1247
 9176TIP3    H248944   0.445   6.514  15.552 -3.2958 -0.9616  0.0959
 9177TIP3   OH248945   0.996   3.264   0.033 -0.2296 -0.3765 -0.3101
 9177TIP3    H148946   0.974   3.322  -0.040  0.8735  1.1553  0.5109
 9177TIP3    H248947   1.081   3.226   0.008  0.5493  0.7750  0.4778
 9178TIP3   OH248948   1.260   0.453  15.391  0.2814  0.0212 -0.0960
 9178TIP3    H148949   1.211   0.536  15.394 -2.0260 -1.2351 -0.6992
 9178TIP3    H248950   1.225   0.407  15.315  0.9202 -1.8699  0.7032
 9179TIP3   OH248951   4.944   5.273  13.789 -0.0613  0.0666  0.3554
 9179TIP3    H148952   5.001   5.205  13.753 -2.6091 -1.7646 -0.5586
 9179TIP3    H248953   4.962   5.272  13.883  1.6117 -0.1806  0.0633
 9180TIP3   OH248954   5.819   4.302   5.390  0.3260  0.3031  0.3328
 9180TIP3    H148955   5.829   4.357   5.468  0.2963 -1.0140  1.3043
 9180TIP3    H248956   5.907   4.299   5.352  0.3334  0.9780  0.2798
 9181TIP3   OH248957   6.330   3.185   1.307  0.1070  0.0199 -0.7531
 9181TIP3    H148958   6.400   3.242   1.341  0.5438 -0.8865 -0.1082
 9181TIP3    H248959   6.359   3.163   1.218  0.6699 -0.3800 -0.4783
 9182TIP3   OH248960   4.204   4.496   5.495  0.1283  0.0013  0.2039
 9182TIP3    H148961   4.120   4.466   5.461 -0.1805 -1.0952  1.8095
 9182TIP3    H248962   4.264   4.488   5.421 -1.1996  0.9941 -1.0200
 9183TIP3   OH248963   0.904   6.474  12.237  0.2929  0.1220 -0.6325
 9183TIP3    H148964   0.935   6.495  12.149  0.5649  1.2417 -0.2865
 9183TIP3    H248965   0.871   6.557  12.272  1.5922  0.0480  0.8797
 9184TIP3   OH248966   3.368   0.783  12.573 -1.0326  0.9791  0.1661
 9184TIP3    H148967   3.304   0.837  12.619 -1.5966  1.2831 -0.9418
 9184TIP3    H248968   3.329   0.768  12.487 -0.3327 -0.1835  0.0333
 9185TIP3   OH248969   6.128   4.720   4.052  0.3047 -0.0686  0.2310
 9185TIP3    H148970   6.178   4.713   4.133 -1.1023 -0.7257  1.0781
 9185TIP3    H248971   6.095   4.810   4.052  1.9886  0.5961 -0.6808
 9186TIP3   OH248972   2.565   4.339   2.609 -0.6595 -0.6758 -0.2779
 9186TIP3    H148973   2.633   4.295   2.558  2.5010  2.6025  0.6635
 9186TIP3    H248974   2.532   4.408   2.551 -0.3865  0.1181  0.4745
 9187TIP3   OH248975   1.037   5.391   3.790 -0.0793 -0.3555  0.3784
 9187TIP3    H148976   0.961   5.333   3.778  0.5836 -1.3277  0.7595
 9187TIP3    H248977   1.027   5.425   3.879 -0.7293  0.5229 -0.0169
 9188TIP3   OH248978   1.708   0.298   4.619  0.1143 -0.0505  0.3714
 9188TIP3    H148979   1.776   0.360   4.648 -0.8638  0.5970  1.3208
 9188TIP3    H248980   1.739   0.269   4.533  0.6802  1.6593 -0.0444
 9189TIP3   OH248981   3.176   2.973  17.235 -0.0651 -0.3532  0.2829
 9189TIP3    H148982   3.231   2.906  17.196 -0.1056 -0.9995  1.3034
 9189TIP3    H248983   3.141   2.933  17.314 -1.2289  0.3837  0.1730
 9190TIP3   OH248984   4.078   4.930   2.163  0.0999 -0.2813 -0.5907
 9190TIP3    H148985   4.104   4.947   2.254  2.3110 -3.0668 -0.5515
 9190TIP3    H248986   3.982   4.927   2.166  0.0610  0.9208  1.3548
 9191TIP3   OH248987   2.797   3.780  16.459  0.4882  0.2576 -0.3822
 9191TIP3    H148988   2.788   3.727  16.539  0.8567 -2.6190 -2.0977
 9191TIP3    H248989   2.868   3.841  16.479  0.2259 -0.0174  1.6471
 9192TIP3   OH248990   2.388   2.005  14.239  0.3155 -0.3571 -0.1218
 9192TIP3    H148991   2.377   2.011  14.334 -1.2322 -2.1976 -0.1330
 9192TIP3    H248992   2.372   1.913  14.219 -1.0430  0.2969 -2.3675
 9193TIP3   OH248993   1.006   2.386  14.648 -0.2491 -0.0921  0.1599
 9193TIP3    H148994   1.054   2.411  14.727 -0.2301  1.0867 -0.2069
 9193TIP3    H248995   1.023   2.292  14.638  0.2770 -0.1154  1.1934
 9194TIP3   OH248996   6.749   3.130  13.241  0.1404 -0.4516 -0.3022
 9194TIP3    H148997   6.783   3.108  13.328  0.5701 -2.1407 -0.8479
 9194TIP3    H248998   6.824   3.123  13.183 -0.7375 -2.8273 -1.3096
 9195TIP3   OH248999   5.601   5.245  16.791 -0.0712  0.4388 -0.2643
 9195TIP3    H149000   5.585   5.164  16.741  3.2458 -0.3326 -0.3345
 9195TIP3    H249001   5.523   5.255  16.845 -0.7542 -2.7029 -0.4327
 9196TIP3   OH249002   3.109   0.135   5.987 -0.1823 -0.1532 -0.3080
 9196TIP3    H149003   3.156   0.172   6.062 -1.8552  1.3363  0.0555
 9196TIP3    H249004   3.137   0.044   5.985  1.5258  0.2899  0.8169
 9197TIP3   OH249005   5.052   0.538  11.969  0.1804 -1.0177 -0.0456
 9197TIP3    H149006   4.971   0.489  11.954  0.0952 -0.6041 -1.0130
 9197TIP3    H249007   5.031   0.628  11.944  0.2998 -0.4210  1.8117
 9198TIP3   OH249008   6.132   2.337   4.099  0.6313  0.0828 -0.2218
 9198TIP3    H149009   6.158   2.419   4.140 -0.0611  0.9663 -1.4930
 9198TIP3    H249010   6.142   2.353   4.005 -0.4710 -0.9479 -0.5359
 9199TIP3   OH249011   3.487   2.691  15.241  0.1772 -0.0242 -0.0779
 9199TIP3    H149012   3.548   2.739  15.297 -1.8868  2.1233  0.5147
 9199TIP3    H249013   3.420   2.658  15.301  0.7752 -2.4734 -0.6794
 9200TIP3   OH249014   1.213   0.012   2.823  0.1262  0.2636  0.1477
 9200TIP3    H149015   1.260   0.093   2.840  0.8424  0.1902 -1.3361
 9200TIP3    H249016   1.217   0.001   2.728 -3.3641  0.5273 -0.1554
 9201TIP3   OH249017   3.689   3.528  12.887 -0.4054 -0.5041  0.2944
 9201TIP3    H149018   3.630   3.545  12.814 -0.1185 -0.7118  0.0073
 9201TIP3    H249019   3.685   3.606  12.941 -0.3844 -0.2206 -0.1124
 9202TIP3   OH249020   0.047   2.884  13.385 -0.3262  0.4936  0.1529
 9202TIP3    H149021  -0.031   2.864  13.334  1.0405 -0.9377 -1.5019
 9202TIP3    H249022   0.103   2.807  13.373  1.4430  1.5984  1.0553
 9203TIP3   OH249023   2.137   1.715  11.819 -0.3556  0.3694 -0.4030
 9203TIP3    H149024   2.043   1.703  11.807 -0.2984  1.6303 -2.8761
 9203TIP3    H249025   2.177   1.665  11.748  0.8703 -0.2000  0.6457
 9204TIP3   OH249026   6.485   3.004   0.754 -0.3928  0.3146 -0.5803
 9204TIP3    H149027   6.399   3.004   0.796  0.0729  0.2456  0.4006
 9204TIP3    H249028   6.512   2.913   0.754  0.3407  0.5047  0.5486
 9205TIP3   OH249029   3.483   3.873  14.603 -0.1719 -0.1812 -0.3607
 9205TIP3    H149030   3.528   3.818  14.667  1.9352 -0.4134 -1.9189
 9205TIP3    H249031   3.400   3.894  14.644  0.7025 -1.0366  2.0515
 9206TIP3   OH249032   5.814   3.301  14.444  0.1627  0.2424 -0.1496
 9206TIP3    H149033   5.781   3.377  14.397 -1.4867  0.4450  1.2272
 9206TIP3    H249034   5.794   3.226  14.387  1.1814  0.7410 -1.2018
 9207TIP3   OH249035   1.794   0.141  11.250  0.0578 -0.2190 -0.0454
 9207TIP3    H149036   1.785   0.123  11.157 -0.0556 -0.9887  0.1054
 9207TIP3    H249037   1.837   0.226  11.254 -1.8302  0.8267 -0.7878
 9208TIP3   OH249038   1.485   2.247   4.641  0.1636  0.2320  0.1769
 9208TIP3    H149039   1.580   2.235   4.639 -0.0306 -1.4630  0.1709
 9208TIP3    H249040   1.469   2.317   4.577  1.2073 -1.1919 -1.7568
 9209TIP3   OH249041   2.334   1.055  11.426 -0.2919 -0.2939 -0.2504
 9209TIP3    H149042   2.387   1.116  11.477 -0.2475 -0.3396 -0.2424
 9209TIP3    H249043   2.244   1.083  11.442 -0.2420  0.2367 -0.8312
 9210TIP3   OH249044   6.295   0.723   4.232  0.0649  0.0659  0.5867
 9210TIP3    H149045   6.336   0.740   4.147 -0.8737  1.0915  0.3205
 9210TIP3    H249046   6.334   0.789   4.290  0.7541 -0.6752  0.9874
 9211TIP3   OH249047   2.948   5.658   0.438  0.3569 -0.3836 -0.6117
 9211TIP3    H149048   2.952   5.571   0.399  0.5740 -0.6063 -0.1064
 9211TIP3    H249049   2.874   5.701   0.395  0.8843 -0.4441 -1.6132
 9212TIP3   OH249050   3.537   1.959  13.294 -0.3975  0.1874 -0.6003
 9212TIP3    H149051   3.515   2.049  13.270  1.9382  0.8311 -0.5262
 9212TIP3    H249052   3.524   1.910  13.213 -2.8746  0.3010 -0.3403
 9213TIP3   OH249053   1.705   1.225  14.449  0.6427 -0.3820  0.2606
 9213TIP3    H149054   1.646   1.155  14.417 -0.5078 -0.2047  1.8605
 9213TIP3    H249055   1.652   1.305  14.443  0.5360 -0.2751  2.0837
 9214TIP3   OH249056   3.037   6.768  16.950  0.5460 -0.0753  0.0941
 9214TIP3    H149057   3.124   6.735  16.927  0.2626 -0.3264 -0.6425
 9214TIP3    H249058   3.037   6.858  16.918  0.0024 -0.5561 -1.3290
 9215TIP3   OH249059   3.115   6.584  13.750 -0.3072 -0.2142 -0.2427
 9215TIP3    H149060   3.162   6.505  13.777  0.4701  0.5306  0.6778
 9215TIP3    H249061   3.178   6.655  13.763 -0.9265  0.5439 -1.2310
 9216TIP3   OH249062   0.696   0.793  16.432  0.0068  0.2618 -0.1608
 9216TIP3    H149063   0.621   0.844  16.461  0.2939  0.0449  0.9820
 9216TIP3    H249064   0.768   0.819  16.489  0.5794 -0.2067 -0.6407
 9217TIP3   OH249065   3.729   4.857  16.800  0.2780 -0.6068  0.1055
 9217TIP3    H149066   3.767   4.812  16.876  1.0143 -0.9426 -0.4473
 9217TIP3    H249067   3.792   4.927  16.780 -0.9973  0.9152  1.1461
 9218TIP3   OH249068   5.874   3.485   5.592  0.1321 -0.5720 -0.1769
 9218TIP3    H149069   5.806   3.436   5.636 -0.0377 -0.3888 -0.2358
 9218TIP3    H249070   5.835   3.570   5.572 -0.6957 -1.4910 -2.9939
 9219TIP3   OH249071   2.434   6.737   5.017 -0.1864 -0.0879  0.4016
 9219TIP3    H149072   2.457   6.647   5.040  0.5488 -0.0259 -0.0869
 9219TIP3    H249073   2.509   6.771   4.969 -0.4620  0.7872  0.5576
 9220TIP3   OH249074   3.299   4.922   4.110  0.0017 -0.2242  0.2139
 9220TIP3    H149075   3.386   4.959   4.121 -0.1117 -0.0681  0.6424
 9220TIP3    H249076   3.241   4.984   4.155  0.0540 -2.0853  3.1389
 9221TIP3   OH249077   4.253   2.711   1.194  0.2670  0.0559 -0.5429
 9221TIP3    H149078   4.172   2.683   1.151 -0.2346  1.7916 -0.8153
 9221TIP3    H249079   4.240   2.690   1.286 -1.3942  2.0863 -0.2359
 9222TIP3   OH249080   1.250   3.622  11.956  0.0232  0.7231  0.2484
 9222TIP3    H149081   1.321   3.685  11.950  0.8191 -0.2300 -0.6842
 9222TIP3    H249082   1.189   3.646  11.886 -0.0699  0.9297  0.4001
 9223TIP3   OH249083   3.787   1.320  10.970  0.1541  0.0812  0.2080
 9223TIP3    H149084   3.800   1.266  10.892  0.3538  1.6659 -0.9016
 9223TIP3    H249085   3.730   1.391  10.940  0.8856  1.1628  1.3023
 9224TIP3   OH249086   5.427   2.776  13.766 -0.1464 -0.6143 -0.0730
 9224TIP3    H149087   5.514   2.743  13.788  0.0293 -0.1062  0.0223
 9224TIP3    H249088   5.418   2.762  13.672  0.2035 -0.2994 -0.1537
 9225TIP3   OH249089   3.713   6.534  15.691  0.4974 -0.2403 -0.0105
 9225TIP3    H149090   3.713   6.477  15.767 -0.5726 -0.1883  0.0407
 9225TIP3    H249091   3.684   6.619  15.724 -0.7880 -0.4230 -0.6073
 9226TIP3   OH249092   2.810   4.795  13.724  0.6686  0.1557  0.8454
 9226TIP3    H149093   2.885   4.736  13.734  1.9056  1.4883 -0.2649
 9226TIP3    H249094   2.839   4.878  13.762  0.2414  1.0523 -0.7140
 9227TIP3   OH249095   2.784   4.660  14.450  0.1514  0.2500 -0.6814
 9227TIP3    H149096   2.789   4.581  14.504 -0.0624 -0.5996 -1.8520
 9227TIP3    H249097   2.859   4.653  14.391 -0.7222  0.1258 -1.8096
 9228TIP3   OH249098   2.843   5.534   3.124 -0.4918  0.3438  0.8166
 9228TIP3    H149099   2.780   5.596   3.088  1.0625  0.2351 -2.5210
 9228TIP3    H249100   2.808   5.448   3.102 -0.1988  0.2238  0.8059
 9229TIP3   OH249101   0.798   6.485  13.278  0.0958 -0.0951  0.1189
 9229TIP3    H149102   0.720   6.484  13.334 -1.1254  2.0269 -1.3879
 9229TIP3    H249103   0.820   6.577  13.269  0.8289 -0.4211 -2.0727
 9230TIP3   OH249104   2.332   6.438   0.445  0.0990 -1.3142 -0.0813
 9230TIP3    H149105   2.355   6.360   0.394  0.3688 -0.2557 -1.6050
 9230TIP3    H249106   2.243   6.460   0.418  0.8713  0.2883 -1.4866
 9231TIP3   OH249107   3.997   4.668  12.750 -0.2934 -0.1651  0.2323
 9231TIP3    H149108   3.930   4.708  12.805 -1.2703  1.8385 -2.1806
 9231TIP3    H249109   3.989   4.574  12.766 -0.6748  0.2805  3.1996
 9232TIP3   OH249110   6.437   6.304  10.825  0.0312 -0.4362 -1.0506
 9232TIP3    H149111   6.372   6.308  10.895  0.8853 -1.0545 -0.1818
 9232TIP3    H249112   6.411   6.230  10.771  2.7916 -4.3883  2.3367
 9233TIP3   OH249113   2.852   3.270  12.702  0.1104 -0.0775  0.0974
 9233TIP3    H149114   2.768   3.229  12.718 -1.1822  1.3420 -2.4721
 9233TIP3    H249115   2.885   3.293  12.789 -2.5572  0.1315  1.1214
 9234TIP3   OH249116   3.157   0.954  12.547  0.2024 -0.3140  0.3800
 9234TIP3    H149117   3.141   1.048  12.544 -3.7029 -0.8388 -0.7859
 9234TIP3    H249118   3.171   0.928  12.456 -2.1592 -1.1833  0.1829
 9235TIP3   OH249119   0.902   1.981  11.594 -0.1237  0.2924 -0.3683
 9235TIP3    H149120   0.990   1.962  11.625 -0.6076  0.0044  0.9091
 9235TIP3    H249121   0.861   2.030  11.665 -1.6118 -1.2688 -0.0642
 9236TIP3   OH249122   5.847   4.120   1.277  0.3235 -0.3396  0.1316
 9236TIP3    H149123   5.796   4.075   1.344  0.8440  0.7737  1.3005
 9236TIP3    H249124   5.938   4.097   1.296  0.5453  0.6938  0.3663
 9237TIP3   OH249125   4.651   1.870  15.331 -0.7787 -0.0243  0.0541
 9237TIP3    H149126   4.579   1.819  15.294  0.6047 -2.8391  0.9793
 9237TIP3    H249127   4.637   1.868  15.425  0.8622 -1.3178  0.3163
 9238TIP3   OH249128   5.969   0.775  14.986 -0.3684  0.1568  0.2764
 9238TIP3    H149129   5.964   0.862  14.947 -0.9782  0.8985  1.9484
 9238TIP3    H249130   5.978   0.716  14.911 -1.3321  1.5271 -0.9703
 9239TIP3   OH249131   5.536   5.962   1.400  0.0398 -0.2917 -0.9630
 9239TIP3    H149132   5.574   5.897   1.460 -0.9129 -0.6311 -0.7178
 9239TIP3    H249133   5.553   5.926   1.313  0.8958 -0.0938 -0.8874
 9240TIP3   OH249134   2.574   6.474   0.520 -0.2598 -0.1996 -0.4220
 9240TIP3    H149135   2.597   6.390   0.558 -2.3395  0.0379  1.5412
 9240TIP3    H249136   2.479   6.473   0.512 -0.3541  1.9266 -0.3487
 9241TIP3   OH249137   0.469   4.586   0.248 -0.0138 -0.2157 -0.1357
 9241TIP3    H149138   0.432   4.526   0.313 -0.3672 -0.3185 -0.4335
 9241TIP3    H249139   0.417   4.572   0.169  0.7677 -0.4972 -0.6126
 9242TIP3   OH249140   3.856   3.227   2.569  0.0900  0.3491 -0.3880
 9242TIP3    H149141   3.926   3.265   2.516 -1.0043  1.3994 -1.1269
 9242TIP3    H249142   3.840   3.292   2.638  0.2823 -0.1971  0.1846
 9243TIP3   OH249143   3.410   1.927  17.239 -0.4221 -0.3277  0.0182
 9243TIP3    H149144   3.340   1.887  17.188 -1.3515 -0.6241  1.4448
 9243TIP3    H249145   3.378   1.923  17.330  2.1154 -2.0217  0.9661
 9244TIP3   OH249146   3.369   6.766  16.484  0.3612  0.2574 -0.7242
 9244TIP3    H149147   3.444   6.822  16.460  2.1020 -1.7762 -0.2988
 9244TIP3    H249148   3.394   6.679  16.455 -2.0555 -0.4417 -0.8745
 9245TIP3   OH249149   3.102   3.377   1.812 -0.2785  0.2344 -0.3319
 9245TIP3    H149150   3.055   3.309   1.763 -0.7223  0.0266  0.3687
 9245TIP3    H249151   3.187   3.337   1.832 -0.9590 -0.5843  1.0833
 9246TIP3   OH249152   2.870   3.494   1.319  0.1905  0.0758  0.4996
 9246TIP3    H149153   2.858   3.571   1.264  1.6720  0.1675  0.2763
 9246TIP3    H249154   2.800   3.500   1.384  0.3719  1.6924  0.5861
 9247TIP3   OH249155   1.505   6.555  15.757 -0.4294  0.1707 -0.1158
 9247TIP3    H149156   1.594   6.563  15.793  0.4979  1.7127 -2.5099
 9247TIP3    H249157   1.451   6.607  15.817  0.4395 -0.0392  0.8804
 9248TIP3   OH249158   6.310   1.513  12.847 -0.2193 -0.0598 -0.0787
 9248TIP3    H149159   6.313   1.592  12.903  0.2521  1.7479 -2.4934
 9248TIP3    H249160   6.396   1.473  12.860  0.0314  0.5445  0.2172
 9249TIP3   OH249161   5.445   4.091  12.786  0.1007  0.3582 -0.2612
 9249TIP3    H149162   5.352   4.102  12.763 -0.2080  0.5458  0.9821
 9249TIP3    H249163   5.490   4.082  12.702 -1.1683 -0.7375 -0.8701
 9250TIP3   OH249164   1.956   1.908  11.037  0.5380  0.5403  0.2621
 9250TIP3    H149165   1.922   1.935  10.951  0.6997 -0.6252 -0.1871
 9250TIP3    H249166   1.956   1.988  11.089 -2.4578  0.7545  0.1436
 9251TIP3   OH249167   0.912   4.509  10.973  0.0577  0.6328 -0.2308
 9251TIP3    H149168   0.976   4.441  10.995  1.1350  1.7890  0.3717
 9251TIP3    H249169   0.857   4.470  10.905  0.0650 -1.1487  0.7361
 9252TIP3   OH249170   2.914   0.644   2.039 -0.4104 -0.2337  0.2063
 9252TIP3    H149171   2.865   0.716   1.999  0.6865  1.7181  2.1474
 9252TIP3    H249172   3.002   0.651   2.002 -0.5023 -1.1503 -0.2198
 9253TIP3   OH249173   4.415   4.160  13.742 -0.2017  0.0921 -0.2470
 9253TIP3    H149174   4.406   4.213  13.663  1.3821  0.4367 -0.2288
 9253TIP3    H249175   4.458   4.218  13.805 -0.5752 -0.4823  0.5606
 9254TIP3   OH249176   6.567   2.644  16.970 -0.1619  0.1486 -0.3510
 9254TIP3    H149177   6.611   2.728  16.955 -0.7876  0.0770 -2.8850
 9254TIP3    H249178   6.623   2.580  16.928 -1.2338 -0.2926 -1.1419
 9255TIP3   OH249179   3.370   3.920   1.053 -0.2606  0.1092 -0.1979
 9255TIP3    H149180   3.380   3.884   0.964 -0.4225  1.8994 -0.9827
 9255TIP3    H249181   3.449   3.891   1.099  0.8401  0.8057 -1.5519
 9256TIP3   OH249182   1.618   2.013   5.593 -0.1031 -0.3529  0.2221
 9256TIP3    H149183   1.539   2.061   5.616  2.6346  3.9948  1.9033
 9256TIP3    H249184   1.673   2.017   5.672  1.9540 -2.9166 -0.9138
 9257TIP3   OH249185   1.777   4.165   3.302  0.2865 -0.5411  0.2930
 9257TIP3    H149186   1.831   4.242   3.282 -0.5755 -0.3704 -1.5775
 9257TIP3    H249187   1.763   4.169   3.397  0.5726  1.3995  0.2897
 9258TIP3   OH249188   6.287   2.257  15.618  0.1868  0.4886  1.0290
 9258TIP3    H149189   6.212   2.310  15.593 -1.5001 -1.3211  1.9753
 9258TIP3    H249190   6.317   2.296  15.700 -2.1916 -0.9655  2.7128
 9259TIP3   OH249191   4.885   6.057  13.504 -0.0966  0.6733  0.4344
 9259TIP3    H149192   4.883   5.962  13.520  0.5784  0.7773  1.2091
 9259TIP3    H249193   4.975   6.083  13.525  0.0222  1.3193 -0.8146
 9260TIP3   OH249194   3.117   4.021   5.305 -0.0611 -0.4262  0.1874
 9260TIP3    H149195   3.039   4.077   5.296  0.1299  0.2465  2.1264
 9260TIP3    H249196   3.150   4.010   5.216 -0.7682  1.6304 -0.3802
 9261TIP3   OH249197   0.745   5.566  12.859 -0.8583  0.2074 -0.2409
 9261TIP3    H149198   0.694   5.631  12.908 -0.0690  1.1852 -0.6813
 9261TIP3    H249199   0.798   5.618  12.799 -1.6638 -0.9482 -2.0188
 9262TIP3   OH249200   0.320   3.690   4.849  0.2449  0.0889  0.7082
 9262TIP3    H149201   0.383   3.749   4.891  0.5854  0.7167 -0.6470
 9262TIP3    H249202   0.244   3.745   4.831 -0.5568 -0.5689  1.9585
 9263TIP3   OH249203   5.366   4.713   5.387  0.3054 -0.4095  0.4331
 9263TIP3    H149204   5.447   4.759   5.367  0.4229 -0.8121 -0.0417
 9263TIP3    H249205   5.306   4.738   5.316 -0.2021  0.4075  1.1374
 9264TIP3   OH249206   6.304   3.782  15.211 -0.0013 -0.1060  0.2102
 9264TIP3    H149207   6.277   3.736  15.131  1.6931  1.4674 -1.3886
 9264TIP3    H249208   6.267   3.731  15.282 -2.7663 -0.8414 -1.5943
 9265TIP3   OH249209   4.631   0.575   3.107  0.5334 -0.0939 -0.2054
 9265TIP3    H149210   4.639   0.513   3.034  3.3917  1.5995 -1.5253
 9265TIP3    H249211   4.691   0.540   3.174  1.2746  0.5829 -0.4957
 9266TIP3   OH249212   3.022   4.108  13.372 -0.2427  0.5689  0.4985
 9266TIP3    H149213   3.068   4.130  13.291 -0.6715  2.2190  0.6660
 9266TIP3    H249214   3.083   4.052  13.420  1.2954  2.0585  0.3744
 9267TIP3   OH249215   3.834   4.122   6.069 -0.0956 -0.6095 -0.6909
 9267TIP3    H149216   3.829   4.140   5.975 -1.4349 -1.0807 -0.7342
 9267TIP3    H249217   3.771   4.051   6.084  0.8270 -1.2441  0.4088
 9268TIP3   OH249218   3.174   5.253   0.528  0.0873  0.1363  0.0703
 9268TIP3    H149219   3.235   5.224   0.461 -0.7534 -0.2176 -0.5619
 9268TIP3    H249220   3.128   5.174   0.555  0.4390  0.2694  1.0993
 9269TIP3   OH249221   4.597   0.589  12.815  0.1607  0.1442 -0.1048
 9269TIP3    H149222   4.630   0.594  12.905 -0.1363 -1.0588  0.0871
 9269TIP3    H249223   4.511   0.631  12.819 -0.2929 -0.8037  0.4131
 9270TIP3   OH249224   1.945   4.434  13.056 -0.3017 -0.1940 -0.3741
 9270TIP3    H149225   1.884   4.373  13.098  0.6955 -0.8789  0.1143
 9270TIP3    H249226   2.004   4.378  13.005 -0.3464  0.4893 -1.2027
 9271TIP3   OH249227   0.286   5.868   4.816  0.0670  0.3172 -0.0568
 9271TIP3    H149228   0.367   5.893   4.860 -0.0543 -0.6338  0.7438
 9271TIP3    H249229   0.234   5.949   4.815  0.6490  0.7087  0.2384
 9272TIP3   OH249230   4.460   3.518   0.624 -0.3142 -0.6070  0.0198
 9272TIP3    H149231   4.444   3.520   0.718  1.6346 -0.2550  0.3917
 9272TIP3    H249232   4.511   3.597   0.607 -0.3114 -0.8640 -1.2672
 9273TIP3   OH249233   1.764   6.657  13.091  0.2959  0.2059  0.2776
 9273TIP3    H149234   1.820   6.732  13.071  1.3070 -0.6462 -0.1361
 9273TIP3    H249235   1.801   6.584  13.041 -0.6702 -0.5855  0.6680
 9274TIP3   OH249236   4.074   3.748   4.855  0.0734  0.3930  0.1055
 9274TIP3    H149237   4.061   3.673   4.797 -1.2086  1.0333 -0.4606
 9274TIP3    H249238   3.987   3.786   4.866  0.7320  1.9661  0.1540
 9275TIP3   OH249239   3.755   6.499   0.393 -0.0453 -0.6666 -0.6236
 9275TIP3    H149240   3.813   6.443   0.341  1.8266  0.1163  0.5141
 9275TIP3    H249241   3.763   6.464   0.482 -0.4032  0.1986 -0.2481
 9276TIP3   OH249242   5.915   6.656  11.793  0.4122  0.5697 -0.2073
 9276TIP3    H149243   5.906   6.707  11.712  1.5150 -1.5630 -1.7635
 9276TIP3    H249244   5.825   6.631  11.815 -0.0747  2.5570  0.2248
 9277TIP3   OH249245   3.680   3.964   1.403 -0.4770  0.5148 -0.6990
 9277TIP3    H149246   3.713   3.961   1.493 -0.5498 -2.0085 -0.6922
 9277TIP3    H249247   3.759   3.967   1.349 -0.3613 -0.3634 -0.5872
 9278TIP3   OH249248   4.762   3.829   0.251  0.0502 -0.3441  0.2762
 9278TIP3    H149249   4.763   3.803   0.159 -0.2734 -1.8920  0.6798
 9278TIP3    H249250   4.823   3.769   0.294  0.7477  0.8202  0.9840
 9279TIP3   OH249251   5.092   1.263  10.438  0.4814 -0.1927 -0.3228
 9279TIP3    H149252   5.084   1.336  10.499  1.4622 -0.2378 -0.1156
 9279TIP3    H249253   5.024   1.202  10.464  1.6121 -0.7515  1.5095
 9280TIP3   OH249254   0.654   0.737   6.924 -0.0226 -0.1545 -0.1962
 9280TIP3    H149255   0.586   0.701   6.982 -0.2369  0.7177  0.1148
 9280TIP3    H249256   0.609   0.755   6.842  0.0445 -0.4288 -0.2936
 9281TIP3   OH249257   6.317   1.038  11.217  0.5106  0.4642 -0.0254
 9281TIP3    H149258   6.380   0.966  11.218  1.1411  1.0163  0.3412
 9281TIP3    H249259   6.238   1.000  11.177  1.8165  0.3931 -2.7947
 9282TIP3   OH249260   4.837   6.049  13.884 -0.0175 -0.0032 -0.0041
 9282TIP3    H149261   4.922   6.007  13.874 -0.8410 -1.5675 -0.8049
 9282TIP3    H249262   4.837   6.081  13.975  1.8545  1.1420 -0.3439
 9283TIP3   OH249263   5.258   2.316  14.416  0.3185  0.2913 -0.1995
 9283TIP3    H149264   5.189   2.252  14.433 -0.5726  0.6959 -2.0081
 9283TIP3    H249265   5.211   2.392  14.380  1.7358  0.1537 -2.5606
 9284TIP3   OH249266   3.241   5.381   4.444 -0.3843  0.1761  0.0647
 9284TIP3    H149267   3.297   5.322   4.394  3.0009  1.9608  1.4172
 9284TIP3    H249268   3.248   5.351   4.534 -1.3097  0.6605  0.3086
 9285TIP3   OH249269   4.673   4.585  15.112 -0.1975  0.0831  0.3477
 9285TIP3    H149270   4.677   4.607  15.205 -1.9333 -1.2669  0.8025
 9285TIP3    H249271   4.753   4.535  15.095  0.7450  1.4030  0.7762
 9286TIP3   OH249272   2.799   3.644   2.008 -0.7126  0.3133 -0.6715
 9286TIP3    H149273   2.814   3.688   1.924 -1.8595  0.8434 -0.6192
 9286TIP3    H249274   2.720   3.592   1.994 -1.7587  1.5237  0.4734
 9287TIP3   OH249275   4.127   5.462   3.855  0.1889 -0.4073  0.0339
 9287TIP3    H149276   4.185   5.388   3.874  0.5377 -0.4592 -1.1462
 9287TIP3    H249277   4.186   5.535   3.835 -0.1254 -0.4621 -1.1912
 9288TIP3   OH249278   5.254   0.623  16.352  0.0121  0.2344  0.3091
 9288TIP3    H149279   5.289   0.636  16.440  1.6715  0.7078 -0.3871
 9288TIP3    H249280   5.162   0.651  16.358 -0.0800 -0.3215  2.0085
 9289TIP3   OH249281   2.885   5.440  15.662 -0.3001 -0.4578 -0.1655
 9289TIP3    H149282   2.910   5.520  15.710 -0.5080 -0.2218 -0.4479
 9289TIP3    H249283   2.790   5.435  15.673 -0.3178 -0.5327 -0.3575
 9290TIP3   OH249284   3.827   3.711   0.539 -0.4615 -0.1920  0.2975
 9290TIP3    H149285   3.907   3.668   0.510 -0.8026  0.2884 -1.5085
 9290TIP3    H249286   3.758   3.671   0.486 -1.5330 -0.9412  2.1440
 9291TIP3   OH249287   1.095   5.406   1.804 -0.4499  0.7338 -0.2647
 9291TIP3    H149288   1.038   5.330   1.796 -0.5655  0.8978 -1.1748
 9291TIP3    H249289   1.180   5.376   1.770 -0.2499  0.7614  0.2007
 9292TIP3   OH249290   1.383   2.644  12.812 -0.1511  0.3801  0.4140
 9292TIP3    H149291   1.464   2.676  12.774 -0.2707  0.1570 -0.0376
 9292TIP3    H249292   1.325   2.721  12.813 -0.9899 -0.0987 -2.1485
 9293TIP3   OH249293   3.040   6.388   3.762 -0.1846  0.1143 -0.3936
 9293TIP3    H149294   3.112   6.370   3.701  1.8603  2.9004  1.0133
 9293TIP3    H249295   2.961   6.386   3.707  1.0858 -1.5026 -2.2869
 9294TIP3   OH249296   4.778   4.391   4.562 -0.2544  0.1746  0.0668
 9294TIP3    H149297   4.746   4.406   4.473 -0.7699 -0.7732  0.0712
 9294TIP3    H249298   4.718   4.325   4.598  0.1064  0.3470  1.0231
 9295TIP3   OH249299   0.628   0.115   6.570  0.0779 -0.4292 -0.0075
 9295TIP3    H149300   0.648   0.022   6.559 -0.8194 -0.8102  1.2992
 9295TIP3    H249301   0.533   0.120   6.566  0.1400  0.5044 -0.5099
 9296TIP3   OH249302   0.580   2.286  12.142 -0.2814 -0.3713  0.3405
 9296TIP3    H149303   0.525   2.289  12.063  1.7443 -1.1544 -1.1782
 9296TIP3    H249304   0.564   2.199  12.178 -0.4680 -0.3828  0.2368
 9297TIP3   OH249305   0.952   3.994   2.202  0.0360  0.9113  0.0609
 9297TIP3    H149306   0.878   3.936   2.216  0.6364  0.6286  2.6016
 9297TIP3    H249307   0.914   4.075   2.168 -1.0671 -0.1626 -1.3493
 9298TIP3   OH249308   2.762   5.066   0.029  0.1293 -0.0547  0.6143
 9298TIP3    H149309   2.791   5.057   0.120  1.3825  0.1048  0.2573
 9298TIP3    H249310   2.840   5.100  -0.017 -0.9152  1.3104 -0.2337
 9299TIP3   OH249311   6.726   0.946  13.057 -0.3220  0.0508  0.3244
 9299TIP3    H149312   6.789   0.981  13.120 -0.6948  0.5404  0.4317
 9299TIP3    H249313   6.645   0.937  13.107 -0.6859  0.6696 -0.1369
 9300TIP3   OH249314   5.649   6.464   0.793 -0.5489  0.1436  1.1504
 9300TIP3    H149315   5.715   6.486   0.727 -0.3510 -2.5257  0.3361
 9300TIP3    H249316   5.581   6.530   0.783 -0.1468  0.2594 -1.1974
 9301TIP3   OH249317   6.659   0.414  11.943 -0.2744  0.8472  0.5885
 9301TIP3    H149318   6.730   0.474  11.920  1.1154 -0.8164  0.3119
 9301TIP3    H249319   6.596   0.422  11.871  0.6131  0.8813 -0.1993
 9302TIP3   OH249320   5.982   5.023  14.607 -0.0714 -0.4777  0.6388
 9302TIP3    H149321   5.898   5.068  14.597  1.4510  2.0396 -3.3432
 9302TIP3    H249322   5.972   4.943  14.556  0.3721  0.7285 -1.4615
 9303TIP3   OH249323   6.574   5.874  15.970 -0.3031  0.4656 -0.4216
 9303TIP3    H149324   6.572   5.883  15.874 -1.0867  0.0038 -0.4604
 9303TIP3    H249325   6.658   5.912  15.996  0.3830 -0.3197 -1.3930
 9304TIP3   OH249326   6.332   6.340   5.532  0.1922  0.1567 -0.4065
 9304TIP3    H149327   6.365   6.284   5.462 -0.0477  0.6999 -0.9624
 9304TIP3    H249328   6.236   6.334   5.525  0.1653  0.7887 -0.5920
 9305TIP3   OH249329   4.282   3.918  13.768  0.1358  0.2919 -0.3855
 9305TIP3    H149330   4.234   3.978  13.825  1.4183  1.2349 -0.2696
 9305TIP3    H249331   4.360   3.966  13.741  2.0849 -1.8360  1.0274
 9306TIP3   OH249332   3.853   2.718  13.381 -0.9803  0.3931  0.4401
 9306TIP3    H149333   3.811   2.677  13.305 -0.4060 -1.7951  1.2089
 9306TIP3    H249334   3.783   2.724  13.446 -0.7561 -0.7813  0.8156
 9307TIP3   OH249335   5.009   6.214   1.225  0.6113  0.4867  0.6313
 9307TIP3    H149336   4.977   6.192   1.137 -0.5710  4.0864  0.0264
 9307TIP3    H249337   5.104   6.205   1.218  0.5654  1.0228 -1.1210
 9308TIP3   OH249338   3.961   2.608   6.614  0.0357 -0.4056  0.1982
 9308TIP3    H149339   4.031   2.595   6.550  1.4068 -3.6052  2.0684
 9308TIP3    H249340   4.006   2.613   6.699 -1.8931 -1.2680  1.3496
 9309TIP3   OH249341   2.949   1.304   5.120  0.4665 -0.5038  0.5067
 9309TIP3    H149342   2.871   1.359   5.113  0.8458 -0.1068 -1.3398
 9309TIP3    H249343   2.952   1.277   5.212 -3.2344 -2.6026  0.2241
 9310TIP3   OH249344   4.560   3.715   5.535 -0.5660  0.1678 -0.9216
 9310TIP3    H149345   4.625   3.650   5.562 -0.2773  0.0756 -1.8144
 9310TIP3    H249346   4.609   3.796   5.525 -0.2878 -0.2119 -2.9650
 9311TIP3   OH249347   5.242   4.154   4.144  0.0141  0.3498  0.3865
 9311TIP3    H149348   5.325   4.116   4.174 -0.2022 -1.2853 -0.9323
 9311TIP3    H249349   5.175   4.093   4.176 -0.6752  1.4360  1.0928
 9312TIP3   OH249350   6.605   3.956  16.006  0.4465 -0.2075 -0.0584
 9312TIP3    H149351   6.594   3.988  15.916  0.8415  2.0671  0.6464
 9312TIP3    H249352   6.689   3.911  16.004  0.2877 -0.4961 -0.8974
 9313TIP3   OH249353   0.239   1.826   5.530  0.7069  0.0121 -0.4969
 9313TIP3    H149354   0.244   1.861   5.619  2.1657  0.5030 -0.7501
 9313TIP3    H249355   0.297   1.749   5.532  0.1057 -0.4601 -0.8235
 9314TIP3   OH249356   1.060   0.578   4.840  0.1027 -0.5100 -0.5782
 9314TIP3    H149357   1.154   0.567   4.855  0.1020 -1.4564 -1.1749
 9314TIP3    H249358   1.023   0.491   4.855 -0.7745 -0.0200  0.2493
 9315TIP3   OH249359   4.986   6.645  10.961 -0.3686 -0.4406 -0.0283
 9315TIP3    H149360   4.903   6.689  10.980 -0.2990 -0.4828  0.3780
 9315TIP3    H249361   4.965   6.583  10.892 -0.8087 -0.8918  0.5043
 9316TIP3   OH249362   5.452   1.648  17.154  0.1250  0.1818 -0.0132
 9316TIP3    H149363   5.408   1.731  17.136 -0.0612  0.1212  0.1534
 9316TIP3    H249364   5.433   1.594  17.077 -1.5877 -0.4554  0.7845
 9317TIP3   OH249365   6.256   0.701  15.089 -0.3150 -0.2575 -0.3887
 9317TIP3    H149366   6.288   0.634  15.150  0.5767  1.0480  0.6686
 9317TIP3    H249367   6.165   0.715  15.114  0.0284  0.2323  0.6761
 9318TIP3   OH249368   6.342   1.671   2.372 -0.2679  0.5085  0.0763
 9318TIP3    H149369   6.255   1.639   2.345 -0.8727  0.7783  1.5945
 9318TIP3    H249370   6.392   1.591   2.390 -0.7557  0.3519  0.7923
 9319TIP3   OH249371   1.506   3.838  16.787 -0.1835 -0.2226  0.0411
 9319TIP3    H149372   1.475   3.836  16.878  0.7749  2.2770  0.4994
 9319TIP3    H249373   1.428   3.864  16.737 -0.1618  0.8206  0.5066
 9320TIP3   OH249374   2.681   2.647   2.235 -0.3359 -0.6420 -0.2683
 9320TIP3    H149375   2.765   2.688   2.258 -0.6158  0.0231 -0.4208
 9320TIP3    H249376   2.638   2.711   2.179 -0.5649 -1.3667 -0.9285
 9321TIP3   OH249377   0.038   4.115   1.852  0.2520 -0.2429 -0.1305
 9321TIP3    H149378   0.066   4.101   1.762  0.3893  0.6861 -0.2418
 9321TIP3    H249379  -0.005   4.200   1.851  1.2147  0.2837  0.8785
 9322TIP3   OH249380   4.598   5.433   0.085 -0.8928 -0.4721 -0.6275
 9322TIP3    H149381   4.635   5.467   0.003  1.0094 -1.9617 -0.4780
 9322TIP3    H249382   4.674   5.397   0.131 -2.0638 -0.4529  1.4055
 9323TIP3   OH249383   3.841   1.607   1.805  0.2276 -0.7186 -0.6385
 9323TIP3    H149384   3.768   1.559   1.766 -0.6810  1.6165 -1.9750
 9323TIP3    H249385   3.866   1.671   1.739  1.4233  0.6187  1.0348
 9324TIP3   OH249386   3.236   5.971   3.561  0.0117  0.2397 -0.3735
 9324TIP3    H149387   3.275   5.947   3.477  0.8963  1.0734 -0.2146
 9324TIP3    H249388   3.252   5.896   3.618  1.0594  0.4251 -0.4187
 9325TIP3   OH249389   2.880   4.416  11.428 -0.1381 -0.2189 -0.2902
 9325TIP3    H149390   2.822   4.489  11.411 -1.9468 -1.8217 -1.4089
 9325TIP3    H249391   2.824   4.338  11.422  1.5242 -1.6829  1.6423
 9326TIP3   OH249392   0.768   4.648   2.584  0.1938 -0.4936 -0.3024
 9326TIP3    H149393   0.800   4.558   2.576  0.8955 -0.3594  0.8703
 9326TIP3    H249394   0.844   4.697   2.616 -0.1124  0.5692 -1.1697
 9327TIP3   OH249395   0.663   1.365  14.258  0.3159 -0.5289 -0.1160
 9327TIP3    H149396   0.582   1.359  14.207  0.0638 -1.4359  0.3610
 9327TIP3    H249397   0.670   1.457  14.282 -0.6402 -0.4618 -0.0708
 9328TIP3   OH249398   1.058   5.751   4.791 -0.4976  0.4711 -0.0959
 9328TIP3    H149399   1.127   5.696   4.752  1.7754  2.1560  1.3222
 9328TIP3    H249400   0.979   5.698   4.784  1.1534 -2.0986 -0.7034
 9329TIP3   OH249401   4.375   6.005   3.642  0.2808 -0.1853  0.1536
 9329TIP3    H149402   4.367   6.050   3.558 -0.4707  0.1106  0.3757
 9329TIP3    H249403   4.464   5.971   3.643  0.4167  0.1359 -0.6004
 9330TIP3   OH249404   3.388   3.845  13.092  0.4407 -0.0179 -0.2509
 9330TIP3    H149405   3.308   3.855  13.041  0.2741  0.0149  0.0140
 9330TIP3    H249406   3.387   3.918  13.154  0.3092 -0.4181  0.2339
 9331TIP3   OH249407   2.859   6.542  12.668 -0.1063  0.3167 -0.2651
 9331TIP3    H149408   2.798   6.483  12.712 -0.2890 -0.8584 -1.9948
 9331TIP3    H249409   2.944   6.499  12.677  0.2267  1.1471  0.7481
 9332TIP3   OH249410   4.876   2.323   5.565 -0.0140  0.3227 -0.5462
 9332TIP3    H149411   4.946   2.296   5.624  0.0799 -1.9073 -1.5783
 9332TIP3    H249412   4.797   2.320   5.619  0.0280 -1.9365 -0.5035
 9333TIP3   OH249413   3.167   1.909   1.229  0.2475  0.2578  0.2476
 9333TIP3    H149414   3.213   1.856   1.164 -1.0070 -0.8263  0.2117
 9333TIP3    H249415   3.204   1.997   1.218  0.4380 -0.0159 -1.5615
 9334TIP3   OH249416   0.044   4.179  12.326  0.0723  0.2184  0.2193
 9334TIP3    H149417   0.098   4.113  12.282 -0.6719 -1.1761  1.3072
 9334TIP3    H249418   0.026   4.244  12.258  1.7113 -0.1266 -0.6063
 9335TIP3   OH249419   4.074   0.846   1.403  0.4575 -0.9067  0.0759
 9335TIP3    H149420   4.120   0.858   1.320  1.0057 -1.2169  0.3257
 9335TIP3    H249421   4.095   0.756   1.429  0.7685 -0.6259  0.8303
 9336TIP3   OH249422   5.608   2.904  16.006 -0.5573 -0.0557  0.4145
 9336TIP3    H149423   5.632   2.991  16.040  0.3513 -0.1988  0.1738
 9336TIP3    H249424   5.658   2.896  15.925 -0.3921 -0.9341  0.5939
 9337TIP3   OH249425   1.710   3.817  11.660  0.0486 -0.0728  0.0355
 9337TIP3    H149426   1.645   3.885  11.640 -0.5504 -0.8144 -0.5880
 9337TIP3    H249427   1.766   3.857  11.726 -1.1433  0.5329  0.7257
 9338TIP3   OH249428   1.231   2.277  15.742  0.4757 -0.1858 -0.5544
 9338TIP3    H149429   1.295   2.297  15.673  0.9487  0.4439  0.0593
 9338TIP3    H249430   1.153   2.325  15.716 -0.0529 -1.6085 -1.7441
 9339TIP3   OH249431   6.050   5.064   1.678 -0.1447  0.5118  0.4678
 9339TIP3    H149432   6.011   5.150   1.669 -2.2916 -0.4165  0.2439
 9339TIP3    H249433   6.120   5.075   1.743 -0.6016  2.3092  0.6925
 9340TIP3   OH249434   1.431   6.744   3.275  0.3101  0.1778  0.1030
 9340TIP3    H149435   1.510   6.797   3.268  1.0454 -0.3044  3.2864
 9340TIP3    H249436   1.379   6.786   3.344 -0.8666 -1.1128  0.0523
 9341TIP3   OH249437   0.638   6.046  15.629 -0.5125  0.2832  0.1184
 9341TIP3    H149438   0.559   6.066  15.579 -0.7105 -0.9463 -0.0874
 9341TIP3    H249439   0.702   6.112  15.601 -1.1282  0.6110 -0.5268
 9342TIP3   OH249440   6.522   5.833  12.589  0.0969  0.0152 -0.3643
 9342TIP3    H149441   6.486   5.919  12.610  0.2287  0.0009 -0.0729
 9342TIP3    H249442   6.531   5.833  12.494  1.0221  0.6990 -0.2955
 9343TIP3   OH249443   6.676   0.922  13.968  0.5691 -0.4449 -0.2341
 9343TIP3    H149444   6.741   0.859  13.999  0.4378  0.1779  1.4531
 9343TIP3    H249445   6.601   0.910  14.027 -0.7936 -0.9896 -1.9930
 9344TIP3   OH249446   4.010   1.261  13.221  0.3096  0.8449 -0.1512
 9344TIP3    H149447   3.997   1.261  13.315 -1.2384  0.0426 -0.3296
 9344TIP3    H249448   4.098   1.225  13.208  0.1293 -0.0219  0.9457
 9345TIP3   OH249449   6.401   0.433   1.974 -0.3873 -0.0758  0.0964
 9345TIP3    H149450   6.409   0.473   1.887  0.6950 -2.3089 -0.9291
 9345TIP3    H249451   6.466   0.479   2.027 -0.0890  0.4127 -0.6631
 9346TIP3   OH249452   2.713   3.283  16.183  0.3194  0.4833  0.2450
 9346TIP3    H149453   2.661   3.312  16.258 -0.9159 -0.5761 -0.1599
 9346TIP3    H249454   2.745   3.363  16.143  1.1593  1.0786  1.9784
 9347TIP3   OH249455   5.611   3.914  14.910  0.3101 -0.2587 -0.7232
 9347TIP3    H149456   5.652   3.999  14.930  1.5233 -0.5100 -1.9717
 9347TIP3    H249457   5.651   3.853  14.972  1.1102 -0.3116 -1.2747
 9348TIP3   OH249458   1.394   0.521  14.280 -0.4648 -0.0667 -0.5835
 9348TIP3    H149459   1.329   0.452  14.266  0.6924 -2.1064  2.8227
 9348TIP3    H249460   1.473   0.487  14.239  0.4942 -1.6931  2.2882
 9349TIP3   OH249461   2.444   4.268  15.812 -0.2636  0.1862  0.3577
 9349TIP3    H149462   2.483   4.254  15.898  0.1840 -1.4307 -0.0745
 9349TIP3    H249463   2.427   4.362  15.808  0.3155  0.3800  1.9471
 9350TIP3   OH249464   4.027   0.856  12.159  0.1210 -0.3754 -0.3260
 9350TIP3    H149465   4.010   0.828  12.248 -0.5185  0.7273 -0.0778
 9350TIP3    H249466   4.031   0.952  12.164  1.1186 -0.3407 -1.3061
 9351TIP3   OH249467   4.668   1.157  14.600  0.5002 -0.3264 -0.2351
 9351TIP3    H149468   4.647   1.250  14.585 -0.0135 -0.1381  1.3586
 9351TIP3    H249469   4.717   1.157  14.682  0.5284 -1.4661 -0.2361
 9352TIP3   OH249470   6.438   2.996  14.194  0.5166  0.3725 -0.5844
 9352TIP3    H149471   6.362   2.951  14.229  0.8060 -0.5067 -1.0503
 9352TIP3    H249472   6.405   3.044  14.119  0.3274  0.4067 -0.4804
 9353TIP3   OH249473   6.522   0.517   4.317  0.4841  0.3228 -0.5350
 9353TIP3    H149474   6.522   0.601   4.362  3.3349  1.5196 -2.5101
 9353TIP3    H249475   6.601   0.473   4.348 -0.6587 -1.4619  0.0289
 9354TIP3   OH249476   0.114   5.078  11.998  0.1910 -0.3152 -0.2043
 9354TIP3    H149477   0.103   5.167  11.964  1.5030 -1.0822 -2.9972
 9354TIP3    H249478   0.181   5.086  12.065 -0.3042  0.9100  0.1649
 9355TIP3   OH249479   4.005   2.957   3.075  0.1137 -0.0018  0.2042
 9355TIP3    H149480   4.073   3.022   3.092  0.7636 -0.7881  0.6233
 9355TIP3    H249481   4.042   2.900   3.008  0.2555 -1.0015  1.1148
 9356TIP3   OH249482   0.952   2.292  11.572  0.0371 -0.8046 -0.0910
 9356TIP3    H149483   1.008   2.353  11.526  0.0250 -0.8783 -0.2036
 9356TIP3    H249484   0.916   2.235  11.503  1.0720 -1.7777  0.1427
 9357TIP3   OH249485   1.712   6.432  16.639 -0.0074  0.2842 -0.8936
 9357TIP3    H149486   1.672   6.390  16.563 -1.8308 -1.9397  1.1336
 9357TIP3    H249487   1.639   6.468  16.689  0.9205  0.0110  0.7332
 9358TIP3   OH249488   4.953   6.319  12.386 -0.6218 -0.5520  0.0783
 9358TIP3    H149489   5.006   6.246  12.418  1.0946  0.2292 -0.8411
 9358TIP3    H249490   4.909   6.352  12.464 -0.3220 -1.6674  0.7503
 9359TIP3   OH249491   2.361   3.107   0.833 -0.1952 -0.7397 -0.1697
 9359TIP3    H149492   2.391   3.189   0.873 -0.5272 -0.5856 -0.2306
 9359TIP3    H249493   2.440   3.054   0.825  0.8884  1.1019 -3.8699
 9360TIP3   OH249494   3.999   0.593  14.266  0.1901 -0.3794 -0.4133
 9360TIP3    H149495   3.980   0.500  14.253  0.3273 -0.5782  0.7099
 9360TIP3    H249496   3.930   0.625  14.324  0.8663 -0.0932  0.2488
 9361TIP3   OH249497   1.996   4.885  12.760 -0.2240  0.2774 -0.4780
 9361TIP3    H149498   2.092   4.884  12.758 -0.1880  0.4659  0.4473
 9361TIP3    H249499   1.971   4.797  12.735  0.1619  0.4193 -1.4214
 9362TIP3   OH249500   1.612   4.132   3.026  0.1990  0.3451 -0.2209
 9362TIP3    H149501   1.681   4.126   3.092  0.4273  0.0431 -0.4831
 9362TIP3    H249502   1.615   4.223   2.996 -0.8564  0.8839  1.1931
 9363TIP3   OH249503   5.343   5.536  11.349  0.1690  0.2664  0.1484
 9363TIP3    H149504   5.403   5.582  11.406 -1.3898  2.2363  0.2909
 9363TIP3    H249505   5.323   5.454  11.395  2.5397 -0.3709  0.1568
 9364TIP3   OH249506   0.078   1.589  12.870 -0.1170 -0.0177 -0.0708
 9364TIP3    H149507   0.101   1.657  12.807 -0.1621  0.0226 -0.0440
 9364TIP3    H249508   0.104   1.625  12.955  0.8879 -0.4933 -0.1703
 9365TIP3   OH249509   1.935   1.441   5.027  0.0086  0.6676  0.0848
 9365TIP3    H149510   1.871   1.506   4.996  0.3142  0.3994 -1.1673
 9365TIP3    H249511   1.978   1.410   4.947 -1.4427 -2.4879  0.3818
 9366TIP3   OH249512   6.580   6.440   2.476  0.5261  0.6509  0.2018
 9366TIP3    H149513   6.665   6.475   2.503  1.8280 -0.2982 -2.3244
 9366TIP3    H249514   6.552   6.496   2.404 -0.4817  0.2763  0.2818
 9367TIP3   OH249515   2.138   0.482  16.823 -0.0775  0.1254  0.2081
 9367TIP3    H149516   2.134   0.401  16.771 -1.7948  0.7999 -0.7786
 9367TIP3    H249517   2.111   0.551  16.763  1.5525  1.5056  0.9784
 9368TIP3   OH249518   0.484   1.667  14.778  0.3268 -0.0445 -0.1917
 9368TIP3    H149519   0.538   1.658  14.700  0.9016  0.1586  0.1754
 9368TIP3    H249520   0.429   1.744  14.760  0.0781 -0.3186 -0.6116
 9369TIP3   OH249521   1.452   5.931  13.708  0.5190  0.4369 -0.4561
 9369TIP3    H149522   1.393   5.883  13.766  1.6076  0.6024  0.8353
 9369TIP3    H249523   1.396   5.994  13.664 -1.1107 -2.3059 -2.6786
 9370TIP3   OH249524   4.358   4.375  16.772 -0.1169 -0.0107 -0.3233
 9370TIP3    H149525   4.399   4.433  16.836  1.1837 -0.2517 -0.9079
 9370TIP3    H249526   4.320   4.304  16.824 -0.5721  0.6627  0.2860
 9371TIP3   OH249527   5.318   2.859   4.008 -0.1585  0.3031  0.1658
 9371TIP3    H149528   5.320   2.953   4.028 -2.0713  0.1751  1.1798
 9371TIP3    H249529   5.238   2.847   3.958 -0.2775 -0.8952  0.6159
 9372TIP3   OH249530   4.681   6.581  10.875 -0.4216  0.1566  0.4384
 9372TIP3    H149531   4.737   6.510  10.845 -0.3276  0.4562 -0.1225
 9372TIP3    H249532   4.595   6.561  10.837 -0.5376  0.0298  0.7698
 9373TIP3   OH249533   0.438   5.169   0.293 -0.1460 -0.6280  0.2101
 9373TIP3    H149534   0.408   5.175   0.203  0.1411  1.6976  0.2142
 9373TIP3    H249535   0.378   5.107   0.334 -1.5661 -0.1728 -1.0916
 9374TIP3   OH249536   0.288   4.972  13.556 -0.9440 -0.0150 -0.1848
 9374TIP3    H149537   0.199   4.984  13.523 -0.9547  0.5171  0.0348
 9374TIP3    H249538   0.287   5.010  13.644 -0.1355  1.2763 -0.7092
 9375TIP3   OH249539   2.679   6.355  12.291 -0.9261  0.5866 -0.1688
 9375TIP3    H149540   2.618   6.335  12.361 -0.9916 -0.0260 -0.3994
 9375TIP3    H249541   2.721   6.437  12.318 -0.8962  0.3134  0.6196
 9376TIP3   OH249542   6.280   5.666   0.789 -0.0087  0.1472  0.1732
 9376TIP3    H149543   6.267   5.580   0.827 -0.7245  0.4735  0.6935
 9376TIP3    H249544   6.287   5.725   0.864 -3.0422  1.0401 -0.1184
 9377TIP3   OH249545   0.131   5.170   0.962 -0.5358 -0.0744 -0.1462
 9377TIP3    H149546   0.113   5.108   1.032  1.1709 -0.9836 -0.4841
 9377TIP3    H249547   0.064   5.238   0.973 -1.0780 -0.8387  1.5705
 9378TIP3   OH249548   0.774   2.122   5.414 -0.0862 -0.1836  0.2157
 9378TIP3    H149549   0.862   2.118   5.377  0.2604 -2.0394  1.0973
 9378TIP3    H249550   0.716   2.124   5.338  0.6804 -0.8389 -0.4098
 9379TIP3   OH249551   2.307   1.406   3.393  0.0462  0.1753  0.2562
 9379TIP3    H149552   2.316   1.391   3.487 -0.1339 -0.4711  0.1768
 9379TIP3    H249553   2.246   1.338   3.364 -0.5691  0.8992 -0.1850
 9380TIP3   OH249554   6.421   1.097  13.075 -0.0473  0.0960 -0.0559
 9380TIP3    H149555   6.482   1.138  13.136  1.8271 -2.0800 -0.3664
 9380TIP3    H249556   6.356   1.054  13.131  0.4597 -0.1556  0.3405
 9381TIP3   OH249557   2.044   5.955  12.438  0.6339  0.6080 -0.1209
 9381TIP3    H149558   1.962   5.999  12.413  1.5408  2.2384 -0.3045
 9381TIP3    H249559   2.024   5.913  12.522 -0.7800 -0.1896 -0.8051
 9382TIP3   OH249560   1.192   1.507   3.958 -0.6389 -0.2783  0.1613
 9382TIP3    H149561   1.157   1.432   4.007 -0.7539 -1.1911 -1.2670
 9382TIP3    H249562   1.116   1.561   3.938 -0.6825 -0.2488  0.3986
 9383TIP3   OH249563   0.723   0.098  13.639  0.0470  0.0234 -0.1123
 9383TIP3    H149564   0.793   0.121  13.578  0.3232 -1.2896 -0.3149
 9383TIP3    H249565   0.766   0.098  13.725  0.1432 -0.1132 -0.1596
 9384TIP3   OH249566   5.932   0.149  13.261  0.1040 -0.1010  0.8058
 9384TIP3    H149567   5.945   0.055  13.249 -1.0666 -0.1100 -0.6715
 9384TIP3    H249568   5.976   0.188  13.185 -0.8287  0.4223  0.5279
 9385TIP3   OH249569   3.551   5.359  11.636 -0.0853  0.5214 -0.1523
 9385TIP3    H149570   3.573   5.436  11.690  1.5693  1.0631 -1.4996
 9385TIP3    H249571   3.495   5.394  11.567 -0.8698  0.1395  0.2827
 9386TIP3   OH249572   4.164   1.667   0.137  0.3657  0.0812 -0.0940
 9386TIP3    H149573   4.142   1.680   0.229  2.1296  0.9224  0.2622
 9386TIP3    H249574   4.182   1.573   0.130  3.8214  0.4760  1.3974
 9387TIP3   OH249575   0.910   6.540  17.170 -0.4214  1.2168  0.2103
 9387TIP3    H149576   0.845   6.489  17.121  0.4399 -0.4012  0.6752
 9387TIP3    H249577   0.868   6.557  17.254  0.1711 -1.0543  1.0634
 9388TIP3   OH249578   3.144   2.177   6.095  0.2304  0.1113 -0.1896
 9388TIP3    H149579   3.098   2.261   6.091 -0.2964 -0.0611  1.3102
 9388TIP3    H249580   3.076   2.111   6.081  1.0423 -0.1096 -4.0170
 9389TIP3   OH249581   5.463   2.461   4.414  0.5646  0.4100 -0.5807
 9389TIP3    H149582   5.455   2.371   4.445  0.0532  0.3553 -0.8614
 9389TIP3    H249583   5.517   2.454   4.335  0.6039  0.3609 -0.5492
 9390TIP3   OH249584   0.655   5.403   1.533 -0.4270  0.1731  0.0985
 9390TIP3    H149585   0.707   5.328   1.563 -0.1180  0.9811  1.7266
 9390TIP3    H249586   0.695   5.429   1.450 -0.7232 -1.6188 -0.6538
 9391TIP3   OH249587   4.044   0.965  12.928 -0.5979 -0.3040  0.3527
 9391TIP3    H149588   3.956   0.937  12.953 -0.4153 -0.0322  1.3483
 9391TIP3    H249589   4.102   0.914  12.985 -0.1433  0.0654  0.2247
 9392TIP3   OH249590   3.679   3.928   2.066  0.0001 -0.1058  0.3370
 9392TIP3    H149591   3.710   3.858   2.124 -0.0962 -0.2744  0.1857
 9392TIP3    H249592   3.759   3.960   2.023  0.3225  1.1756  1.8077
 9393TIP3   OH249593   3.388   2.736  15.860 -0.1437  0.2177 -0.1741
 9393TIP3    H149594   3.449   2.752  15.932 -0.1385 -1.8009  0.3264
 9393TIP3    H249595   3.306   2.712  15.904 -0.8843  1.3622 -0.8619
 9394TIP3   OH249596   5.256   3.428  15.395  0.6302 -0.3277 -0.0295
 9394TIP3    H149597   5.234   3.364  15.326  0.1833 -0.3481  0.1270
 9394TIP3    H249598   5.196   3.501  15.379  0.3058 -0.4642  0.5227
 9395TIP3   OH249599   4.713   1.935   1.260  0.4357 -0.1236  0.2635
 9395TIP3    H149600   4.770   1.872   1.215 -1.0175 -0.7654 -0.7588
 9395TIP3    H249601   4.761   2.019   1.254  2.0724 -0.9514  1.0340
 9396TIP3   OH249602   1.225   6.289   4.450 -0.4995  0.7879 -0.2347
 9396TIP3    H149603   1.299   6.279   4.390  0.0365 -1.4243  0.6751
 9396TIP3    H249604   1.205   6.382   4.448  1.0675  1.1522 -1.9732
 9397TIP3   OH249605   0.686   2.359  12.755 -0.5231 -0.2760  0.7700
 9397TIP3    H149606   0.615   2.296  12.749 -0.3950 -0.4610  1.1541
 9397TIP3    H249607   0.699   2.371  12.849 -0.1005 -0.1818  0.7000
 9398TIP3   OH249608   3.174   0.033   1.751 -0.0677 -0.5861 -0.0500
 9398TIP3    H149609   3.122  -0.028   1.804 -0.7483 -0.9283 -1.0983
 9398TIP3    H249610   3.147   0.017   1.661  2.8458 -1.7257 -0.8113
 9399TIP3   OH249611   0.705   5.067  16.922  0.0407  0.6049  0.3896
 9399TIP3    H149612   0.781   5.025  16.881  1.7597  0.5790  3.3328
 9399TIP3    H249613   0.677   5.005  16.990 -1.3297  1.5582  0.7419
 9400TIP3   OH249614   4.748   6.083   3.982  0.1751  0.4246  0.3598
 9400TIP3    H149615   4.708   6.001   3.954 -1.4304  0.5476  2.1097
 9400TIP3    H249616   4.726   6.091   4.075  0.0898  2.9476  0.2052
 9401TIP3   OH249617   3.267   1.010  17.247  0.5632 -0.5377  0.0599
 9401TIP3    H149618   3.338   1.068  17.274 -0.6096  0.8987  0.1807
 9401TIP3    H249619   3.223   0.985  17.328  0.6666 -1.0819 -0.0476
 9402TIP3   OH249620   3.390   5.327  13.654 -0.4459  0.4439  0.1795
 9402TIP3    H149621   3.393   5.269  13.729 -0.7327  1.5245  1.0582
 9402TIP3    H249622   3.341   5.279  13.587  0.4431 -0.8125  0.4163
 9403TIP3   OH249623   1.111   3.177  16.943  0.7800 -0.0624  0.6579
 9403TIP3    H149624   1.136   3.176  17.035  0.6427  0.4686  0.7045
 9403TIP3    H249625   1.148   3.097  16.907  1.9502  0.3616  0.8739
 9404TIP3   OH249626   5.108   0.666  16.070 -0.1300 -0.0298  0.3435
 9404TIP3    H149627   5.043   0.639  16.005 -1.2525 -0.0804  1.4425
 9404TIP3    H249628   5.191   0.666  16.023 -1.1803  2.0885 -1.6970
 9405TIP3   OH249629   1.772   0.587   1.330  0.4821  0.4413 -0.4174
 9405TIP3    H149630   1.706   0.589   1.260  0.5844  2.2088 -0.5108
 9405TIP3    H249631   1.723   0.564   1.408  0.4217 -1.9216 -1.0786
 9406TIP3   OH249632   5.676   2.486   5.816  0.2987 -0.4696  0.0920
 9406TIP3    H149633   5.673   2.572   5.858  0.3698 -0.2558 -0.3348
 9406TIP3    H249634   5.765   2.479   5.782  1.1496 -1.8246  2.3940
 9407TIP3   OH249635   3.274   5.086  12.653 -0.4141  0.0852 -0.0043
 9407TIP3    H149636   3.366   5.112  12.662  0.1038 -1.8686  0.8899
 9407TIP3    H249637   3.262   5.074  12.559 -0.0012  1.1542 -0.2062
 9408TIP3   OH249638   0.819   1.553  13.713  0.0940  0.1611 -0.5528
 9408TIP3    H149639   0.796   1.514  13.797  1.7417 -0.8253 -0.5201
 9408TIP3    H249640   0.865   1.634  13.736 -0.9757  0.8026 -0.5753
 9409TIP3   OH249641   2.644   6.477  14.560  0.1516  0.0728 -0.2514
 9409TIP3    H149642   2.714   6.423  14.598  0.4741  1.4020  1.1604
 9409TIP3    H249643   2.671   6.567  14.577 -1.8407  0.6342  0.2763
 9410TIP3   OH249644   2.270   2.127   4.741 -0.7681 -0.4552 -0.5587
 9410TIP3    H149645   2.190   2.177   4.728 -1.0476 -0.7961 -0.1528
 9410TIP3    H249646   2.340   2.190   4.723 -1.0955  0.2813  0.6044
 9411TIP3   OH249647   2.255   6.327  15.797 -0.1782 -0.0513  0.3118
 9411TIP3    H149648   2.346   6.306  15.778 -0.0507 -0.6384  1.4886
 9411TIP3    H249649   2.230   6.390  15.729  0.6130 -1.0708 -0.9721
 9412TIP3   OH249650   4.983   6.517  15.227 -0.3243 -0.2341 -0.0947
 9412TIP3    H149651   4.954   6.592  15.279  0.1078  0.1416 -0.3912
 9412TIP3    H249652   5.077   6.513  15.242  0.0627  0.7843 -2.0033
 9413TIP3   OH249653   5.986   4.392   1.043 -0.2530 -0.1716  0.1075
 9413TIP3    H149654   5.994   4.309   0.996 -0.1875  0.0671 -0.3088
 9413TIP3    H249655   5.934   4.448   0.985 -2.2445 -0.6263  1.3458
 9414TIP3   OH249656   0.300   2.170  15.570  0.5072  0.2674 -0.4674
 9414TIP3    H149657   0.260   2.090  15.535 -0.0659  0.4125 -0.1544
 9414TIP3    H249658   0.370   2.191  15.508  0.3207 -0.1863 -0.8356
 9415TIP3   OH249659   4.705   2.608   5.806  0.5725  0.2303  0.2655
 9415TIP3    H149660   4.748   2.694   5.804 -0.7216  0.8981  0.4652
 9415TIP3    H249661   4.669   2.597   5.718 -0.0502  0.2988  0.5105
 9416TIP3   OH249662   0.262   2.077  13.649  0.2537  0.3808  0.4150
 9416TIP3    H149663   0.247   2.028  13.568  2.0362  1.1082 -0.4098
 9416TIP3    H249664   0.179   2.121  13.665  0.5955  2.5206 -2.6670
 9417TIP3   OH249665   0.146   6.312   2.816  0.1923  0.0086  0.2826
 9417TIP3    H149666   0.159   6.253   2.890 -1.7648  0.3758  0.9654
 9417TIP3    H249667   0.138   6.399   2.855 -0.8941  0.1993 -0.3399
 9418TIP3   OH249668   5.698   4.354   1.283 -0.0115  0.3498  0.4152
 9418TIP3    H149669   5.633   4.288   1.305 -1.9001  1.0735 -2.3774
 9418TIP3    H249670   5.768   4.306   1.238 -0.7107  0.0444 -0.3667
 9419TIP3   OH249671   5.418   2.293  12.416 -0.1390  0.3698  0.5999
 9419TIP3    H149672   5.381   2.246  12.491 -0.1549  1.9559  1.6267
 9419TIP3    H249673   5.352   2.284  12.347 -0.2159 -0.9385  0.8253
 9420TIP3   OH249674   6.193   5.648   4.979 -0.1288 -0.3617  0.4914
 9420TIP3    H149675   6.194   5.744   4.981  1.5002 -0.3491  0.7576
 9420TIP3    H249676   6.194   5.622   5.071  4.8847 -0.4888  0.6964
 9421TIP3   OH249677   5.834   2.063   4.618 -0.6451  0.4716  0.6669
 9421TIP3    H149678   5.895   2.090   4.687  1.4097 -2.4159  0.1559
 9421TIP3    H249679   5.771   2.008   4.663 -0.2396 -0.1205  0.5231
 9422TIP3   OH249680   6.700   4.400   5.217  0.1646  0.1798 -0.9133
 9422TIP3    H149681   6.747   4.463   5.272  0.8157 -1.5980  0.6787
 9422TIP3    H249682   6.608   4.414   5.237  0.3842 -0.3004  0.5389
 9423TIP3   OH249683   2.847   6.314  14.637 -0.4027  0.4518 -0.2099
 9423TIP3    H149684   2.853   6.264  14.718  1.8425  0.3499 -0.3702
 9423TIP3    H249685   2.852   6.248  14.568  0.8540  0.7142 -0.4060
 9424TIP3   OH249686   1.323   1.343   0.490 -0.4816  0.1478 -0.1100
 9424TIP3    H149687   1.359   1.351   0.401  0.1158 -2.0747 -0.1301
 9424TIP3    H249688   1.371   1.408   0.541  0.5478  0.1411 -1.0311
 9425TIP3   OH249689   6.084   5.010   2.098  0.8367 -0.3032  0.1782
 9425TIP3    H149690   6.105   5.052   2.181 -2.1488 -1.0861  1.4665
 9425TIP3    H249691   6.104   4.917   2.113 -0.2835 -0.5372  0.2537
 9426TIP3   OH249692   1.292   5.703  14.135 -0.0458  0.0919 -0.3525
 9426TIP3    H149693   1.240   5.658  14.068  0.1825 -3.6542  1.7031
 9426TIP3    H249694   1.305   5.637  14.204  2.3613  2.7163  1.9850
 9427TIP3   OH249695   4.600   4.363   5.168 -0.3818 -0.2059  0.4359
 9427TIP3    H149696   4.620   4.393   5.256  1.0089  0.5445 -0.1061
 9427TIP3    H249697   4.581   4.269   5.178  0.9956 -0.4082  1.3672
 9428TIP3   OH249698   0.787   6.248  17.293 -0.3327 -0.0934  0.1526
 9428TIP3    H149699   0.858   6.280  17.350 -0.5581 -0.9181  0.9165
 9428TIP3    H249700   0.787   6.309  17.219 -0.0157  1.0084  1.0238
 9429TIP3   OH249701   5.691   6.180   5.010 -0.4485 -0.4492  0.4697
 9429TIP3    H149702   5.640   6.157   5.087 -0.9641  1.5384  0.7851
 9429TIP3    H249703   5.628   6.179   4.938 -0.7192  0.8577  0.6607
 9430TIP3   OH249704   0.629   3.969   5.440 -1.1815 -0.7460 -0.2401
 9430TIP3    H149705   0.691   4.035   5.470 -2.7226  0.9865 -0.7110
 9430TIP3    H249706   0.677   3.919   5.374  0.0197 -0.1473  0.1463
 9431TIP3   OH249707   0.059   6.005  15.914 -0.0163 -0.8320 -0.0337
 9431TIP3    H149708   0.018   6.074  15.966 -0.3539 -2.2267  1.6520
 9431TIP3    H249709   0.054   6.036  15.824  1.1642  1.9829  0.7731
 9432TIP3   OH249710   6.608   0.381   5.508  0.2917  0.6115  0.3209
 9432TIP3    H149711   6.694   0.421   5.492 -0.1899  0.9482 -1.8129
 9432TIP3    H249712   6.601   0.378   5.603  1.8658  2.3452  0.5762
 9433TIP3   OH249713   6.619   0.237  16.993  0.1524 -0.1991  0.4426
 9433TIP3    H149714   6.544   0.189  17.030  1.0491 -1.3868  0.7897
 9433TIP3    H249715   6.636   0.193  16.909  1.3153 -0.8725  1.0055
 9434TIP3   OH249716   1.694   4.762   0.830  0.4834 -0.0211 -0.6234
 9434TIP3    H149717   1.619   4.819   0.847 -0.0642 -1.1777  1.1540
 9434TIP3    H249718   1.695   4.751   0.735 -0.9241  0.8982 -0.7791
 9435TIP3   OH249719   5.006   0.762   0.843 -0.9004 -0.3631 -0.3715
 9435TIP3    H149720   5.061   0.707   0.786  0.6276  0.3484  0.3511
 9435TIP3    H249721   4.954   0.814   0.782 -0.8450 -1.1185 -1.0889
 9436TIP3   OH249722   0.535   6.259  14.375  0.5309 -0.4013  0.7699
 9436TIP3    H149723   0.490   6.289  14.454  3.3087  0.2619  2.2311
 9436TIP3    H249724   0.464   6.232  14.316 -1.9166  3.2656  1.6820
 9437TIP3   OH249725   5.083   1.618   5.675  0.4096  0.1130  0.2456
 9437TIP3    H149726   5.070   1.536   5.723  1.8829  0.0600  0.6177
 9437TIP3    H249727   5.120   1.678   5.740  1.4509  0.3666 -0.5425
 9438TIP3   OH249728   5.449   3.984  10.692 -0.3703 -0.0987 -0.3623
 9438TIP3    H149729   5.511   4.027  10.632  0.0512 -1.2590 -0.7749
 9438TIP3    H249730   5.365   4.028  10.675  0.4993  2.3742  1.0722
 9439TIP3   OH249731   3.977   5.682  13.595  0.1888  1.1663  0.0642
 9439TIP3    H149732   4.012   5.600  13.559 -1.1607  0.4535  0.3195
 9439TIP3    H249733   4.055   5.735  13.614  1.0262  0.7982 -2.0483
 9440TIP3   OH249734   1.847   0.850  16.825 -0.6464  0.0371  0.6236
 9440TIP3    H149735   1.890   0.780  16.775  3.0832  1.2095  1.7968
 9440TIP3    H249736   1.784   0.805  16.881 -1.1425 -1.8745 -1.3285
 9441TIP3   OH249737   4.858   1.085  14.875 -0.2617 -0.1770 -0.4921
 9441TIP3    H149738   4.914   1.050  14.945 -0.3728 -1.2475 -0.9173
 9441TIP3    H249739   4.882   1.177  14.869  1.5361 -0.6248 -0.7284
 9442TIP3   OH249740   1.606   6.453   6.438 -0.1835 -0.1692  0.9991
 9442TIP3    H149741   1.654   6.371   6.425 -0.4206 -0.1199 -0.2437
 9442TIP3    H249742   1.537   6.451   6.373  0.6629  1.6661 -0.0091
 9443TIP3   OH249743   5.622   4.543   0.767 -0.2887  0.6521  0.1146
 9443TIP3    H149744   5.615   4.629   0.809  2.3768  1.0713 -0.1431
 9443TIP3    H249745   5.647   4.484   0.839 -0.3396  0.4243 -0.0538
 9444TIP3   OH249746   6.143   5.628  12.389 -0.2452  0.7892  0.4346
 9444TIP3    H149747   6.065   5.683  12.401 -0.5188  0.3706  0.5787
 9444TIP3    H249748   6.215   5.681  12.425 -0.2903  1.6238 -0.6587
 9445TIP3   OH249749   1.261   3.564  13.420 -0.1042 -0.0306  0.0812
 9445TIP3    H149750   1.200   3.594  13.352 -0.2926 -0.5401  0.0180
 9445TIP3    H249751   1.209   3.504  13.474  0.6349 -1.4482 -0.6974
 9446TIP3   OH249752   2.923   2.248  11.518 -0.1937  0.4498  0.2372
 9446TIP3    H149753   3.016   2.263  11.537  0.2219 -2.4518  0.8503
 9446TIP3    H249754   2.877   2.280  11.595  0.3992  0.7237  0.4813
 9447TIP3   OH249755   6.142   1.527  15.680  0.1766  0.0094  0.4073
 9447TIP3    H149756   6.141   1.584  15.757 -0.4827  0.1332  0.3130
 9447TIP3    H249757   6.119   1.585  15.608 -0.1340 -0.3025  0.2564
 9448TIP3   OH249758   6.735   0.238   0.747  0.0289  0.3294 -0.0867
 9448TIP3    H149759   6.722   0.332   0.761  0.5908  0.1373  2.0933
 9448TIP3    H249760   6.822   0.221   0.784 -0.4435 -1.2045  0.3727
 9449TIP3   OH249761   4.250   0.657   0.008 -0.5465 -0.2096  0.0309
 9449TIP3    H149762   4.251   0.736  -0.046  0.4497  0.8209  1.4675
 9449TIP3    H249763   4.223   0.587  -0.051 -1.9028  1.2736 -1.1889
 9450TIP3   OH249764   6.312   4.884  14.914 -0.1674  0.0006  0.2348
 9450TIP3    H149765   6.338   4.813  14.974  0.9008 -0.5121 -0.7924
 9450TIP3    H249766   6.218   4.871  14.901  0.2620 -2.2799 -1.1930
 9451TIP3   OH249767   0.241   0.825   4.487  0.0083  0.2832 -0.6919
 9451TIP3    H149768   0.280   0.781   4.412 -1.5070 -0.2866 -1.1771
 9451TIP3    H249769   0.151   0.793   4.490 -0.9960  2.8744 -0.6843
 9452TIP3   OH249770   0.122   2.775  15.772  0.2148  0.1670 -0.3139
 9452TIP3    H149771   0.208   2.813  15.757 -0.5881  2.3794  0.3848
 9452TIP3    H249772   0.065   2.818  15.708 -0.4926 -0.9321 -0.4611
 9453TIP3   OH249773   4.840   4.946   1.872  0.4865  0.0929  0.6124
 9453TIP3    H149774   4.799   5.004   1.937 -0.4598 -0.6855  0.7171
 9453TIP3    H249775   4.886   4.881   1.925  1.7859  0.8693  0.4966
 9454TIP3   OH249776   4.940   4.834   3.270 -0.6449 -0.1370 -0.1638
 9454TIP3    H149777   4.924   4.845   3.176  0.0137  0.1344 -0.2467
 9454TIP3    H249778   4.906   4.746   3.290 -2.0057  0.3187 -0.3718
 9455TIP3   OH249779   4.724   1.890  17.078  0.3274  0.6986 -0.5713
 9455TIP3    H149780   4.682   1.967  17.039  1.7711  1.2587 -1.0806
 9455TIP3    H249781   4.814   1.893  17.048  0.8731 -0.2378  0.8219
 9456TIP3   OH249782   4.653   5.607  12.769  0.1350 -0.0049 -0.3536
 9456TIP3    H149783   4.599   5.576  12.842  0.7516 -0.3096 -0.0182
 9456TIP3    H249784   4.658   5.702  12.782  1.5727 -0.2155  0.9588
 9457TIP3   OH249785   4.352   5.180  16.715  0.4765 -0.1645 -0.2197
 9457TIP3    H149786   4.332   5.134  16.796 -0.8844  0.3512 -0.2430
 9457TIP3    H249787   4.294   5.256  16.715  0.1073 -0.4084 -1.8932
 9458TIP3   OH249788   3.282   3.548  13.259  0.4256  0.7933  0.1452
 9458TIP3    H149789   3.347   3.542  13.329  1.8951  2.0773 -1.0424
 9458TIP3    H249790   3.289   3.637  13.227 -2.9997  1.4776  0.9009
 9459TIP3   OH249791   1.954   2.805   0.004 -0.7617  0.1516 -0.1290
 9459TIP3    H149792   1.884   2.842  -0.049 -1.2630  1.8709  1.6421
 9459TIP3    H249793   1.976   2.873   0.067  2.9702 -0.0501 -0.9618
 9460TIP3   OH249794   1.400   3.935   2.967  0.0982  0.1158 -0.5600
 9460TIP3    H149795   1.345   3.979   2.902  0.0245  2.5093  1.0065
 9460TIP3    H249796   1.481   3.986   2.969  0.2246 -0.1054  0.9869
 9461TIP3   OH249797   6.647   2.476  15.302  0.2700 -0.5610  0.0376
 9461TIP3    H149798   6.693   2.402  15.341  0.9031  0.0236  0.4234
 9461TIP3    H249799   6.702   2.552  15.322 -0.8070  0.1409  0.4403
 9462TIP3   OH249800   1.316   0.376   2.681 -0.6817 -0.0234 -0.2842
 9462TIP3    H149801   1.339   0.467   2.662  1.3741 -0.5852 -0.6518
 9462TIP3    H249802   1.297   0.337   2.596  0.5817 -0.4761 -0.3733
 9463TIP3   OH249803   6.124   2.958   2.007  0.0284 -0.0161 -0.2185
 9463TIP3    H149804   6.186   2.897   2.046 -1.2126 -2.4634 -1.8145
 9463TIP3    H249805   6.070   2.988   2.081 -0.3226 -2.1296  0.4542
 9464TIP3   OH249806   0.202   6.472   0.733  0.0876 -0.0827 -0.0707
 9464TIP3    H149807   0.270   6.442   0.794 -0.8470 -1.9091  0.1448
 9464TIP3    H249808   0.190   6.564   0.754  1.8311  0.0452  0.5251
 9465TIP3   OH249809   4.189   4.650   0.019  0.5462  0.5764  0.0097
 9465TIP3    H149810   4.169   4.670   0.110  1.5382 -0.4969  0.4799
 9465TIP3    H249811   4.212   4.735  -0.020  0.7537  0.9441  0.9159
 9466TIP3   OH249812   2.102   5.589  13.715  0.4103 -0.0500 -0.2501
 9466TIP3    H149813   2.178   5.559  13.765 -0.4161  0.7378  1.5561
 9466TIP3    H249814   2.063   5.657  13.769 -1.4719 -0.2894 -1.2324
 9467TIP3   OH249815   5.705   3.906  13.623  0.4516 -0.5734 -0.4158
 9467TIP3    H149816   5.756   3.972  13.670 -0.4494 -0.6260  0.6694
 9467TIP3    H249817   5.655   3.861  13.691  0.9105 -2.2844 -1.1470
 9468TIP3   OH249818   2.272   5.058   1.797 -0.1800  0.6954 -0.0579
 9468TIP3    H149819   2.209   4.991   1.769 -0.0625  1.1490 -1.4858
 9468TIP3    H249820   2.234   5.094   1.877 -1.2573  0.3102 -0.3714
 9469TIP3   OH249821   2.017   6.267  11.652 -0.1346  0.2531  0.2513
 9469TIP3    H149822   2.068   6.284  11.731 -0.8815  0.0261  0.7962
 9469TIP3    H249823   2.046   6.334  11.590  1.9539 -0.8171 -0.0121
 9470TIP3   OH249824   3.031   6.141  13.359 -0.4608 -0.4277 -0.2979
 9470TIP3    H149825   3.034   6.157  13.454  0.8919 -1.7164 -0.0722
 9470TIP3    H249826   3.045   6.226  13.319  0.2741 -0.0626  0.6959
 9471TIP3   OH249827   6.694   2.682  14.881  0.2358 -0.3139 -0.2406
 9471TIP3    H149828   6.619   2.721  14.837 -0.9598 -0.0581  1.9256
 9471TIP3    H249829   6.745   2.642  14.810 -0.3457  2.0507 -2.1285
 9472TIP3   OH249830   4.343   0.809   0.749  0.3133 -0.2201  0.1002
 9472TIP3    H149831   4.265   0.826   0.802  1.2255 -0.6445  1.6122
 9472TIP3    H249832   4.349   0.714   0.744  0.7720 -0.1878  0.0227
 9473TIP3   OH249833   3.997   1.377  15.616  0.3938 -0.4453  0.1859
 9473TIP3    H149834   4.042   1.295  15.635  0.9702 -0.2916 -0.4823
 9473TIP3    H249835   4.011   1.391  15.523  1.2535  0.9699  0.4929
 9474TIP3   OH249836   4.700   1.689   4.002 -0.9371  0.6862  0.2170
 9474TIP3    H149837   4.751   1.652   4.074  0.3296  0.8515 -0.5655
 9474TIP3    H249838   4.639   1.619   3.978 -0.6452  0.2409  0.7407
 9475TIP3   OH249839   6.192   2.867   1.722 -0.4727 -0.2463  0.2861
 9475TIP3    H149840   6.191   2.866   1.817  2.7305  1.6677  0.4897
 9475TIP3    H249841   6.147   2.948   1.698  1.2827  0.8134  0.4094
 9476TIP3   OH249842   4.334   5.091  11.054 -0.0185  0.3614  0.1759
 9476TIP3    H149843   4.260   5.063  11.108  0.2298  0.4011  0.5407
 9476TIP3    H249844   4.399   5.021  11.065 -0.0986  0.1961 -0.3519
 9477TIP3   OH249845   1.108   6.362   2.018  0.2289 -0.1068 -0.4597
 9477TIP3    H149846   1.031   6.372   1.962 -0.6647  2.2373  1.0337
 9477TIP3    H249847   1.097   6.277   2.060  0.3476 -1.4089 -2.8685
 9478TIP3   OH249848   1.253   3.187  13.540  0.6797  0.3215 -0.4931
 9478TIP3    H149849   1.282   3.096  13.554  1.2236  0.4588 -0.7066
 9478TIP3    H249850   1.157   3.181  13.536  0.4947  0.1042  2.1440
 9479TIP3   OH249851   0.675   6.751  14.046 -0.2577 -0.3839  0.4697
 9479TIP3    H149852   0.733   6.677  14.026 -0.7327 -0.9189  1.0395
 9479TIP3    H249853   0.601   6.739  13.987 -1.2120 -1.4268  1.8340
 9480TIP3   OH249854   1.568   3.388   0.697 -0.1261 -0.3128 -0.1591
 9480TIP3    H149855   1.633   3.416   0.760  0.1149 -0.2035 -0.4548
 9480TIP3    H249856   1.615   3.331   0.636 -0.4215 -0.6590 -0.0675
 9481TIP3   OH249857   1.748   5.250   3.107  0.5286  0.0028 -0.2951
 9481TIP3    H149858   1.699   5.242   3.026 -0.2707 -0.8999  0.2631
 9481TIP3    H249859   1.826   5.197   3.093  0.3054 -0.2972 -0.4093
 9482TIP3   OH249860   0.193   1.686   3.097 -0.0357  0.0068 -0.5354
 9482TIP3    H149861   0.141   1.670   3.018 -0.0929  0.3504 -0.5700
 9482TIP3    H249862   0.247   1.607   3.107 -0.3952 -0.2546 -0.6293
 9483TIP3   OH249863   2.542   5.861  13.511  0.6110  0.0186  0.1980
 9483TIP3    H149864   2.497   5.945  13.519  1.2678  0.6858 -2.1406
 9483TIP3    H249865   2.633   5.885  13.491  0.9324 -1.2549  0.0728
 9484TIP3   OH249866   0.964   5.276  10.809 -0.0386  0.2778  0.2275
 9484TIP3    H149867   0.913   5.271  10.728  0.1900 -0.4841  0.1269
 9484TIP3    H249868   0.985   5.185  10.830 -1.7345  0.2646  2.1941
 9485TIP3   OH249869   0.760   5.360  13.116 -0.6125  0.0169  0.6583
 9485TIP3    H149870   0.741   5.336  13.207  0.5816  0.5880  1.0797
 9485TIP3    H249871   0.842   5.409  13.121 -0.8298  0.5549 -0.6667
 9486TIP3   OH249872   6.666   2.817  10.655 -0.2269  0.3658 -0.3579
 9486TIP3    H149873   6.723   2.887  10.624  0.1545  0.5853  0.8156
 9486TIP3    H249874   6.679   2.815  10.750 -0.1945 -1.3159 -0.3656
 9487TIP3   OH249875   1.795   6.556   2.336  0.0698 -0.1132  0.2065
 9487TIP3    H149876   1.776   6.502   2.413 -2.4629  0.7087  0.2578
 9487TIP3    H249877   1.710   6.593   2.312  1.4432  2.7638 -0.6361
 9488TIP3   OH249878   2.586   4.207   2.839  0.3149  0.5165  0.0837
 9488TIP3    H149879   2.598   4.244   2.751  1.4252 -0.5568 -0.2391
 9488TIP3    H249880   2.572   4.284   2.895 -0.5907  1.2145 -1.0371
 9489TIP3   OH249881   4.939   6.318   0.136  0.5737  0.1743 -0.3740
 9489TIP3    H149882   4.915   6.278   0.053  0.3602  0.7652 -0.6020
 9489TIP3    H249883   4.895   6.403   0.136  0.6511  0.2253  0.2982
 9490TIP3   OH249884   4.803   4.232  13.027  0.1277  0.0161 -0.3886
 9490TIP3    H149885   4.762   4.311  12.991  1.0002  0.1879 -1.0362
 9490TIP3    H249886   4.893   4.259  13.048  0.3954 -0.7675 -0.5079
 9491TIP3   OH249887   5.009   5.658  16.445 -0.1248  0.0748  0.6329
 9491TIP3    H149888   5.041   5.599  16.376 -1.8119 -1.6491  1.2319
 9491TIP3    H249889   5.067   5.641  16.519  0.4187  0.4208  0.2967
 9492TIP3   OH249890   6.405   0.233   2.990 -0.3987  0.3258  0.1829
 9492TIP3    H149891   6.326   0.195   3.027 -1.0050  1.6871  0.3304
 9492TIP3    H249892   6.399   0.214   2.896 -0.4395 -0.3562  0.3195
 9493TIP3   OH249893   0.976   2.530   4.792  0.3136 -0.0613 -0.0591
 9493TIP3    H149894   0.891   2.487   4.795 -0.0192  0.5083 -1.0224
 9493TIP3    H249895   1.034   2.466   4.749  0.2372 -0.2323  0.0940
 9494TIP3   OH249896   3.701   1.130   1.390 -0.0735 -0.0420 -0.3479
 9494TIP3    H149897   3.699   1.188   1.466 -1.7994  0.5175 -0.7630
 9494TIP3    H249898   3.754   1.055   1.418  0.5096  0.7965  0.8947
 9495TIP3   OH249899   0.007   0.515   4.466  0.6714 -0.0880  0.4045
 9495TIP3    H149900   0.028   0.531   4.558 -0.0726  0.1337  0.5378
 9495TIP3    H249901  -0.016   0.601   4.431 -2.0648 -0.5717  0.7992
 9496TIP3   OH249902   2.465   4.037  16.420 -0.3579 -0.2375 -0.1633
 9496TIP3    H149903   2.503   4.121  16.445 -1.3462 -0.1372  1.1515
 9496TIP3    H249904   2.386   4.030  16.474 -0.3844 -1.9331 -0.3643
 9497TIP3   OH249905   3.363   0.460   1.332  0.1866 -0.0434 -0.4588
 9497TIP3    H149906   3.283   0.430   1.288  0.3117 -1.2020  0.0694
 9497TIP3    H249907   3.349   0.553   1.346 -1.4621 -0.3910  0.4037
 9498TIP3   OH249908   0.572   1.019   1.111  0.2577  0.3915 -0.2575
 9498TIP3    H149909   0.559   1.034   1.017  0.9161  2.7187 -0.0362
 9498TIP3    H249910   0.519   1.085   1.154  0.0885 -0.5515  1.0241
 9499TIP3   OH249911   3.367   1.694   5.700 -0.3202  0.4967 -0.0274
 9499TIP3    H149912   3.382   1.784   5.730  1.0067 -0.3183  1.9533
 9499TIP3    H249913   3.452   1.652   5.708 -1.4852 -1.7024  1.9502
 9500TIP3   OH249914   3.663   4.284  14.435  0.2119 -0.5235 -0.2974
 9500TIP3    H149915   3.730   4.282  14.504  1.8022 -2.4995 -1.7885
 9500TIP3    H249916   3.628   4.373  14.439  1.2219 -0.1331  2.1050
 9501TIP3   OH249917   0.809   5.216  13.811  0.4158  0.1243  0.1180
 9501TIP3    H149918   0.858   5.139  13.782 -0.7547 -0.5105 -0.2705
 9501TIP3    H249919   0.869   5.263  13.868  0.8146 -1.6796  1.2792
 9502TIP3   OH249920   0.194   1.785  16.323  0.3863  0.2381 -0.3305
 9502TIP3    H149921   0.231   1.871  16.343  1.3524  0.2942 -2.1638
 9502TIP3    H249922   0.236   1.725  16.385  1.6740  0.7003 -0.7281
 9503TIP3   OH249923   2.418   6.177   1.882  0.3559  0.4267 -0.1753
 9503TIP3    H149924   2.477   6.109   1.913  0.9240  0.1969 -1.6636
 9503TIP3    H249925   2.438   6.254   1.935  1.2935  0.0650 -0.0041
 9504TIP3   OH249926   1.241   0.463  11.400 -0.3226  0.4063 -0.2299
 9504TIP3    H149927   1.291   0.507  11.331  0.5690  0.9097  0.7084
 9504TIP3    H249928   1.237   0.527  11.471  1.8197 -1.2631  1.5582
 9505TIP3   OH249929   5.486   3.520  15.186 -0.0154 -0.3502 -0.0622
 9505TIP3    H149930   5.405   3.484  15.221  0.3043 -1.8329 -0.8093
 9505TIP3    H249931   5.484   3.499  15.093  0.7902  0.4454 -0.2712
 9506TIP3   OH249932   6.111   0.725  17.120  0.0664  0.2316  0.0770
 9506TIP3    H149933   6.033   0.712  17.066 -1.2323  0.7156  1.7525
 9506TIP3    H249934   6.128   0.639  17.158 -1.7563  0.7765  2.3480
 9507TIP3   OH249935   0.477   2.611   0.464  0.3126  0.3859  0.0761
 9507TIP3    H149936   0.459   2.669   0.538  1.1578  0.0729  0.5430
 9507TIP3    H249937   0.415   2.538   0.476 -0.4923  0.9900 -0.3039
 9508TIP3   OH249938   6.114   5.040   6.412 -0.1825  0.5329 -0.4319
 9508TIP3    H149939   6.129   5.082   6.497 -1.8720  0.0748  0.1428
 9508TIP3    H249940   6.147   4.951   6.424 -2.6585 -0.3239  0.6615
 9509TIP3   OH249941   0.827   0.790   5.530  0.2213 -0.1059 -0.0200
 9509TIP3    H149942   0.885   0.715   5.540 -0.9143 -1.2992 -1.7079
 9509TIP3    H249943   0.829   0.808   5.436 -0.8819  0.8461  0.1274
 9510TIP3   OH249944   5.123   3.418   2.312  0.0443  0.2080 -0.2950
 9510TIP3    H149945   5.036   3.380   2.301 -0.3280  0.3053  1.9057
 9510TIP3    H249946   5.110   3.512   2.297 -0.6980  0.5140  1.9408
 9511TIP3   OH249947   2.788   3.921  13.897  0.3747  0.0066 -0.8778
 9511TIP3    H149948   2.854   3.857  13.871  1.3002  0.9194 -0.8499
 9511TIP3    H249949   2.706   3.871  13.902  1.6138 -2.0738  2.6725
 9512TIP3   OH249950   1.919   3.040   1.490 -0.1467  0.3027  0.4168
 9512TIP3    H149951   1.994   2.981   1.495 -1.1114 -0.9347  0.8354
 9512TIP3    H249952   1.918   3.085   1.574  0.2740  0.5054  0.3124
 9513TIP3   OH249953   1.193   3.438  15.579 -0.5578 -0.7193 -0.7908
 9513TIP3    H149954   1.232   3.353  15.600 -0.2657 -0.2347  0.7581
 9513TIP3    H249955   1.170   3.476  15.664 -0.4286  0.8716 -1.4211
 9514TIP3   OH249956   2.400   3.519   1.603 -0.3973 -0.0631  0.6218
 9514TIP3    H149957   2.358   3.435   1.624  0.4391 -0.3044  1.3621
 9514TIP3    H249958   2.391   3.571   1.682  1.2820 -0.3704  1.0550
 9515TIP3   OH249959   2.911   5.543  12.690  0.0759  0.8177  0.1252
 9515TIP3    H149960   2.984   5.488  12.718  0.7774  1.2508 -0.7880
 9515TIP3    H249961   2.844   5.481  12.661  0.6983  0.4295 -0.5066
 9516TIP3   OH249962   6.685   2.870   5.862  0.2038  0.1286 -0.3747
 9516TIP3    H149963   6.649   2.959   5.858  0.1927  0.1856  0.6733
 9516TIP3    H249964   6.707   2.858   5.954  2.2336 -0.1634 -0.8532
 9517TIP3   OH249965   5.317   2.759   3.265 -0.0936  0.1126 -0.0878
 9517TIP3    H149966   5.359   2.734   3.182  1.4266 -0.6786  0.8666
 9517TIP3    H249967   5.268   2.681   3.291 -1.3088  0.6638 -0.6528
 9518TIP3   OH249968   4.706   3.500  16.396 -0.5424  0.6111 -0.0551
 9518TIP3    H149969   4.736   3.418  16.356  0.5671  0.0384  1.8148
 9518TIP3    H249970   4.691   3.558  16.322  2.4517 -0.0274 -1.3199
 9519TIP3   OH249971   4.097   0.823  13.484  0.2367  0.8353  0.3306
 9519TIP3    H149972   4.138   0.862  13.407 -0.6618  0.8356 -0.1682
 9519TIP3    H249973   4.103   0.890  13.552  0.4445  1.0924  0.0591
 9520TIP3   OH249974   1.459   6.434  11.791 -0.0656 -0.0112 -0.0851
 9520TIP3    H149975   1.549   6.423  11.821 -0.3473 -1.6762  0.2915
 9520TIP3    H249976   1.417   6.488  11.858  0.8785  1.6182 -0.7722
 9521TIP3   OH249977   5.386   0.691   4.031 -0.3012 -0.1597 -0.1019
 9521TIP3    H149978   5.444   0.757   4.070  0.1210 -1.3580  1.3911
 9521TIP3    H249979   5.442   0.613   4.022 -1.3347 -0.9404  0.1224
 9522TIP3   OH249980   6.714   2.066   1.034  0.5113  0.1003 -0.1715
 9522TIP3    H149981   6.695   2.132   0.967 -0.7283  0.1001  0.1598
 9522TIP3    H249982   6.629   2.029   1.057  0.6963  1.0300  2.3386
 9523TIP3   OH249983   6.308   1.687  13.203  0.6347  0.0967 -0.5684
 9523TIP3    H149984   6.371   1.684  13.275 -0.6883 -1.0048  0.6104
 9523TIP3    H249985   6.271   1.599  13.201  0.9831 -0.0604 -2.9609
 9524TIP3   OH249986   1.912   5.348  15.095  0.8217 -0.1049  0.0012
 9524TIP3    H149987   1.920   5.261  15.058 -0.6273 -0.3084  0.1182
 9524TIP3    H249988   2.003   5.378  15.106  1.3833 -1.9624  0.8694
 9525TIP3   OH249989   4.300   5.357  15.542  0.0986 -0.1651  0.9733
 9525TIP3    H149990   4.345   5.424  15.594 -0.5996  1.9003 -0.8990
 9525TIP3    H249991   4.211   5.354  15.577 -0.4166  1.3350 -0.0961
 9526TIP3   OH249992   1.104   3.436  15.323  0.4494  0.1910 -0.0360
 9526TIP3    H149993   1.052   3.516  15.329  1.1486  0.6062  0.6404
 9526TIP3    H249994   1.156   3.435  15.403 -1.1169 -2.0754  1.0833
 9527TIP3   OH249995   2.343   3.448  13.493  0.3394 -0.2702  0.1856
 9527TIP3    H149996   2.402   3.517  13.461 -0.6484  0.5141  0.0262
 9527TIP3    H249997   2.389   3.367  13.473  2.3085  0.3377  1.8741
 9528TIP3   OH249998   4.659   0.060   6.465  0.1226 -0.3018  0.0423
 9528TIP3    H149999   4.614   0.130   6.514  4.5164  0.8679  3.0579
 9528TIP3    H250000   4.703   0.105   6.394 -1.1022 -1.0086 -1.2305
 9529TIP3   OH250001   1.269   5.640  11.983 -0.4250  0.6190  0.0572
 9529TIP3    H150002   1.187   5.639  11.934  0.0539  0.9994 -0.7771
 9529TIP3    H250003   1.301   5.730  11.975  1.1067  0.0122 -1.4410
 9530TIP3   OH250004   6.601   5.809   6.745 -0.2268  0.4700  0.4099
 9530TIP3    H150005   6.682   5.855   6.765  0.5447 -0.2559 -0.8606
 9530TIP3    H250006   6.602   5.732   6.803  0.5021 -0.0493 -0.2665
 9531TIP3   OH250007   2.816   0.241  13.332 -0.2371  0.2625  0.3056
 9531TIP3    H150008   2.841   0.205  13.418  0.2483  1.7489  0.8053
 9531TIP3    H250009   2.846   0.331  13.334 -1.4820  0.7301 -0.9149
 9532TIP3   OH250010   4.870   0.602  13.452 -0.1190  0.3940  0.3380
 9532TIP3    H150011   4.965   0.613  13.454 -0.0624  0.0657 -0.2881
 9532TIP3    H250012   4.847   0.568  13.539  0.2760  0.8731  0.6362
 9533TIP3   OH250013   3.921   6.364   5.567 -0.0970 -0.1402 -0.0981
 9533TIP3    H150014   3.969   6.405   5.639  0.3287 -1.3645  0.3282
 9533TIP3    H250015   3.900   6.437   5.508 -0.8430  0.9758  1.4571
 9534TIP3   OH250016   1.573   3.473  11.367  0.1455  0.5304 -0.8281
 9534TIP3    H150017   1.581   3.402  11.431 -3.1386 -1.0430 -1.9387
 9534TIP3    H250018   1.642   3.535  11.392  2.7429 -2.6270  0.6797
 9535TIP3   OH250019   6.558   0.822   1.822  0.5436  0.7414  0.3142
 9535TIP3    H150020   6.520   0.909   1.812 -0.8721  0.4319  2.3588
 9535TIP3    H250021   6.642   0.837   1.865 -0.9190  1.0726  3.3573
 9536TIP3   OH250022   5.304   3.116  11.699  0.5150  0.1059  0.1629
 9536TIP3    H150023   5.290   3.037  11.646  3.1051  0.4597 -1.1886
 9536TIP3    H250024   5.384   3.098  11.747  1.7639  2.2729 -0.9872
 9537TIP3   OH250025   2.780   5.981  10.981  0.5740  0.0368  0.3239
 9537TIP3    H150026   2.781   6.054  10.919  2.4097  0.3770  0.7227
 9537TIP3    H250027   2.704   5.999  11.037 -0.4709  0.2959 -1.1005
 9538TIP3   OH250028   0.111   2.902   1.388  0.5836  0.3391 -0.3890
 9538TIP3    H150029   0.115   2.940   1.476 -0.2375  1.5072 -0.8343
 9538TIP3    H250030   0.030   2.936   1.350 -0.2048 -1.8837 -0.8493
 9539TIP3   OH250031   1.158   0.264   4.973  0.1398 -0.4604  0.2055
 9539TIP3    H150032   1.151   0.285   5.066  0.9595  2.7204 -0.3110
 9539TIP3    H250033   1.069   0.273   4.939  0.1385  0.2381  0.3827
 9540TIP3   OH250034   2.438   0.548  14.796  0.4223 -0.5051 -0.1366
 9540TIP3    H150035   2.375   0.502  14.740 -1.0040  1.0589  0.1034
 9540TIP3    H250036   2.460   0.485  14.864 -0.0269 -1.4687 -0.8615
 9541TIP3   OH250037   4.533   2.595   2.997 -0.3208 -0.0376 -0.4084
 9541TIP3    H150038   4.504   2.653   2.926  1.3453  0.2060 -0.9342
 9541TIP3    H250039   4.521   2.646   3.077  0.0567  0.6166 -0.7590
 9542TIP3   OH250040   3.737   2.951   4.929 -0.1269  0.0581  0.1356
 9542TIP3    H150041   3.744   2.872   4.875  0.0584 -0.6141  1.1142
 9542TIP3    H250042   3.644   2.975   4.923 -0.1298 -0.0579 -0.3941
 9543TIP3   OH250043   0.243   3.761  15.608 -0.1394  0.1751 -0.4537
 9543TIP3    H150044   0.337   3.776  15.623 -0.4362  1.9454 -0.1463
 9543TIP3    H250045   0.203   3.766  15.695 -0.6151  0.1674 -0.6682
 9544TIP3   OH250046   2.700   5.818   6.040  0.4760  0.1702 -0.5673
 9544TIP3    H150047   2.670   5.906   6.018 -0.6231 -0.0060  0.1191
 9544TIP3    H250048   2.623   5.763   6.027  1.9879 -1.4065 -4.6092
 9545TIP3   OH250049   5.138   1.976  15.588 -0.7455  0.5087 -0.0330
 9545TIP3    H150050   5.067   1.983  15.525  0.3328  0.8486 -1.2670
 9545TIP3    H250051   5.166   2.066  15.603 -0.1196  0.3397 -0.1299
 9546TIP3   OH250052   4.712   3.899  11.521  0.0703  0.0495 -0.2747
 9546TIP3    H150053   4.624   3.886  11.557  1.6805 -0.1200  4.1762
 9546TIP3    H250054   4.724   3.825  11.460 -2.3313 -0.7553  0.1265
 9547TIP3   OH250055   1.309   6.361  15.378 -0.4244 -0.2814  0.0757
 9547TIP3    H150056   1.242   6.412  15.333 -1.4482 -1.5598  0.0735
 9547TIP3    H250057   1.273   6.347  15.465  1.0831  1.2975  1.0081
 9548TIP3   OH250058   0.998   5.489  16.046 -0.1234  0.0087  0.3144
 9548TIP3    H150059   1.031   5.431  16.114  0.4578  0.6057  0.5478
 9548TIP3    H250060   1.018   5.444  15.964 -1.0410 -0.8257  0.5280
 9549TIP3   OH250061   2.888   3.246  15.838  0.3964  0.1934 -0.1712
 9549TIP3    H150062   2.821   3.313  15.840 -0.3215 -0.4414 -1.5698
 9549TIP3    H250063   2.942   3.268  15.762  0.0637 -0.8775 -0.7364
 9550TIP3   OH250064   2.707   6.504   4.505 -0.0686  0.5570  0.1177
 9550TIP3    H150065   2.779   6.555   4.467  2.8116 -2.4517  1.0732
 9550TIP3    H250066   2.713   6.518   4.599  0.0968 -0.6772  0.3079
 9551TIP3   OH250067   2.636   5.357  16.709  0.2568  0.1253  0.4054
 9551TIP3    H150068   2.661   5.276  16.665 -1.3274 -0.4841  0.5578
 9551TIP3    H250069   2.600   5.329  16.793 -2.8102  0.6813 -0.5927
 9552TIP3   OH250070   6.280   4.489  12.765  0.0180  0.3080  0.6219
 9552TIP3    H150071   6.272   4.576  12.805 -2.9271 -0.3425  1.7210
 9552TIP3    H250072   6.278   4.428  12.839  1.6436 -0.7568 -0.1555
 9553TIP3   OH250073   4.208   6.041  15.947  0.3276  0.0372 -0.2727
 9553TIP3    H150074   4.295   6.081  15.948  0.4201 -0.0074  2.3268
 9553TIP3    H250075   4.203   5.995  15.864  2.1792  1.3205 -1.1548
 9554TIP3   OH250076   3.849   0.621   1.624  0.2604 -0.5096  0.3052
 9554TIP3    H150077   3.769   0.595   1.579  1.1775 -1.2942 -0.9545
 9554TIP3    H250078   3.820   0.680   1.693 -1.1946  1.0411 -1.5328
 9555TIP3   OH250079   4.456   5.406   5.369  0.1263  0.0976 -0.3764
 9555TIP3    H150080   4.438   5.485   5.422 -1.6214 -1.0650  0.8754
 9555TIP3    H250081   4.397   5.340   5.404  1.3726 -1.7357 -1.5692
 9556TIP3   OH250082   6.365   5.856   0.250 -0.6402 -0.1210  0.3229
 9556TIP3    H150083   6.401   5.780   0.205 -0.2083 -0.1676  0.7375
 9556TIP3    H250084   6.305   5.896   0.187  0.1666 -0.0243 -0.3896
 9557TIP3   OH250085   4.672   1.224  16.545  0.4025  0.1263 -0.0727
 9557TIP3    H150086   4.730   1.148  16.538 -1.8386 -1.7275  0.0175
 9557TIP3    H250087   4.597   1.202  16.490 -0.1164  2.5598 -0.4559
 9558TIP3   OH250088   0.691   6.308  12.266  0.0399 -0.0924 -0.2402
 9558TIP3    H150089   0.701   6.252  12.189 -0.8310  1.3169 -1.4023
 9558TIP3    H250090   0.769   6.364  12.265  0.5322 -0.7263  0.5060
 9559TIP3   OH250091   5.700   0.724   2.344 -0.0279 -0.5522  0.1822
 9559TIP3    H150092   5.730   0.688   2.427 -2.7994 -0.1066  1.5083
 9559TIP3    H250093   5.779   0.730   2.290  1.5722 -2.5629  2.1048
 9560TIP3   OH250094   2.950   3.195   1.449 -0.6756 -0.0306 -0.2712
 9560TIP3    H150095   2.990   3.280   1.465 -0.2581 -0.6738  2.6135
 9560TIP3    H250096   3.023   3.137   1.427 -0.7751  0.0210 -0.7498
 9561TIP3   OH250097   5.419   0.609  11.257  0.0009  0.1917 -0.1630
 9561TIP3    H150098   5.384   0.520  11.252 -1.1214  0.6558 -0.8596
 9561TIP3    H250099   5.406   0.634  11.349  3.1748 -1.4324  0.8771
 9562TIP3   OH250100   0.455   1.624  16.164  0.4377 -0.6601 -0.5248
 9562TIP3    H150101   0.522   1.666  16.111  1.2929 -0.9528  0.3108
 9562TIP3    H250102   0.502   1.582  16.235 -0.7733  0.9589  1.3575
 9563TIP3   OH250103   2.849   2.091   5.179 -0.3857  0.4689  0.3509
 9563TIP3    H150104   2.790   2.041   5.235 -0.8051 -0.6031 -1.0261
 9563TIP3    H250105   2.793   2.155   5.135 -0.6573 -0.8384 -1.2930
 9564TIP3   OH250106   2.659   0.277   6.019 -0.4368 -0.0875  0.3008
 9564TIP3    H150107   2.678   0.204   5.960  1.0833  1.9854 -1.9391
 9564TIP3    H250108   2.568   0.299   6.002 -0.6612 -0.8914  0.3960
 9565TIP3   OH250109   1.811   0.656   2.589 -0.4004 -0.0068 -0.0104
 9565TIP3    H150110   1.858   0.611   2.659 -0.7719 -1.0688 -0.4229
 9565TIP3    H250111   1.820   0.749   2.610  0.8545 -0.2366  0.5657
 9566TIP3   OH250112   2.703   2.446  11.558  0.0240 -0.2050 -0.5899
 9566TIP3    H150113   2.768   2.517  11.558 -0.2088  0.0297  1.0028
 9566TIP3    H250114   2.651   2.462  11.479  0.6518  0.7742 -0.8254
 9567TIP3   OH250115   5.458   3.215  14.331  0.4254  0.1686  0.2425
 9567TIP3    H150116   5.413   3.271  14.395 -0.1779 -0.5051  0.4202
 9567TIP3    H250117   5.450   3.262  14.248 -0.4543  0.1497  0.3077
 9568TIP3   OH250118   3.215   2.055   5.493 -0.5160  0.1238  0.0413
 9568TIP3    H150119   3.264   2.004   5.430 -0.6499  1.2406 -1.0024
 9568TIP3    H250120   3.275   2.123   5.521 -1.4489  1.5965 -1.3615
 9569TIP3   OH250121   1.395   3.955   2.484  0.1352 -0.1390 -0.1658
 9569TIP3    H150122   1.307   3.926   2.459 -1.6364  2.3361  2.4976
 9569TIP3    H250123   1.420   3.895   2.555 -0.6082  0.7156  0.8460
 9570TIP3   OH250124   6.149   6.149   5.188  0.1036 -0.3848 -0.2671
 9570TIP3    H150125   6.070   6.139   5.241 -0.7239  1.1322 -1.1744
 9570TIP3    H250126   6.182   6.059   5.177 -0.2151 -0.8340  1.9805
 9571TIP3   OH250127   1.864   2.339   4.088 -0.9881  0.1720  0.1687
 9571TIP3    H150128   1.839   2.305   4.174 -0.6512 -1.3298 -0.2950
 9571TIP3    H250129   1.956   2.316   4.079  0.0265  3.3920  0.8026
 9572TIP3   OH250130   2.227   5.540  15.589 -0.2558 -0.3700  0.4549
 9572TIP3    H150131   2.229   5.625  15.545  1.1930 -0.4217  0.3550
 9572TIP3    H250132   2.192   5.558  15.676  1.2061  0.5972  0.8972
 9573TIP3   OH250133   2.840   3.193   1.214  0.1052 -0.0907  0.4381
 9573TIP3    H150134   2.819   3.287   1.209 -0.1453 -0.1763 -0.2512
 9573TIP3    H250135   2.896   3.185   1.291  1.2087  0.8300 -0.2383
 9574TIP3   OH250136   5.619   0.875   0.765  0.2460 -0.6235  0.5784
 9574TIP3    H150137   5.528   0.900   0.750  0.6204  0.6207  0.2798
 9574TIP3    H250138   5.617   0.821   0.844 -0.6818 -0.1557  0.8802
 9575TIP3   OH250139   4.345   0.051  11.317 -0.5149 -0.4179 -0.2396
 9575TIP3    H150140   4.292   0.023  11.243 -1.2225 -2.5438  0.9926
 9575TIP3    H250141   4.435   0.029  11.293 -0.8812 -2.3479  0.0169
 9576TIP3   OH250142   4.710   5.974   2.958  0.2201 -0.9644  0.5439
 9576TIP3    H150143   4.650   5.963   2.885 -0.6552 -2.1608  1.4008
 9576TIP3    H250144   4.661   6.027   3.021  2.5663  4.2301 -1.4570
 9577TIP3   OH250145   5.006   3.130  11.938  0.1187  0.3073  0.0247
 9577TIP3    H150146   5.002   3.226  11.937 -0.8410  0.3803 -3.4176
 9577TIP3    H250147   5.095   3.109  11.909  0.2110  0.1596  0.4113
 9578TIP3   OH250148   2.802   4.350  13.772  0.4187 -0.0030 -0.0876
 9578TIP3    H150149   2.742   4.279  13.794  1.1668 -0.4426  0.5820
 9578TIP3    H250150   2.768   4.426  13.820 -0.0713 -0.0392 -0.3727
 9579TIP3   OH250151   5.616   6.683  13.627 -0.3422 -0.2628  0.6856
 9579TIP3    H150152   5.656   6.770  13.620 -1.3768  0.1565 -0.3605
 9579TIP3    H250153   5.687   6.622  13.605  0.2581  0.3467  0.9057
 9580TIP3   OH250154   0.749   0.400  16.621  0.2397  0.0960 -0.2325
 9580TIP3    H150155   0.767   0.331  16.557 -1.0036 -0.7845  0.3358
 9580TIP3    H250156   0.657   0.423  16.606  0.0041  0.0632  1.0600
 9581TIP3   OH250157   1.981   5.776  17.270  0.2780 -0.1704  0.1428
 9581TIP3    H150158   1.952   5.686  17.253  1.9627 -0.3855 -2.0633
 9581TIP3    H250159   1.936   5.828  17.203 -2.9339  1.2485  3.0986
 9582TIP3   OH250160   5.756   5.757  17.127 -0.2748 -0.0067 -0.4762
 9582TIP3    H150161   5.832   5.810  17.103  0.1679 -0.2181  0.4011
 9582TIP3    H250162   5.699   5.818  17.174 -1.1846  0.4319 -2.0769
 9583TIP3   OH250163   6.448   6.644  16.957  0.7285 -0.0066  0.0443
 9583TIP3    H150164   6.435   6.724  17.008  0.1195 -0.9592  1.4336
 9583TIP3    H250165   6.425   6.573  17.017 -1.2101 -1.1404 -1.8802
 9584TIP3   OH250166   6.261   4.859   5.204 -0.1712  0.3907  0.2810
 9584TIP3    H150167   6.249   4.816   5.288 -1.2309 -0.4848 -0.2817
 9584TIP3    H250168   6.172   4.871   5.171  0.2401 -0.0795 -1.0891
 9585TIP3   OH250169   2.843   1.006  13.596 -0.3526  1.2229  0.2679
 9585TIP3    H150170   2.757   0.998  13.638  0.2452  0.2643  1.3594
 9585TIP3    H250171   2.842   1.094  13.557 -2.7951  0.3177 -2.0590
 9586TIP3   OH250172   1.716   4.359  17.155  0.4425 -0.0635  0.0655
 9586TIP3    H150173   1.629   4.395  17.140 -0.9490 -2.2999  2.1503
 9586TIP3    H250174   1.739   4.315  17.074  0.1258  1.3598 -0.8375
 9587TIP3   OH250175   4.624   2.273   5.673  0.0984  0.1246 -0.1289
 9587TIP3    H150176   4.652   2.181   5.665 -1.5594 -0.4011 -0.1030
 9587TIP3    H250177   4.606   2.285   5.766 -1.5146 -0.0954 -0.3943
 9588TIP3   OH250178   4.456   0.685   2.676  0.5238  0.1046  0.2411
 9588TIP3    H150179   4.402   0.606   2.686 -0.8236  0.4895 -2.8467
 9588TIP3    H250180   4.441   0.734   2.757 -1.0424 -1.3991  0.9301
 9589TIP3   OH250181   5.860   6.397   2.764  0.8127  0.4637  0.2543
 9589TIP3    H150182   5.911   6.372   2.841 -0.3069  0.3235  0.9753
 9589TIP3    H250183   5.800   6.465   2.796 -0.8275 -0.7659 -0.0524
 9590TIP3   OH250184   6.040   2.174  17.234  0.0853 -0.8020  0.1320
 9590TIP3    H150185   5.964   2.226  17.259 -0.8131 -2.2781  0.6175
 9590TIP3    H250186   6.062   2.206  17.147  0.3801  1.2359  0.8923
 9591TIP3   OH250187   2.074   5.801  15.238 -0.0610  0.2747  0.9539
 9591TIP3    H150188   2.128   5.863  15.190  1.6736 -1.4637  0.5482
 9591TIP3    H250189   2.108   5.804  15.327 -1.0571  1.0528  1.3271
 9592TIP3   OH250190   5.446   0.282   5.540 -0.0282  0.5375  0.2208
 9592TIP3    H150191   5.455   0.250   5.630 -1.0279  0.9482  0.4776
 9592TIP3    H250192   5.380   0.351   5.546 -0.2178  0.4579 -0.8499
 9593TIP3   OH250193   4.951   1.872  16.921  0.2607  0.1847 -0.2265
 9593TIP3    H150194   4.963   1.967  16.924 -2.5740  0.7141 -1.9326
 9593TIP3    H250195   4.978   1.847  16.832 -0.3123 -0.3810 -0.2460
 9594TIP3   OH250196   5.440   4.930   1.433  0.0511 -0.0177 -0.3166
 9594TIP3    H150197   5.452   5.020   1.461 -1.8110 -0.0455  0.7049
 9594TIP3    H250198   5.415   4.937   1.341  2.7501  0.2664 -1.1312
 9595TIP3   OH250199   4.879   6.597   0.054  0.1924  0.2861  0.2438
 9595TIP3    H150200   4.798   6.643   0.031  0.9615  0.7382 -1.7914
 9595TIP3    H250201   4.940   6.667   0.079  1.0256  0.3568 -1.7921
 9596TIP3   OH250202   0.729   6.646   2.441 -0.3335  0.1378 -0.5592
 9596TIP3    H150203   0.671   6.721   2.453  0.5759  1.0547 -1.7525
 9596TIP3    H250204   0.677   6.584   2.390 -0.7414  0.3440 -0.4086
 9597TIP3   OH250205   5.328   0.733  13.995 -0.3272 -0.4364 -0.4612
 9597TIP3    H150206   5.335   0.655  13.940  0.6647  0.0374 -1.0463
 9597TIP3    H250207   5.338   0.806  13.933 -0.6912  0.1353  0.1508
 9598TIP3   OH250208   6.428   0.104  17.119  0.2377 -0.6617 -0.0432
 9598TIP3    H150209   6.336   0.126  17.133  0.2108  1.4624 -2.7347
 9598TIP3    H250210   6.454   0.058  17.199 -3.2734 -1.8870  0.5934
 9599TIP3   OH250211   1.202   5.104   2.523 -0.5535 -0.3164 -0.5488
 9599TIP3    H150212   1.237   5.193   2.509 -2.4357  0.5718  0.0585
 9599TIP3    H250213   1.199   5.066   2.435 -0.9903  0.7330 -1.0087
 9600TIP3   OH250214   2.059   0.095   4.129 -0.3013  0.1432 -0.2972
 9600TIP3    H150215   2.076   0.001   4.128  1.3710  0.4162 -1.5399
 9600TIP3    H250216   1.969   0.103   4.100 -0.4629 -1.0644 -0.1991
 9601TIP3   OH250217   5.955   5.650  16.282 -0.8567 -0.5855  0.1678
 9601TIP3    H150218   5.902   5.594  16.339 -1.6977 -2.3499 -2.1494
 9601TIP3    H250219   6.044   5.620  16.296 -1.4259 -4.1481 -2.3912
 9602TIP3   OH250220   6.588   3.204   3.764 -0.1962 -0.3202  0.5098
 9602TIP3    H150221   6.511   3.148   3.751 -0.9955  0.5047  1.5301
 9602TIP3    H250222   6.552   3.287   3.796  0.9887  0.6583 -0.5757
 9603TIP3   OH250223   3.720   4.715   1.980  0.2915 -0.1254 -0.3040
 9603TIP3    H150224   3.636   4.753   1.954  0.7036 -0.4330 -2.2749
 9603TIP3    H250225   3.713   4.622   1.957  0.3394 -0.6825  1.7586
 9604TIP3   OH250226   6.500   3.100  13.366 -0.0849  0.2062 -0.1698
 9604TIP3    H150227   6.581   3.115  13.318  0.0382 -3.1699 -1.3014
 9604TIP3    H250228   6.436   3.157  13.323  0.8332 -0.0361 -1.9389
 9605TIP3   OH250229   3.040   6.651   5.602  0.0605  0.5144  0.2830
 9605TIP3    H150230   3.128   6.667   5.636  0.4856  0.9681 -0.9910
 9605TIP3    H250231   3.023   6.724   5.543 -0.9322  0.1148  0.0476
 9606TIP3   OH250232   2.446   2.344   0.796  0.9443 -0.5587 -0.5066
 9606TIP3    H150233   2.523   2.376   0.748  1.0103 -1.1540 -0.8011
 9606TIP3    H250234   2.436   2.253   0.768  0.8453 -0.8483  0.4427
 9607TIP3   OH250235   0.863   3.871   0.307 -0.2105 -0.7140 -0.0909
 9607TIP3    H150236   0.848   3.898   0.397  0.8076  1.5910 -0.5616
 9607TIP3    H250237   0.955   3.845   0.304  0.0199  0.1559 -0.6755
 9608TIP3   OH250238   6.118   1.292   1.010 -0.0661  0.2659  0.1974
 9608TIP3    H150239   6.115   1.319   1.102 -2.1363 -0.4973  0.3986
 9608TIP3    H250240   6.027   1.272   0.987 -0.0257  2.7043 -2.7438
 9609TIP3   OH250241   4.216   5.542   6.105 -0.1589  0.6403  0.3404
 9609TIP3    H150242   4.229   5.509   6.194  1.4634 -0.8532 -0.4174
 9609TIP3    H250243   4.121   5.535   6.091 -0.2156 -0.9485  1.2680
 9610TIP3   OH250244   4.248   4.683   2.777  0.4887  0.8485  0.1975
 9610TIP3    H150245   4.235   4.777   2.789  0.8458  0.9886 -0.4482
 9610TIP3    H250246   4.239   4.670   2.682 -0.2338  0.1263  0.3500
 9611TIP3   OH250247   3.303   2.582  13.917 -0.1502 -0.1588 -0.0695
 9611TIP3    H150248   3.362   2.509  13.934  0.5965  0.2571 -0.7920
 9611TIP3    H250249   3.321   2.643  13.989 -1.3179 -0.9817  0.9639
 9612TIP3   OH250250   5.536   2.301   1.762  0.0152  0.2131 -0.2245
 9612TIP3    H150251   5.508   2.390   1.782 -2.7302 -0.1107 -2.0202
 9612TIP3    H250252   5.464   2.246   1.794 -0.3390 -0.9580 -2.8184
 9613TIP3   OH250253   1.263   0.206   4.497 -0.0249 -0.3037 -0.1265
 9613TIP3    H150254   1.350   0.176   4.470 -0.4264 -2.4708  0.7860
 9613TIP3    H250255   1.271   0.301   4.503  1.7076 -0.2794 -1.9815
 9614TIP3   OH250256   5.044   5.487  16.199 -0.0222  0.1993 -0.1988
 9614TIP3    H150257   5.101   5.536  16.140  3.0244 -2.5426  0.1924
 9614TIP3    H250258   4.981   5.443  16.141  1.3835 -0.5268 -1.2314
 9615TIP3   OH250259   3.055   2.478  15.469 -0.3421  0.3992  0.2552
 9615TIP3    H150260   3.012   2.549  15.517 -2.2934  0.1699 -1.0547
 9615TIP3    H250261   3.015   2.398  15.505 -1.5352  0.2088 -1.3899
 9616TIP3   OH250262   0.203   4.873  16.554  0.2991 -0.8599 -0.6299
 9616TIP3    H150263   0.278   4.816  16.568 -0.4253 -1.9467 -1.0462
 9616TIP3    H250264   0.220   4.916  16.471  1.5561  0.7139  0.3832
 9617TIP3   OH250265   0.864   1.302  15.868 -0.0004  0.1808 -0.0581
 9617TIP3    H150266   0.844   1.385  15.910  2.0736  1.1901 -0.9258
 9617TIP3    H250267   0.786   1.248  15.882 -0.6833  1.6254  2.0776
 9618TIP3   OH250268   0.387   2.676   3.849 -0.4010 -0.1009  0.4618
 9618TIP3    H150269   0.462   2.724   3.814 -0.5305 -1.5143 -2.0234
 9618TIP3    H250270   0.316   2.695   3.788 -1.1303 -1.3750  0.8787
 9619TIP3   OH250271   1.962   2.700   5.323  0.7188  0.6017  0.1344
 9619TIP3    H150272   1.912   2.730   5.247  0.4924  0.5933  0.2778
 9619TIP3    H250273   1.922   2.745   5.397  0.3375 -0.0833  0.3581
 9620TIP3   OH250274   4.256   1.867  15.422 -0.4781  0.3167 -0.2794
 9620TIP3    H150275   4.253   1.952  15.379  0.5297  0.5665  0.1148
 9620TIP3    H250276   4.243   1.803  15.352 -0.2615  0.7611 -0.7232
 9621TIP3   OH250277   5.665   1.496  11.418 -0.0276  0.2377  0.4866
 9621TIP3    H150278   5.623   1.417  11.386 -1.0451  0.8529  0.2475
 9621TIP3    H250279   5.593   1.549  11.453  0.6549  0.9730  0.8082
 9622TIP3   OH250280   6.407   5.749   6.572 -0.9678 -0.6317  0.4504
 9622TIP3    H150281   6.421   5.660   6.602  0.3060 -0.5081  0.2420
 9622TIP3    H250282   6.471   5.802   6.620 -0.2071 -0.1534 -1.0554
 9623TIP3   OH250283   2.097   6.182  16.904  0.6818  0.1114  0.2887
 9623TIP3    H150284   2.030   6.114  16.891  1.2169 -0.2077 -0.9869
 9623TIP3    H250285   2.047   6.260  16.928 -0.3803  0.3164 -2.2163
 9624TIP3   OH250286   5.654   3.039   0.130 -0.1583 -0.0604 -0.1678
 9624TIP3    H150287   5.612   3.005   0.209 -0.0135  0.3111  0.0715
 9624TIP3    H250288   5.606   2.997   0.058 -0.4683 -0.1948  0.1124
 9625TIP3   OH250289   5.238   1.613  14.703  0.3485  0.4147 -0.1736
 9625TIP3    H150290   5.287   1.639  14.625 -0.3612  0.8293 -0.4879
 9625TIP3    H250291   5.188   1.691  14.727  1.1185  0.5439  1.1484
 9626TIP3   OH250292   1.504   5.480   2.323  0.2890  0.1642 -0.0729
 9626TIP3    H150293   1.551   5.560   2.349  0.4012 -0.3252  1.3404
 9626TIP3    H250294   1.566   5.410   2.341 -0.3457 -0.3508  0.1365
 9627TIP3   OH250295   5.973   4.913   4.370  0.2867 -0.4274  0.1467
 9627TIP3    H150296   5.884   4.927   4.338  0.0779  0.4328  1.0404
 9627TIP3    H250297   5.984   4.818   4.371  0.0640 -0.5091 -1.7537
 9628TIP3   OH250298   5.681   6.190   3.615 -0.2473 -0.4823  0.1770
 9628TIP3    H150299   5.608   6.152   3.565  0.2100 -1.3211  0.1199
 9628TIP3    H250300   5.638   6.246   3.680 -1.1600 -2.8238  1.7520
 9629TIP3   OH250301   1.323   3.541  16.351 -0.2290 -0.1236 -0.5664
 9629TIP3    H150302   1.295   3.489  16.276 -0.1173 -0.0582 -0.6521
 9629TIP3    H250303   1.287   3.628  16.334 -0.2954 -0.1362 -0.4909
 9630TIP3   OH250304   3.382   4.443   6.019 -0.1334  0.1918 -0.6992
 9630TIP3    H150305   3.475   4.436   6.040 -0.4413 -1.4109  0.2751
 9630TIP3    H250306   3.342   4.482   6.096 -0.1272  2.1993 -1.6398
 9631TIP3   OH250307   5.392   5.194  12.329  0.4079  0.2020  0.4252
 9631TIP3    H150308   5.300   5.195  12.353  0.4293 -0.1456  0.5430
 9631TIP3    H250309   5.422   5.106  12.353  0.2263 -0.4907 -1.6813
 9632TIP3   OH250310   4.501   0.184   0.103 -0.0448  0.6700  0.2632
 9632TIP3    H150311   4.504   0.275   0.076 -0.8234  0.4220 -0.6935
 9632TIP3    H250312   4.580   0.145   0.065 -0.5017  0.6037 -0.6294
 9633TIP3   OH250313   0.072   2.211   5.706  0.0918 -0.5321  0.1658
 9633TIP3    H150314   0.126   2.210   5.784  0.3654 -2.8739  0.0137
 9633TIP3    H250315  -0.018   2.211   5.739  0.2069 -0.9640  0.4877
 9634TIP3   OH250316   5.173   6.483  14.334 -0.0902  0.6199 -0.3487
 9634TIP3    H150317   5.236   6.536  14.383  1.1387 -0.0828 -1.1149
 9634TIP3    H250318   5.210   6.395  14.335 -0.9993  0.2194 -0.9451
 9635TIP3   OH250319   6.327   6.505   6.210 -0.3679 -0.0917  0.5950
 9635TIP3    H150320   6.315   6.466   6.296  0.4548  0.3760  0.9268
 9635TIP3    H250321   6.407   6.557   6.217 -1.2379  1.3870  0.0541
 9636TIP3   OH250322   2.585   0.741   0.906 -0.1329  0.1598  0.2239
 9636TIP3    H150323   2.558   0.649   0.903 -3.8844  1.0722  0.9729
 9636TIP3    H250324   2.644   0.751   0.832  1.1031 -2.9868  0.6102
 9637TIP3   OH250325   1.781   0.655  11.870  0.3045 -0.0889  0.1581
 9637TIP3    H150326   1.820   0.590  11.929  2.2138 -0.0420 -0.9723
 9637TIP3    H250327   1.809   0.739  11.905  1.1031 -0.0458 -0.5683
 9638TIP3   OH250328   2.704   2.454   5.893  0.1363 -0.0867  0.3265
 9638TIP3    H150329   2.697   2.482   5.985  1.2985 -1.5243  0.8912
 9638TIP3    H250330   2.632   2.392   5.882  1.0448 -1.2709  0.8294
 9639TIP3   OH250331   0.260   3.941   0.498 -0.4123  0.5058 -0.2391
 9639TIP3    H150332   0.340   3.928   0.550 -0.5905  0.0401 -0.0798
 9639TIP3    H250333   0.281   4.015   0.440 -1.7891  4.4788  3.7669
 9640TIP3   OH250334   2.173   0.897   0.262 -0.0445 -0.1020 -0.0922
 9640TIP3    H150335   2.212   0.815   0.292 -0.5592 -1.1966 -2.2507
 9640TIP3    H250336   2.203   0.907   0.172 -0.9826  1.4757 -0.2756
 9641TIP3   OH250337   5.173   2.426  15.108  0.0020 -0.3525 -0.0903
 9641TIP3    H150338   5.222   2.391  15.034  0.6009  0.8107 -0.2731
 9641TIP3    H250339   5.183   2.360  15.177  0.8113 -0.6885 -0.5203
 9642TIP3   OH250340   4.538   0.897  13.867  0.1813  0.2815  0.0842
 9642TIP3    H150341   4.472   0.966  13.874  0.5255  0.7216 -0.8139
 9642TIP3    H250342   4.539   0.874  13.774  0.9396 -0.0665  0.1684
 9643TIP3   OH250343   1.192   5.340   1.366 -0.1374  0.4500  0.3021
 9643TIP3    H150344   1.180   5.245   1.371  0.0657  0.3626 -0.7068
 9643TIP3    H250345   1.106   5.373   1.339 -0.0870  0.5121  0.2194
 9644TIP3   OH250346   6.728   1.013   4.294  0.6535  0.4837 -0.0684
 9644TIP3    H150347   6.804   1.071   4.300  0.8125  0.3311 -0.5920
 9644TIP3    H250348   6.694   1.027   4.206 -0.0723  0.7303  0.2409
 9645TIP3   OH250349   2.628   2.110  12.044 -0.2768 -0.4123  0.0296
 9645TIP3    H150350   2.635   2.163  12.124  0.4266 -2.1896  1.2197
 9645TIP3    H250351   2.537   2.079  12.045 -0.0636 -1.0370  0.5646
 9646TIP3   OH250352   3.917   4.992   4.993  0.2264 -0.0184  0.2474
 9646TIP3    H150353   3.997   4.946   5.020  1.0927  1.1386 -0.2737
 9646TIP3    H250354   3.909   5.065   5.054  0.7771  1.1239 -1.0027
 9647TIP3   OH250355   3.068   5.664   4.481  0.2334  0.6221  0.2482
 9647TIP3    H150356   3.117   5.592   4.518  0.5412 -0.3186 -1.8444
 9647TIP3    H250357   3.016   5.625   4.411  0.9229  2.4850 -1.4176
 9648TIP3   OH250358   5.908   0.855   3.662 -0.0444  0.3114 -0.0653
 9648TIP3    H150359   5.956   0.828   3.740  0.0912  2.5245  0.7007
 9648TIP3    H250360   5.973   0.900   3.609 -0.4575  0.0442 -0.8109
 9649TIP3   OH250361   5.064   2.645  12.429  0.2026 -0.6320 -0.4600
 9649TIP3    H150362   5.056   2.560  12.471  1.3788 -0.1624  0.7979
 9649TIP3    H250363   5.019   2.706  12.487  1.3404 -0.0673 -0.1319
 9650TIP3   OH250364   4.709   4.901   6.352  0.1628  0.3666 -0.1011
 9650TIP3    H150365   4.628   4.938   6.388  0.6869  1.8866 -0.4030
 9650TIP3    H250366   4.779   4.948   6.398  0.8538  0.7516 -1.4789
 9651TIP3   OH250367   2.711   6.133   5.101  0.2875 -0.3976 -0.4620
 9651TIP3    H150368   2.652   6.099   5.168  1.3339  0.7589  1.1339
 9651TIP3    H250369   2.653   6.164   5.031 -0.9017 -0.6573  0.3795
 9652TIP3   OH250370   0.234   0.588   6.732  0.3949  0.0797 -0.3247
 9652TIP3    H150371   0.138   0.592   6.740  0.5372  1.9867  1.0186
 9652TIP3    H250372   0.252   0.495   6.722 -1.6039 -0.3322 -0.6656
 9653TIP3   OH250373   3.139   6.492  11.890 -0.6729 -0.0585  0.0602
 9653TIP3    H150374   3.095   6.530  11.814 -2.0483 -0.2054  0.7567
 9653TIP3    H250375   3.068   6.465  11.949  0.3500  1.6193  2.1947
 9654TIP3   OH250376   4.067   5.877   4.615 -0.2390 -0.4016  0.1225
 9654TIP3    H150377   4.104   5.789   4.601  0.1815 -0.3811  1.0321
 9654TIP3    H250378   4.071   5.919   4.529 -1.1698 -1.5374 -0.5105
 9655TIP3   OH250379   3.919   5.954  12.696 -0.1509 -0.1949  0.1401
 9655TIP3    H150380   3.874   6.033  12.724  2.3364  0.7383  1.7779
 9655TIP3    H250381   3.925   5.899  12.774 -0.7079 -1.4820 -0.6705
 9656TIP3   OH250382   3.862   6.463  12.506  0.0383  0.1032 -0.3255
 9656TIP3    H150383   3.905   6.407  12.442  2.3528  2.1931 -0.7745
 9656TIP3    H250384   3.818   6.530  12.454 -2.3593 -0.9697  0.2056
 9657TIP3   OH250385   5.178   1.775   1.945  0.1485 -0.2032  0.0314
 9657TIP3    H150386   5.158   1.683   1.961  0.8216 -0.7951 -2.1914
 9657TIP3    H250387   5.178   1.784   1.850  2.0619  1.6415  0.1288
 9658TIP3   OH250388   4.959   1.337   1.466 -0.0236 -0.3504  0.6157
 9658TIP3    H150389   4.907   1.400   1.517 -0.0759 -0.8467  1.1803
 9658TIP3    H250390   4.945   1.253   1.510 -1.5623 -1.1655 -1.2833
 9659TIP3   OH250391   2.423   6.635   5.569  0.3395  0.2806 -0.8548
 9659TIP3    H150392   2.339   6.681   5.577  0.6570  0.5782  1.4652
 9659TIP3    H250393   2.403   6.545   5.594  0.6067  0.2349 -0.8021
 9660TIP3   OH250394   3.570   0.667  13.459 -0.2718 -0.9420 -0.6289
 9660TIP3    H150395   3.594   0.576  13.479  1.7209 -0.4756 -0.7462
 9660TIP3    H250396   3.523   0.661  13.376 -1.4242 -1.9945  0.0579
 9661TIP3   OH250397   2.371   3.662  14.528  0.2522  0.2697 -0.3056
 9661TIP3    H150398   2.431   3.609  14.580  0.1526 -0.2973 -0.7491
 9661TIP3    H250399   2.290   3.664  14.579 -0.3650 -1.6043 -1.1127
 9662TIP3   OH250400   1.801   1.535   5.307 -0.4145 -0.2858 -0.2011
 9662TIP3    H150401   1.823   1.489   5.226  1.0682 -0.0429  0.0368
 9662TIP3    H250402   1.740   1.604   5.279  2.0926  1.5053 -1.6110
 9663TIP3   OH250403   2.366   2.370  11.225  0.3353  0.0804 -0.2875
 9663TIP3    H150404   2.334   2.361  11.315  0.1226  0.1323 -0.3578
 9663TIP3    H250405   2.305   2.431  11.184 -1.7463 -2.6343 -1.5346
 9664TIP3   OH250406   1.693   2.764   0.180 -0.3318  0.1676 -0.7255
 9664TIP3    H150407   1.710   2.837   0.121 -1.3458  0.3915 -0.7656
 9664TIP3    H250408   1.745   2.692   0.145  0.9747  0.9491 -0.4752
 9665TIP3   OH250409   4.630   4.098  13.216  0.3017 -0.6254 -0.5096
 9665TIP3    H150410   4.586   4.175  13.252 -0.1906 -0.8270 -0.6721
 9665TIP3    H250411   4.683   4.132  13.144 -0.7141 -0.5627 -1.2559
 9666TIP3   OH250412   0.091   1.427   1.578 -0.9876  0.2537 -0.4484
 9666TIP3    H150413   0.025   1.425   1.647  1.2919  0.8256  1.9114
 9666TIP3    H250414   0.094   1.518   1.549 -1.1090  0.2594 -0.4425
 9667TIP3   OH250415   6.195   6.144   1.165  0.4176  0.1294 -0.1226
 9667TIP3    H150416   6.135   6.078   1.130  0.1629 -0.3279  1.1141
 9667TIP3    H250417   6.264   6.151   1.100  0.3763 -1.2765 -0.3393
 9668TIP3   OH250418   4.274   5.560  10.747  0.0753 -0.1411  0.7928
 9668TIP3    H150419   4.263   5.648  10.783 -0.4787 -0.0930  0.5132
 9668TIP3    H250420   4.205   5.508  10.788  0.2681 -0.3968  0.7971
 9669TIP3   OH250421   5.599   4.264  16.925 -0.3967  0.6221 -0.1348
 9669TIP3    H150422   5.615   4.358  16.931 -2.3032  0.9199  1.2382
 9669TIP3    H250423   5.610   4.232  17.015  2.0852 -0.8528 -0.8764
 9670TIP3   OH250424   3.283   1.786  12.503  0.2412  0.2049  0.0085
 9670TIP3    H150425   3.216   1.758  12.441  1.0734 -2.5884  0.2460
 9670TIP3    H250426   3.364   1.785  12.453  0.6880 -0.5298  0.7216
 9671TIP3   OH250427   3.624   2.515  12.381 -0.3665  0.1997 -0.2305
 9671TIP3    H150428   3.604   2.425  12.357  0.6259 -0.0980  0.0118
 9671TIP3    H250429   3.589   2.568  12.309 -1.7436 -0.2980  0.0550
 9672TIP3   OH250430   2.589   0.068  14.189 -0.2995 -0.3022  0.2367
 9672TIP3    H150431   2.631   0.027  14.114 -0.1561  0.0680  0.1072
 9672TIP3    H250432   2.572  -0.003  14.250  1.9292 -0.3004  0.9575
 9673TIP3   OH250433   4.037   2.574  15.394  0.3027 -0.4445  0.0472
 9673TIP3    H150434   4.067   2.514  15.325  1.3095 -0.3350  0.3651
 9673TIP3    H250435   3.977   2.521  15.447  0.6341 -0.9643 -0.0855
 9674TIP3   OH250436   3.543   4.947   0.443  0.0922  1.0205  0.3953
 9674TIP3    H150437   3.616   4.885   0.436 -0.9776 -0.1412 -1.2534
 9674TIP3    H250438   3.533   4.963   0.537  0.0995 -1.7073  0.9333
 9675TIP3   OH250439   1.463   1.353  13.235 -0.9652  0.5603 -0.2044
 9675TIP3    H150440   1.415   1.270  13.240  0.5488 -0.3063  0.9899
 9675TIP3    H250441   1.399   1.419  13.261 -1.3524 -0.6438  2.1831
 9676TIP3   OH250442   4.880   1.469  16.275 -0.6723 -0.2332  0.0853
 9676TIP3    H150443   4.937   1.543  16.255  0.3608 -1.2208 -0.7133
 9676TIP3    H250444   4.868   1.472  16.369  1.8275 -0.7724  0.4875
 9677TIP3   OH250445   5.636   1.150   1.551 -0.2215 -0.1432  0.1871
 9677TIP3    H150446   5.573   1.091   1.592 -1.8899  1.0419 -0.5436
 9677TIP3    H250447   5.638   1.123   1.459  1.0113 -0.6942  0.3521
 9678TIP3   OH250448   0.406   5.189  15.633  0.7567  0.9478  0.4858
 9678TIP3    H150449   0.320   5.151  15.615  1.1507  0.8150 -1.3264
 9678TIP3    H250450   0.387   5.272  15.677 -0.3229  0.9995 -0.0332
 9679TIP3   OH250451   5.484   5.722   4.854  0.3455 -0.1340 -0.2537
 9679TIP3    H150452   5.504   5.783   4.925 -0.9121  1.6647 -1.3529
 9679TIP3    H250453   5.550   5.742   4.787 -1.4091  1.7950 -1.5613
 9680TIP3   OH250454   1.658   2.069   5.335  0.0398 -0.1461 -0.4138
 9680TIP3    H150455   1.654   2.070   5.431 -2.1950  2.7442 -0.4208
 9680TIP3    H250456   1.580   2.020   5.309 -0.9712  1.5580 -0.7023
 9681TIP3   OH250457   3.945   1.125   4.217 -0.8679  0.2834 -0.1412
 9681TIP3    H150458   3.960   1.153   4.307 -0.1712  3.0594 -1.0216
 9681TIP3    H250459   3.867   1.070   4.221  0.9547 -2.4221  2.5522
 9682TIP3   OH250460   4.705   2.415   4.891  0.2920 -0.5899 -0.8649
 9682TIP3    H150461   4.705   2.458   4.977  0.1705  1.5145 -1.8467
 9682TIP3    H250462   4.614   2.392   4.876 -0.0760  1.0189 -1.3045
 9683TIP3   OH250463   2.976   0.138  13.855  0.2135  0.3478 -0.0922
 9683TIP3    H150464   3.069   0.152  13.840 -0.1473  0.9326 -1.9994
 9683TIP3    H250465   2.969   0.128  13.950  2.1251  0.9368  0.1632
 9684TIP3   OH250466   5.017   2.300   1.970  0.5019 -0.6896  0.8790
 9684TIP3    H150467   5.027   2.249   1.889 -0.8618 -0.2092  0.3774
 9684TIP3    H250468   5.077   2.258   2.032  1.7280 -0.9621 -0.4132
 9685TIP3   OH250469   0.016   5.246   3.104 -0.3723  0.0698 -0.0124
 9685TIP3    H150470   0.085   5.179   3.093  0.5251  0.9823 -0.1078
 9685TIP3    H250471  -0.022   5.255   3.017  0.6350  0.8562 -0.3872
 9686TIP3   OH250472   1.776   3.714   3.905  0.3695  0.0044 -0.3737
 9686TIP3    H150473   1.710   3.781   3.919 -0.5956 -0.5560 -1.9606
 9686TIP3    H250474   1.848   3.760   3.861  0.9738  0.5648  1.1467
 9687TIP3   OH250475   5.889   2.613  16.836  0.1254 -0.6281 -0.2495
 9687TIP3    H150476   5.972   2.654  16.861  0.8531 -0.8757 -2.0875
 9687TIP3    H250477   5.883   2.626  16.741 -1.0436 -2.2281 -0.4387
 9688TIP3   OH250478   5.311   3.953   6.490  0.3706  0.0879 -0.9264
 9688TIP3    H150479   5.319   4.013   6.415 -0.2121 -1.9676 -2.7215
 9688TIP3    H250480   5.217   3.944   6.504  0.4615 -0.3399 -0.5785
 9689TIP3   OH250481   3.352   5.261  15.769 -0.2522  0.8343 -0.0339
 9689TIP3    H150482   3.301   5.316  15.709 -0.8337 -0.0567 -0.3694
 9689TIP3    H250483   3.286   5.219  15.825  0.2936  2.1517  1.7155
 9690TIP3   OH250484   5.504   2.410  11.703 -0.3647  0.1458 -0.2619
 9690TIP3    H150485   5.417   2.448  11.717 -0.6149 -0.2803 -0.6294
 9690TIP3    H250486   5.505   2.331  11.757 -1.1282 -1.1893 -2.0783
 9691TIP3   OH250487   0.789   0.365   2.431 -0.3759 -0.0499  0.0778
 9691TIP3    H150488   0.812   0.281   2.392 -0.4804 -0.4080  0.7855
 9691TIP3    H250489   0.749   0.415   2.359 -1.0062 -0.8743 -0.1561
 9692TIP3   OH250490   2.971   3.721  15.562 -0.1708 -0.4913 -0.0952
 9692TIP3    H150491   2.928   3.802  15.590 -2.0284 -1.5635  0.3420
 9692TIP3    H250492   3.040   3.750  15.502 -2.1993  1.3080 -1.7498
 9693TIP3   OH250493   3.504   1.866   0.978  0.2411 -0.2908 -0.4519
 9693TIP3    H150494   3.544   1.936   1.029 -0.5645  0.0246 -0.2296
 9693TIP3    H250495   3.453   1.911   0.911 -0.0262 -0.6638 -0.5059
 9694TIP3   OH250496   6.058   1.835  14.507  0.3393  0.2462  0.1469
 9694TIP3    H150497   6.084   1.787  14.428  2.7134 -0.3771  1.2053
 9694TIP3    H250498   5.997   1.902  14.476  1.0038 -0.1393 -2.1561
 9695TIP3   OH250499   0.489   2.086  14.462  0.1720 -0.0978 -0.8539
 9695TIP3    H150500   0.575   2.110  14.429  0.7058  0.2925  0.7350
 9695TIP3    H250501   0.494   2.102  14.556 -1.0219 -1.8860 -0.4395
 9696TIP3   OH250502   4.080   0.702  11.345 -0.1398  0.0467  0.4364
 9696TIP3    H150503   4.151   0.766  11.354  1.1684 -1.2357 -0.2808
 9696TIP3    H250504   4.085   0.674  11.253 -2.8621  1.3071 -0.1993
 9697TIP3   OH250505   4.374   5.537   3.416 -0.5784  0.0678  0.0642
 9697TIP3    H150506   4.433   5.599   3.458 -0.6544 -0.0708  0.3732
 9697TIP3    H250507   4.415   5.519   3.331 -0.7650  0.8584 -0.2089
 9698TIP3   OH250508   3.948   2.827  11.063 -0.2497 -0.5715 -0.0049
 9698TIP3    H150509   3.854   2.825  11.047 -0.0481 -1.4629 -1.2210
 9698TIP3    H250510   3.985   2.769  10.996  1.1453 -0.3998  0.5844
 9699TIP3   OH250511   0.750   3.926   0.592 -0.3946  0.0974  0.5761
 9699TIP3    H150512   0.813   3.863   0.627 -0.4029  1.1746  2.7265
 9699TIP3    H250513   0.665   3.888   0.613 -0.4749 -0.5636 -0.8388
 9700TIP3   OH250514   5.450   4.779  16.731 -0.5198 -0.1773  0.0188
 9700TIP3    H150515   5.404   4.855  16.693  0.8335  1.4588  1.4770
 9700TIP3    H250516   5.392   4.749  16.801 -0.2045  0.7948  0.7263
 9701TIP3   OH250517   0.207   2.189  14.249  0.5750  0.1493 -0.5462
 9701TIP3    H150518   0.280   2.250  14.259  0.0753  0.5005  1.3628
 9701TIP3    H250519   0.239   2.108  14.289 -0.6284  0.8320  2.0138
 9702TIP3   OH250520   6.175   1.419   0.042 -0.2805 -0.2775 -0.3752
 9702TIP3    H150521   6.180   1.327   0.070  0.8923 -0.3671 -0.8214
 9702TIP3    H250522   6.224   1.422  -0.040 -1.3112  0.5290 -0.9868
 9703TIP3   OH250523   1.600   2.475  16.161 -0.4047 -0.6799 -0.0539
 9703TIP3    H150524   1.686   2.446  16.132 -0.2378 -1.2129  0.9068
 9703TIP3    H250525   1.577   2.547  16.103  1.3136  0.4075  0.5571
 9704TIP3   OH250526   6.423   5.908   3.985  0.0301 -0.0276  0.2737
 9704TIP3    H150527   6.494   5.856   4.021 -0.5794 -0.6524  0.5880
 9704TIP3    H250528   6.465   5.964   3.919  0.6398 -1.1530 -0.3196
 9705TIP3   OH250529   6.485   0.821  11.135 -0.5311  0.6152  0.3600
 9705TIP3    H150530   6.528   0.839  11.051 -1.8690  1.1282 -0.2304
 9705TIP3    H250531   6.450   0.732  11.125 -3.1091  1.6458 -0.7436
 9706TIP3   OH250532   6.310   0.431   6.603 -0.2939 -0.1374  0.0569
 9706TIP3    H150533   6.329   0.339   6.619 -2.8594 -0.7715 -0.0102
 9706TIP3    H250534   6.354   0.450   6.520  1.1777 -0.9515  0.6106
 9707TIP3   OH250535   0.516   0.833   5.529 -0.6406  0.6314  0.5729
 9707TIP3    H150536   0.608   0.806   5.538 -1.1401 -1.9546 -0.9483
 9707TIP3    H250537   0.473   0.799   5.607 -0.4835  0.9469  0.7969
 9708TIP3   OH250538   6.317   0.132  13.931 -0.7163 -0.2785 -0.1189
 9708TIP3    H150539   6.403   0.166  13.908 -0.2163 -1.6100 -0.3077
 9708TIP3    H250540   6.272   0.122  13.847 -1.9490  2.5001  0.0773
 9709TIP3   OH250541   3.028   1.162   0.812  0.1618  0.0528  0.2510
 9709TIP3    H150542   2.979   1.241   0.788 -1.5727 -0.3180  2.3708
 9709TIP3    H250543   3.107   1.195   0.856 -0.2865  0.6119  0.6401
 9710TIP3   OH250544   0.696   1.506  11.662  0.4694 -0.0527 -0.6137
 9710TIP3    H150545   0.615   1.524  11.614  0.2887  1.6464  0.2600
 9710TIP3    H250546   0.749   1.584  11.650  2.0135 -1.1221 -1.1329
 9711TIP3   OH250547   3.075   1.801   2.117 -0.2371 -0.1076 -0.7948
 9711TIP3    H150548   3.162   1.840   2.109 -0.2242  0.1919  0.5308
 9711TIP3    H250549   3.072   1.734   2.050  0.2531  1.2478 -2.2236
 9712TIP3   OH250550   0.186   6.731   5.813  0.0107 -0.1237  0.4960
 9712TIP3    H150551   0.179   6.796   5.743  0.5544  0.9569  1.4151
 9712TIP3    H250552   0.167   6.647   5.770  0.5051  0.4888 -0.9751
 9713TIP3   OH250553   3.059   4.466  15.307 -0.1241 -0.4300 -0.0310
 9713TIP3    H150554   3.125   4.535  15.295  0.1197 -0.5957  0.3374
 9713TIP3    H250555   3.107   4.384  15.294 -0.2687 -0.5505  0.1962
 9714TIP3   OH250556   0.466   6.125   6.820  0.2960 -0.6514  0.3708
 9714TIP3    H150557   0.553   6.151   6.849  0.5393 -0.4692 -0.4878
 9714TIP3    H250558   0.466   6.141   6.725 -0.8194 -0.2273  0.4180
 9715TIP3   OH250559   2.185   0.933  15.715 -0.3748 -0.2117 -0.4610
 9715TIP3    H150560   2.176   0.926  15.620 -0.5648  2.0583 -0.6707
 9715TIP3    H250561   2.113   0.989  15.742 -0.3258 -0.8257  1.0485
 9716TIP3   OH250562   6.327   5.962   4.229  0.2212  0.2289  0.0873
 9716TIP3    H150563   6.373   5.966   4.145 -0.2904 -2.7134 -0.4272
 9716TIP3    H250564   6.234   5.953   4.206 -0.0041  0.0820  0.9918
 9717TIP3   OH250565   6.700   0.534  15.171  0.1164  0.0587 -0.2411
 9717TIP3    H150566   6.748   0.522  15.253 -0.4119  0.0477  0.0680
 9717TIP3    H250567   6.735   0.466  15.112  1.6664  1.0935 -0.5717
 9718TIP3   OH250568   0.615   5.349  12.765  0.9073 -0.0262  0.1966
 9718TIP3    H150569   0.658   5.290  12.826  0.7364 -0.5128 -0.1536
 9718TIP3    H250570   0.649   5.436  12.788  2.2017 -0.4149 -0.1851
 9719TIP3   OH250571   2.288   0.819  11.201 -0.6773 -0.7566 -0.0981
 9719TIP3    H150572   2.380   0.847  11.202 -1.1856  1.1533 -1.6881
 9719TIP3    H250573   2.283   0.756  11.129 -1.2339  1.8219 -2.4755
 9720TIP3   OH250574   5.544   4.674  12.688 -0.4863  0.3660 -0.4318
 9720TIP3    H150575   5.579   4.712  12.607 -0.9053  0.9054 -0.3649
 9720TIP3    H250576   5.480   4.738  12.719 -2.2465 -0.9949 -1.0552
 9721TIP3   OH250577   4.862   0.483  13.194 -0.7021  0.2049  0.3983
 9721TIP3    H150578   4.881   0.525  13.278  1.1776  0.2377 -0.0095
 9721TIP3    H250579   4.817   0.551  13.143 -0.4718  0.6944  0.8361
 9722TIP3   OH250580   4.875   0.050  12.728 -0.6268  0.1981  0.9145
 9722TIP3    H150581   4.852   0.016  12.642 -0.2929 -0.0893  0.9335
 9722TIP3    H250582   4.920  -0.023  12.771  0.8559  0.9244  0.6551
 9723TIP3   OH250583   1.216   5.753   0.096 -0.1226 -0.7107  0.2668
 9723TIP3    H150584   1.157   5.821   0.064  0.9208 -0.4423 -1.2031
 9723TIP3    H250585   1.195   5.745   0.189 -1.1346  0.7298  0.1989
 9724TIP3   OH250586   5.903   3.016  14.709 -0.2823 -0.1183  0.0664
 9724TIP3    H150587   5.921   3.011  14.615  1.6437 -0.9453  0.4298
 9724TIP3    H250588   5.928   2.930  14.743 -1.2475  0.0623  1.3074
 9725TIP3   OH250589   0.396   3.502  15.215 -0.2781  0.0042 -0.2617
 9725TIP3    H150590   0.338   3.458  15.153 -0.7848  0.6323 -0.2370
 9725TIP3    H250591   0.344   3.511  15.295  0.0943 -0.0605 -0.0059
 9726TIP3   OH250592   3.275   4.297   3.099 -0.8642  0.3244  0.3082
 9726TIP3    H150593   3.364   4.318   3.073 -0.5074 -0.1610  1.0991
 9726TIP3    H250594   3.243   4.376   3.143 -1.5217  1.2035 -1.6370
 9727TIP3   OH250595   4.303   2.941  14.533 -0.0248 -0.0059 -0.0178
 9727TIP3    H150596   4.335   2.888  14.460  0.0234  1.0531 -0.8060
 9727TIP3    H250597   4.216   2.971  14.504 -0.5427 -0.5914  0.9035
 9728TIP3   OH250598   5.154   2.208   4.935  0.1819 -0.1682 -0.1509
 9728TIP3    H150599   5.086   2.275   4.930 -0.4382 -0.8106 -0.4884
 9728TIP3    H250600   5.232   2.255   4.964  0.1347  0.9803 -1.7317
 9729TIP3   OH250601   4.213   4.159   4.108 -0.0730  0.2610 -0.2648
 9729TIP3    H150602   4.205   4.069   4.140 -0.8398  0.6848  0.7890
 9729TIP3    H250603   4.272   4.201   4.171  0.8619  0.3173 -1.1636
 9730TIP3   OH250604   6.746   2.363  11.840 -0.5877  0.7633 -0.6979
 9730TIP3    H150605   6.673   2.372  11.779 -2.1282 -1.4443  0.6459
 9730TIP3    H250606   6.713   2.304  11.907  2.5295 -0.5324 -0.1372
 9731TIP3   OH250607   6.521   1.866  11.130  0.3426 -0.1466 -0.5290
 9731TIP3    H150608   6.607   1.832  11.104  0.7132  0.1158  0.2906
 9731TIP3    H250609   6.534   1.897  11.220 -0.8347 -0.9410 -0.0502
 9732TIP3   OH250610   5.319   2.705   0.051  0.0013  0.0056  0.0619
 9732TIP3    H150611   5.411   2.713   0.027 -0.3603 -0.3306 -1.5916
 9732TIP3    H250612   5.273   2.760  -0.013 -1.0787 -1.2910 -0.3149
 9733TIP3   OH250613   1.525   3.820  12.901 -0.0513  0.2289  0.5414
 9733TIP3    H150614   1.459   3.800  12.967  0.2112  0.0739  0.7593
 9733TIP3    H250615   1.573   3.737  12.890 -0.4437  0.0955 -0.2383
 9734TIP3   OH250616   6.420   3.683  11.976  0.4225  0.6926 -0.0606
 9734TIP3    H150617   6.494   3.624  11.990 -0.5488 -0.7284 -0.7679
 9734TIP3    H250618   6.344   3.637  12.010 -0.4146  1.3762 -0.9265
 9735TIP3   OH250619   5.338   1.311  12.157  0.4280  0.2065  0.0505
 9735TIP3    H150620   5.389   1.253  12.213  0.6952  1.4928  1.2118
 9735TIP3    H250621   5.384   1.395  12.161  0.3588  0.3887 -1.9972
 9736TIP3   OH250622   1.221   2.239  13.500  0.3686 -0.2188  0.0093
 9736TIP3    H150623   1.257   2.151  13.495 -0.4941 -0.5968  0.2925
 9736TIP3    H250624   1.253   2.283  13.421  0.4089 -0.9288 -0.3778
 9737TIP3   OH250625   2.950   1.467  14.788 -0.2742 -0.1937  0.4462
 9737TIP3    H150626   2.947   1.384  14.741 -0.2983  0.0852 -0.0481
 9737TIP3    H250627   2.914   1.531  14.727  0.3867  0.3037  0.5660
 9738TIP3   OH250628   0.367   4.440  12.127 -0.4364 -0.4050 -0.5456
 9738TIP3    H150629   0.337   4.528  12.148  0.0443 -0.7552  1.9252
 9738TIP3    H250630   0.409   4.449  12.041 -0.4522  1.7508 -0.3939
 9739TIP3   OH250631   3.400   3.693   5.281  0.3527 -0.2623  0.1857
 9739TIP3    H150632   3.319   3.696   5.230 -0.4120 -1.5395  1.2765
 9739TIP3    H250633   3.456   3.632   5.234  0.6473  0.4917 -0.4758
 9740TIP3   OH250634   3.714   5.444  13.964 -0.0316  0.7404 -0.6031
 9740TIP3    H150635   3.684   5.403  13.883 -0.9888 -1.1796  0.6384
 9740TIP3    H250636   3.784   5.503  13.937 -2.0462  2.1418 -3.1067
 9741TIP3   OH250637   5.872   0.118  17.218 -0.0651  0.1192 -0.3573
 9741TIP3    H150638   5.879   0.062  17.295 -1.6115  1.6305  0.9678
 9741TIP3    H250639   5.791   0.090  17.174  0.4891 -0.3285 -1.1289
 9742TIP3   OH250640   2.606   5.955   4.795  0.2398 -0.1222  0.3000
 9742TIP3    H150641   2.672   6.004   4.746 -0.1435  1.6998  1.5045
 9742TIP3    H250642   2.648   5.872   4.815  0.4486 -0.9195 -2.9332
 9743TIP3   OH250643   5.374   2.120  10.890  0.4087 -0.0198  0.0192
 9743TIP3    H150644   5.457   2.132  10.844 -0.3500  2.5400 -0.8388
 9743TIP3    H250645   5.365   2.197  10.945 -1.0576 -0.6170  0.6915
 9744TIP3   OH250646   1.828   5.472   5.719 -0.0434  0.6018  0.3623
 9744TIP3    H150647   1.769   5.422   5.775  0.3743 -0.6815 -0.2799
 9744TIP3    H250648   1.776   5.545   5.687 -1.7926 -1.2526 -1.3082
 9745TIP3   OH250649   1.113   5.420  16.491  0.4035  0.0039  0.1421
 9745TIP3    H150650   1.092   5.362  16.418  3.3342 -0.4822 -0.4655
 9745TIP3    H250651   1.089   5.507  16.461  0.2577 -0.3672 -0.8394
 9746TIP3   OH250652   4.133   3.979   5.920 -0.6538 -0.0319 -0.0900
 9746TIP3    H150653   4.084   3.918   5.976  0.2178 -1.6929 -1.0389
 9746TIP3    H250654   4.224   3.967   5.947 -0.4781  0.9493 -0.2259
 9747TIP3   OH250655   4.702   3.194   5.620  0.0673 -0.5229  0.0579
 9747TIP3    H150656   4.664   3.197   5.708 -0.0276  0.9535 -0.0127
 9747TIP3    H250657   4.786   3.238   5.629 -0.3370  0.4493 -0.7600
 9748TIP3   OH250658   2.570   3.107  13.987  0.4178  0.6294 -0.2860
 9748TIP3    H150659   2.478   3.085  14.005 -0.0700  1.2938 -1.8241
 9748TIP3    H250660   2.582   3.086  13.894  2.7683 -2.5824  0.5646
 9749TIP3   OH250661   5.606   4.742  15.602 -0.0257 -0.4646  0.2930
 9749TIP3    H150662   5.655   4.695  15.669 -0.6570 -0.4513  0.7734
 9749TIP3    H250663   5.673   4.784  15.548  0.5537 -1.8794 -0.1305
 9750TIP3   OH250664   3.054   4.471   6.129 -0.3698  0.6493  0.0089
 9750TIP3    H150665   3.034   4.483   6.036  1.0703  2.4013 -0.1389
 9750TIP3    H250666   3.015   4.547   6.172  2.3923  2.0999  0.1958
 9751TIP3   OH250667   0.251   4.941  13.977 -0.0796  0.9898  0.6104
 9751TIP3    H150668   0.258   4.976  14.065  1.9495 -0.6730  1.1921
 9751TIP3    H250669   0.259   5.017  13.920  0.4464  1.8929  1.8481
 9752TIP3   OH250670   1.705   4.837   3.492  0.0695  0.4761  0.3043
 9752TIP3    H150671   1.701   4.879   3.406  0.8866  0.3388  0.1895
 9752TIP3    H250672   1.788   4.867   3.529  0.8970 -1.3755  0.0390
 9753TIP3   OH250673   6.507   4.212  11.185  0.6832 -0.0695  0.8576
 9753TIP3    H150674   6.439   4.278  11.194  1.2261  0.1938  3.6296
 9753TIP3    H250675   6.485   4.167  11.103 -2.6865  0.1500  1.5028
 9754TIP3   OH250676   2.339   1.463  17.145  0.1436 -0.5210 -0.0110
 9754TIP3    H150677   2.265   1.402  17.147  0.2369 -0.7771 -2.0902
 9754TIP3    H250678   2.416   1.407  17.138  0.4824 -0.2280  1.2241
 9755TIP3   OH250679   6.636   1.022  11.350  0.2526 -0.0830  0.2674
 9755TIP3    H150680   6.661   1.041  11.260  1.1627 -0.3393  0.4548
 9755TIP3    H250681   6.607   0.930  11.348  0.3633 -0.1173  0.2565
 9756TIP3   OH250682   6.598   1.799   2.803  0.4478  0.2165  0.4122
 9756TIP3    H150683   6.632   1.769   2.719 -0.7805 -0.3247  0.0766
 9756TIP3    H250684   6.642   1.745   2.868 -0.0551 -0.7697 -0.0393
 9757TIP3   OH250685   1.178   1.791   5.256 -0.0000 -0.0960 -0.5057
 9757TIP3    H150686   1.178   1.700   5.285 -0.5797  0.1888  0.4373
 9757TIP3    H250687   1.163   1.842   5.336  0.0269  0.8115 -1.0610
 9758TIP3   OH250688   2.758   1.456   4.757 -0.1929 -0.2483  0.5100
 9758TIP3    H150689   2.781   1.392   4.824 -1.4741  1.8302  3.0723
 9758TIP3    H250690   2.674   1.427   4.723 -0.1396 -0.6211  0.6922
 9759TIP3   OH250691   2.074   2.100   0.610  0.0078 -0.4280  0.2293
 9759TIP3    H150692   2.136   2.027   0.614  0.4283 -0.1201 -0.4840
 9759TIP3    H250693   2.110   2.166   0.670 -0.1754 -0.6523  0.5899
 9760TIP3   OH250694   5.122   4.376  15.205 -0.1059  0.8636  0.0283
 9760TIP3    H150695   5.075   4.333  15.276 -1.0704 -0.9122 -1.6084
 9760TIP3    H250696   5.173   4.445  15.248  0.3755 -0.9732  2.5822
 9761TIP3   OH250697   0.486   4.960   5.545 -0.4613 -0.0343  0.1335
 9761TIP3    H150698   0.487   4.967   5.641 -0.6849  2.8899 -0.0025
 9761TIP3    H250699   0.432   4.882   5.528 -2.5120  0.7719  2.3764
 9762TIP3   OH250700   5.425   0.458   3.339  0.1700 -0.0301  0.1800
 9762TIP3    H150701   5.389   0.428   3.422 -1.9680  0.5010 -0.4784
 9762TIP3    H250702   5.471   0.539   3.361 -0.3709  0.1007  0.8670
 9763TIP3   OH250703   4.608   2.472  12.110  0.3333  0.0202 -0.6380
 9763TIP3    H150704   4.686   2.509  12.152  1.1850  1.0484 -2.9173
 9763TIP3    H250705   4.618   2.377  12.122  0.9631  0.2221  0.6678
 9764TIP3   OH250706   1.011   3.368   1.549 -0.4164  0.2317  0.4294
 9764TIP3    H150707   0.946   3.438   1.552  1.5414  2.1479  1.7205
 9764TIP3    H250708   0.960   3.287   1.544 -2.7939  1.7048 -0.9298
 9765TIP3   OH250709   3.709   2.734   5.669  0.1648 -0.5233 -0.4376
 9765TIP3    H150710   3.653   2.675   5.720  0.7950 -0.7466  0.0076
 9765TIP3    H250711   3.677   2.725   5.579  0.7483 -2.1651 -0.5189
 9766TIP3   OH250712   3.772   1.458  15.749  0.1112 -0.0234  0.4731
 9766TIP3    H150713   3.850   1.417  15.713 -0.0136 -0.7168  0.9703
 9766TIP3    H250714   3.768   1.427  15.840  0.4025  1.6515  1.0971
 9767TIP3   OH250715   4.596   1.022  11.562 -0.4819 -0.6441 -0.5135
 9767TIP3    H150716   4.672   0.964  11.567  0.4058  0.3863 -1.4206
 9767TIP3    H250717   4.531   0.982  11.619  0.4967 -1.9240 -0.2562
 9768TIP3   OH250718   4.445   2.698   0.277 -0.3445  0.2810  0.8124
 9768TIP3    H150719   4.497   2.626   0.313 -0.4057  0.5095  1.3720
 9768TIP3    H250720   4.356   2.664   0.271  0.3313 -1.4671 -3.6998
 9769TIP3   OH250721   6.304   2.515  13.124 -0.1843  0.0708 -0.5389
 9769TIP3    H150722   6.225   2.528  13.177 -1.3194 -1.2016 -1.8619
 9769TIP3    H250723   6.333   2.604  13.104 -0.3953  0.5729  1.1903
 9770TIP3   OH250724   0.630   5.992  11.361  0.8484  0.3794 -0.0436
 9770TIP3    H150725   0.679   5.960  11.286  0.9310 -2.0595  0.9739
 9770TIP3    H250726   0.688   5.980  11.435 -0.8265 -1.7086  1.0571
 9771TIP3   OH250727   0.753   4.359   5.457 -0.1605  0.6106  0.5273
 9771TIP3    H150728   0.836   4.314   5.476  0.5750  0.8492 -1.8425
 9771TIP3    H250729   0.775   4.424   5.391 -2.1618  1.0347  0.2105
 9772TIP3   OH250730   0.277   0.740   3.466 -0.1779 -0.0378 -0.0357
 9772TIP3    H150731   0.256   0.833   3.461  1.2202  0.3809  1.0083
 9772TIP3    H250732   0.213   0.703   3.527  0.1286  0.5522  0.6554
 9773TIP3   OH250733   1.438   0.120  13.531 -0.2785  0.4215  0.0012
 9773TIP3    H150734   1.351   0.081  13.540  0.0462 -0.2675  0.2334
 9773TIP3    H250735   1.491   0.051  13.490  0.8714 -0.2354  2.4288
 9774TIP3   OH250736   1.814   5.513   4.427  0.0623  0.0856  0.3555
 9774TIP3    H150737   1.880   5.556   4.482 -0.1606  2.6005 -1.2086
 9774TIP3    H250738   1.791   5.434   4.476  1.3626  1.1335  2.8731
 9775TIP3   OH250739   0.451   2.968  10.823  0.0146 -0.7942 -0.0032
 9775TIP3    H150740   0.495   2.888  10.794 -0.0609 -0.7288 -0.3046
 9775TIP3    H250741   0.520   3.035  10.820  0.4304 -1.1133  1.5604
 9776TIP3   OH250742   4.371   5.112  16.168  0.2607  0.8954  0.7335
 9776TIP3    H150743   4.302   5.069  16.116  0.8085 -0.2767  0.9461
 9776TIP3    H250744   4.357   5.080  16.257  0.8173  0.9820  0.8569
 9777TIP3   OH250745   4.731   1.075  11.792 -0.1131 -0.0377 -0.0817
 9777TIP3    H150746   4.696   1.123  11.717  0.1500 -0.9883 -0.8349
 9777TIP3    H250747   4.825   1.094  11.792 -0.4245  1.7057  1.3377
 9778TIP3   OH250748   1.313   1.233   5.149  0.4314  0.2518 -0.1090
 9778TIP3    H150749   1.329   1.320   5.114 -0.7638  0.6541  0.2975
 9778TIP3    H250750   1.318   1.175   5.073  2.0354  0.5407 -0.2589
 9779TIP3   OH250751   2.150   2.839   3.164 -0.1683 -0.0532  0.2358
 9779TIP3    H150752   2.203   2.846   3.084  0.4477  0.3318  0.6727
 9779TIP3    H250753   2.120   2.748   3.164 -0.1476 -0.0680 -0.4185
 9780TIP3   OH250754   5.870   2.307   0.479  0.2017  0.5012  0.7236
 9780TIP3    H150755   5.943   2.264   0.436 -0.4880 -0.7778  0.7889
 9780TIP3    H250756   5.839   2.244   0.543 -0.5060  1.3110  1.1994
 9781TIP3   OH250757   3.350   5.591  15.772  0.3179 -0.3884  0.6909
 9781TIP3    H150758   3.441   5.601  15.802  0.1833 -0.2141  1.0377
 9781TIP3    H250759   3.297   5.620  15.845 -0.0115  0.9235 -0.0262
 9782TIP3   OH250760   0.573   4.273  15.973 -0.0116 -0.2141 -0.1467
 9782TIP3    H150761   0.492   4.282  15.924 -1.1386 -1.7145  1.2909
 9782TIP3    H250762   0.552   4.208  16.041  2.7483 -1.6122 -0.4951
 9783TIP3   OH250763   1.244   1.204   4.594 -0.4341 -0.8471 -0.0319
 9783TIP3    H150764   1.188   1.144   4.546 -4.1706  0.6764  2.0011
 9783TIP3    H250765   1.229   1.290   4.553 -0.5969 -0.2030  1.3143
 9784TIP3   OH250766   1.276   2.266   2.541  0.4896 -0.2474  0.1532
 9784TIP3    H150767   1.370   2.279   2.524  0.4893  1.2517  1.1643
 9784TIP3    H250768   1.274   2.206   2.616  0.6255 -0.4353  0.0095
 9785TIP3   OH250769   0.940   1.658   0.157 -0.4243  0.1706 -0.3556
 9785TIP3    H150770   0.945   1.657   0.253  0.3150  1.0917 -0.3755
 9785TIP3    H250771   0.951   1.566   0.132  1.3571  0.1513  0.3690
 9786TIP3   OH250772   6.177   2.748   0.657  0.1849 -0.5177  0.3789
 9786TIP3    H150773   6.170   2.697   0.576 -1.6658  0.2468  0.0003
 9786TIP3    H250774   6.114   2.707   0.716 -0.0676  0.2548  0.6630
 9787TIP3   OH250775   0.375   0.727  13.946  0.3113 -0.0148 -0.2970
 9787TIP3    H150776   0.401   0.671  14.019  0.4445  0.7786  0.2828
 9787TIP3    H250777   0.451   0.730  13.889  0.9931  1.0598  0.6184
 9788TIP3   OH250778   3.132   2.878  11.659 -0.6195 -0.0976  0.7666
 9788TIP3    H150779   3.181   2.923  11.728  0.3959 -0.5485  0.3595
 9788TIP3    H250780   3.192   2.874  11.585 -2.3094  2.0451 -0.8632
 9789TIP3   OH250781   0.039   4.023   4.891  0.7052 -0.1866  0.3625
 9789TIP3    H150782   0.121   4.073   4.887  0.1731  0.8408  1.7153
 9789TIP3    H250783  -0.011   4.063   4.962 -1.0684 -0.6794 -0.5409
 9790TIP3   OH250784   6.423   5.666  17.050 -0.3401 -0.4732  0.5094
 9790TIP3    H150785   6.357   5.688  17.116 -2.5482  0.3331 -1.8048
 9790TIP3    H250786   6.374   5.622  16.981  0.8307  2.8165 -2.7352
 9791TIP3   OH250787   3.855   4.610   3.521  0.1317  0.3183 -0.2973
 9791TIP3    H150788   3.802   4.649   3.591 -0.6655 -2.3659  0.7283
 9791TIP3    H250789   3.945   4.631   3.545 -0.1878  0.2962  1.0185
 9792TIP3   OH250790   3.075   2.005   3.741 -0.0515 -0.1829  0.1400
 9792TIP3    H150791   3.147   1.983   3.800  1.3454  1.7893 -0.7310
 9792TIP3    H250792   3.001   1.952   3.773  1.7400 -2.2841  1.0446
 9793TIP3   OH250793   3.598   3.831   3.654  0.4763  0.0330  0.2989
 9793TIP3    H150794   3.503   3.818   3.651  0.2255  1.5897  0.6534
 9793TIP3    H250795   3.609   3.925   3.672  2.1132  0.6787 -3.3032
 9794TIP3   OH250796   5.946   1.741  14.069  0.0343  0.3406  0.0815
 9794TIP3    H150797   5.999   1.764  13.993  0.0682 -0.7336 -0.2388
 9794TIP3    H250798   5.868   1.701  14.032 -0.2946  0.4920  0.5984
 9795TIP3   OH250799   0.018   2.561   0.928  0.0944 -0.3742 -0.0706
 9795TIP3    H150800   0.089   2.502   0.950  0.7419  0.9598  1.6418
 9795TIP3    H250801  -0.027   2.577   1.011  0.2945  1.9361 -0.3208
 9796TIP3   OH250802   4.555   0.041  15.616 -0.0899 -0.8633 -0.4492
 9796TIP3    H150803   4.519  -0.043  15.645 -0.5641 -0.5970 -0.2544
 9796TIP3    H250804   4.575   0.028  15.523  2.9599 -2.2495  0.2806
 9797TIP3   OH250805   0.933   4.783  14.106  0.0728 -0.2276 -0.1635
 9797TIP3    H150806   0.843   4.759  14.081  0.0847 -2.1610  1.4059
 9797TIP3    H250807   0.988   4.721  14.058  0.3106 -1.3644  1.4885
 9798TIP3   OH250808   4.615   0.313  11.365 -0.4802 -0.4843  0.1438
 9798TIP3    H150809   4.625   0.288  11.273  0.7777  2.9838 -0.8297
 9798TIP3    H250810   4.687   0.269  11.410 -1.9080 -3.3202 -0.1795
 9799TIP3   OH250811   2.856   4.895   5.302  0.3995 -0.1273 -0.2831
 9799TIP3    H150812   2.843   4.926   5.212  0.2753  1.7441  0.3407
 9799TIP3    H250813   2.938   4.847   5.299  0.2583 -0.3289 -1.4532
 9800TIP3   OH250814   4.813   5.997   0.501  0.0337 -0.3253  0.1811
 9800TIP3    H150815   4.848   6.029   0.418  1.0388 -2.0128 -0.1017
 9800TIP3    H250816   4.728   6.040   0.509 -0.2097 -0.3188 -1.8703
 9801TIP3   OH250817   6.500   1.561   3.669  0.6020 -0.1219 -0.1283
 9801TIP3    H150818   6.596   1.559   3.666  0.5921  0.4002 -1.0009
 9801TIP3    H250819   6.476   1.642   3.624 -0.2825 -0.7406 -0.8067
 9802TIP3   OH250820   3.498   5.832  11.836  0.2486 -0.6886  0.1842
 9802TIP3    H150821   3.444   5.874  11.902  0.8955  1.2048 -0.4240
 9802TIP3    H250822   3.462   5.861  11.753  0.6775 -1.4234 -0.2690
 9803TIP3   OH250823   5.533   5.838   5.266  0.6513  0.1900  0.0146
 9803TIP3    H150824   5.475   5.898   5.312  0.0898  0.0938 -0.5590
 9803TIP3    H250825   5.585   5.798   5.336 -1.2028 -1.0521  0.7708
 9804TIP3   OH250826   3.766   1.397   2.670  0.3742 -0.1318 -0.2190
 9804TIP3    H150827   3.688   1.392   2.614  0.2801 -1.8875  0.0185
 9804TIP3    H250828   3.735   1.438   2.751 -0.6815 -2.0996  0.4255
 9805TIP3   OH250829   5.121   1.276  12.995  0.6997  0.5183  0.1386
 9805TIP3    H150830   5.054   1.225  12.951  0.5714  1.6953 -1.0923
 9805TIP3    H250831   5.202   1.226  12.983  0.3016 -0.2021  0.4151
 9806TIP3   OH250832   1.299   5.966   4.672  0.3963 -0.0616  0.5319
 9806TIP3    H150833   1.368   6.006   4.619 -0.2807 -1.0635 -1.1794
 9806TIP3    H250834   1.218   5.995   4.632 -0.2474  0.8836  2.3664
 9807TIP3   OH250835   2.520   3.754  16.443 -0.3866  0.2535  0.6911
 9807TIP3    H150836   2.615   3.758  16.429 -0.5054  1.5459  0.1245
 9807TIP3    H250837   2.492   3.845  16.443 -1.8776 -0.1458 -0.9722
 9808TIP3   OH250838   5.177   0.693   5.969 -0.3105 -0.1109  0.3122
 9808TIP3    H150839   5.262   0.673   5.929 -0.2991  0.4383  0.0427
 9808TIP3    H250840   5.193   0.690   6.063 -0.0426 -0.2170  0.2635
 9809TIP3   OH250841   0.462   3.275  15.392  0.3568  0.8028 -0.0888
 9809TIP3    H150842   0.417   3.359  15.402  1.3199  1.7737 -2.8545
 9809TIP3    H250843   0.548   3.299  15.358  0.3087 -1.3265 -1.8747
 9810TIP3   OH250844   3.381   1.229  13.172 -0.0323  0.0419  0.9740
 9810TIP3    H150845   3.473   1.214  13.192  0.0838  0.6953  0.9397
 9810TIP3    H250846   3.346   1.141  13.156  0.1644 -0.3960  2.7459
 9811TIP3   OH250847   6.324   3.642  10.693 -0.0202  0.2363 -0.2444
 9811TIP3    H150848   6.344   3.555  10.726  0.1758  0.7393  1.0173
 9811TIP3    H250849   6.316   3.630  10.598 -0.2350 -1.1856 -0.0742
 9812TIP3   OH250850   2.268   1.997   1.265  0.0134  0.5527 -0.6707
 9812TIP3    H150851   2.189   2.003   1.319 -0.2997  0.8433 -1.1555
 9812TIP3    H250852   2.330   2.058   1.306 -0.9747  2.4886 -1.8799
 9813TIP3   OH250853   6.365   4.525   2.339 -0.5375 -0.1349 -0.0265
 9813TIP3    H150854   6.423   4.482   2.403 -1.1183 -0.1094  0.5280
 9813TIP3    H250855   6.319   4.591   2.390  0.9079  1.7484 -1.0003
 9814TIP3   OH250856   3.297   1.362  13.384  0.1666 -0.5035 -0.3068
 9814TIP3    H150857   3.265   1.300  13.449 -1.2536 -0.0119 -0.4929
 9814TIP3    H250858   3.295   1.314  13.301  0.7513 -0.7440 -0.1800
 9815TIP3   OH250859   2.560   4.104   5.805 -0.3461  0.2688 -0.6143
 9815TIP3    H150860   2.623   4.033   5.817 -0.0903  0.6974  0.9594
 9815TIP3    H250861   2.522   4.089   5.719 -0.3450 -1.7987 -0.3059
 9816TIP3   OH250862   6.133   1.166   6.763  0.0061 -0.1382 -0.5575
 9816TIP3    H150863   6.205   1.103   6.761 -0.4276 -0.6304 -1.4499
 9816TIP3    H250864   6.164   1.239   6.708 -0.0399 -0.2042 -0.6725
 9817TIP3   OH250865   1.870   1.833   5.414  0.7622  0.1418 -0.5715
 9817TIP3    H150866   1.896   1.826   5.505 -0.1206 -0.5163 -0.3552
 9817TIP3    H250867   1.777   1.856   5.417  0.8629  0.6714 -1.3038
 9818TIP3   OH250868   1.586   0.622  16.325 -0.1257  0.9285 -0.0385
 9818TIP3    H150869   1.494   0.642  16.341 -0.3458  0.8279 -1.1123
 9818TIP3    H250870   1.627   0.626  16.412 -1.3714 -0.2579  0.6425
 9819TIP3   OH250871   0.836   2.094   3.731  0.2703 -0.5222  0.1171
 9819TIP3    H150872   0.901   2.151   3.773 -1.0893  0.2562  1.2437
 9819TIP3    H250873   0.860   2.094   3.638  1.1551  0.7143  0.3252
 9820TIP3   OH250874   4.620   1.074  10.958  0.2271  0.1750  0.2594
 9820TIP3    H150875   4.604   1.050  11.050 -3.0940  0.2686 -0.1774
 9820TIP3    H250876   4.630   0.990  10.913  2.2165  0.1351  0.6823
 9821TIP3   OH250877   2.791   3.002  16.058  0.1257 -0.0615 -0.2254
 9821TIP3    H150878   2.838   3.063  16.116  0.9713 -2.9973  2.4494
 9821TIP3    H250879   2.706   2.991  16.100 -0.2352 -0.3165 -1.0072
 9822TIP3   OH250880   4.359   1.466   2.963 -0.7503  0.2368  0.4271
 9822TIP3    H150881   4.421   1.393   2.968 -1.8662 -0.8583 -0.8707
 9822TIP3    H250882   4.337   1.485   3.054 -1.2497 -1.8072  0.7863
 9823TIP3   OH250883   3.698   5.771   5.870 -0.0694 -0.5231  0.0096
 9823TIP3    H150884   3.758   5.697   5.876  0.0914 -0.4846 -0.9755
 9823TIP3    H250885   3.751   5.847   5.894  0.1617 -0.5478 -0.4113
 9824TIP3   OH250886   2.844   1.660   3.903  0.3826  0.4737  0.1710
 9824TIP3    H150887   2.785   1.593   3.937 -0.9568  1.7898  0.5334
 9824TIP3    H250888   2.932   1.626   3.923 -0.2151 -1.3885 -0.1332
 9825TIP3   OH250889   1.365   4.054   4.026  0.1072 -0.3986  0.4632
 9825TIP3    H150890   1.339   4.143   4.052 -0.1435 -0.2867 -0.1572
 9825TIP3    H250891   1.318   4.039   3.944  2.0117 -0.1849 -0.7289
 9826TIP3   OH250892   6.484   2.656   4.552  0.4536 -0.0403 -0.3994
 9826TIP3    H150893   6.423   2.587   4.528 -0.0691  0.6452 -1.0889
 9826TIP3    H250894   6.430   2.734   4.561  0.7719 -0.0071  2.0064
 9827TIP3   OH250895   1.962   1.850   5.655  0.7221 -0.0543  0.6366
 9827TIP3    H150896   2.025   1.922   5.643  1.5788 -0.6852  1.2165
 9827TIP3    H250897   1.905   1.881   5.726  0.7366  0.2803  0.5073
 9828TIP3   OH250898   2.318   2.740   0.575 -0.0768 -0.2538  0.2550
 9828TIP3    H150899   2.340   2.688   0.498 -0.7119  0.1557 -0.2126
 9828TIP3    H250900   2.226   2.765   0.562  0.4027  1.5889  0.0892
 9829TIP3   OH250901   1.628   3.995  15.837 -0.1203  0.5202 -0.0371
 9829TIP3    H150902   1.594   3.931  15.899  1.4474  0.5276  0.9040
 9829TIP3    H250903   1.573   4.072  15.850 -2.2118 -0.6583 -1.3918
 9830TIP3   OH250904   0.386   5.245   0.025  0.1822  0.1171 -0.0118
 9830TIP3    H150905   0.397   5.331  -0.015 -2.8767  2.0633  2.7581
 9830TIP3    H250906   0.309   5.208  -0.018 -0.2983  0.1302  0.8120
 9831TIP3   OH250907   6.463   5.209  16.608  0.0791 -0.3153 -0.2339
 9831TIP3    H150908   6.458   5.144  16.539 -0.3420  0.3948 -0.8953
 9831TIP3    H250909   6.371   5.233  16.625  0.0674 -1.3961  1.4768
 9832TIP3   OH250910   2.068   6.694   3.155  0.0369  0.2804  0.2571
 9832TIP3    H150911   2.138   6.647   3.202 -0.7488  0.1580  1.3591
 9832TIP3    H250912   2.048   6.769   3.211 -0.9297  0.1358  0.1266
 9833TIP3   OH250913   2.445   1.734  13.016  0.0803  0.3651 -0.2994
 9833TIP3    H150914   2.442   1.817  12.968  0.9662  0.2416 -0.5790
 9833TIP3    H250915   2.538   1.713  13.022 -0.1732 -1.5332 -1.8312
 9834TIP3   OH250916   3.412   3.977   5.295  0.3439 -0.1530 -0.5556
 9834TIP3    H150917   3.325   3.982   5.334  0.3449 -0.1306 -0.5557
 9834TIP3    H250918   3.429   3.884   5.286  0.0936 -0.1532 -1.0613
 9835TIP3   OH250919   2.048   0.548   1.886  0.4015 -0.7287 -0.4327
 9835TIP3    H150920   2.142   0.539   1.904  0.2794 -1.9479 -0.3385
 9835TIP3    H250921   2.007   0.478   1.936 -0.3679 -1.3831 -1.9211
 9836TIP3   OH250922   4.655   5.350   4.302 -0.6317  0.2843  0.5519
 9836TIP3    H150923   4.591   5.290   4.265 -1.6525  2.5014 -1.5124
 9836TIP3    H250924   4.737   5.328   4.258 -1.1640  0.8270 -0.7676
 9837TIP3   OH250925   6.615   5.368   5.610 -0.3255  0.5616  0.8308
 9837TIP3    H150926   6.639   5.457   5.584  0.6533  0.5268  1.5811
 9837TIP3    H250927   6.698   5.322   5.620 -0.7882 -0.1807  1.3787
 9838TIP3   OH250928   0.144   1.729  12.026  0.0627 -0.4537 -0.0604
 9838TIP3    H150929   0.082   1.657  12.014 -1.3558  0.8474 -0.7319
 9838TIP3    H250930   0.192   1.734  11.943 -2.6906  1.9364 -1.6957
 9839TIP3   OH250931   3.049   1.898  14.144 -0.5583 -0.2662 -0.0031
 9839TIP3    H150932   3.132   1.921  14.103 -1.0527  1.8206  0.0938
 9839TIP3    H250933   3.036   1.965  14.211 -3.2952  0.6901 -1.3640
 9840TIP3   OH250934   0.843   1.085   0.317  0.0153  0.0717 -0.6802
 9840TIP3    H150935   0.815   1.127   0.398 -0.4180  0.1998 -0.8973
 9840TIP3    H250936   0.938   1.076   0.327 -0.1553 -0.8531  0.2769
 9841TIP3   OH250937   5.155   1.806  11.062 -0.4052  0.5485  0.0335
 9841TIP3    H150938   5.121   1.896  11.059 -1.5161  0.1168 -1.7048
 9841TIP3    H250939   5.221   1.803  10.993  0.5708  0.3650  0.9542
 9842TIP3   OH250940   0.986   2.382  13.449 -0.3671 -0.2362  0.2313
 9842TIP3    H150941   1.022   2.456  13.402 -1.4328  0.1489  0.0002
 9842TIP3    H250942   1.062   2.327  13.469  0.3466  0.5912 -0.1515
 9843TIP3   OH250943   4.034   4.727  15.531  0.4450  0.1744 -0.0180
 9843TIP3    H150944   4.062   4.665  15.599  1.5113  0.2422 -0.3882
 9843TIP3    H250945   4.003   4.803  15.580  2.8616  0.9589  0.4125
 9844TIP3   OH250946   0.375   2.197  12.528 -0.0871  0.0756 -0.3357
 9844TIP3    H150947   0.299   2.139  12.525 -0.7071  0.9034 -0.9292
 9844TIP3    H250948   0.339   2.285  12.527  0.8643  0.4818  0.0024
 9845TIP3   OH250949   3.382   5.069   6.144 -0.1778  0.0494  0.1418
 9845TIP3    H150950   3.433   5.027   6.213 -1.6079 -0.7712  0.7567
 9845TIP3    H250951   3.310   5.113   6.191 -0.9521 -0.1826 -0.7881
 9846TIP3   OH250952   0.784   4.764   3.286  0.4527 -0.0162  0.1351
 9846TIP3    H150953   0.711   4.787   3.343  1.2464  0.9837  0.7987
 9846TIP3    H250954   0.797   4.841   3.231 -0.3604 -1.0058 -1.5019
 9847TIP3   OH250955   3.178   2.352   5.784  0.7458  0.0821  0.2721
 9847TIP3    H150956   3.144   2.406   5.713  1.7787  1.1186  0.5315
 9847TIP3    H250957   3.101   2.310   5.822  0.0148  0.7335 -0.4667
 9848TIP3   OH250958   2.274   5.949   1.258 -0.4240  0.2376 -0.3916
 9848TIP3    H150959   2.333   6.002   1.205 -0.7506  1.8447  0.7511
 9848TIP3    H250960   2.330   5.916   1.329 -0.4170 -0.1613 -0.5842
 9849TIP3   OH250961   0.615   3.802   1.936  0.5607 -0.4349  0.9740
 9849TIP3    H150962   0.708   3.797   1.915 -0.0062 -1.3156 -1.6057
 9849TIP3    H250963   0.585   3.880   1.891 -0.2204 -0.9694  0.5543
 9850TIP3   OH250964   2.437   3.908  11.807 -0.0317  0.2223  0.6113
 9850TIP3    H150965   2.414   3.939  11.894  0.7515  1.3232  0.4506
 9850TIP3    H250966   2.365   3.850  11.782  0.3197 -1.1177  2.4760
 9851TIP3   OH250967   6.431   0.531  16.301 -0.2460  0.5210  0.0506
 9851TIP3    H150968   6.444   0.458  16.240 -2.6545 -0.5362  0.6881
 9851TIP3    H250969   6.487   0.601  16.267 -1.1036 -0.1718 -3.0769
 9852TIP3   OH250970   5.096   0.768   5.244  0.4152  0.1484  0.0561
 9852TIP3    H150971   5.146   0.700   5.288 -1.1483 -0.8012  0.4273
 9852TIP3    H250972   5.007   0.758   5.278  0.0394  2.0669 -0.2499
 9853TIP3   OH250973   2.301   1.034   1.776 -0.0436 -0.5060 -0.2589
 9853TIP3    H150974   2.240   1.081   1.832 -1.8236 -1.9067 -0.9521
 9853TIP3    H250975   2.250   1.009   1.699  2.0421  0.4439 -2.0812
 9854TIP3   OH250976   5.025   2.021  17.244 -0.3832  0.5339  0.2769
 9854TIP3    H150977   5.067   2.035  17.329  0.0380 -2.7471  0.7450
 9854TIP3    H250978   4.933   2.008  17.264 -0.2611 -0.3820  0.2747
 9855TIP3   OH250979   0.711   3.401   1.245  0.4795 -0.2241  0.0036
 9855TIP3    H150980   0.689   3.308   1.249  1.8670 -0.5563  0.5715
 9855TIP3    H250981   0.807   3.403   1.251  0.6581  1.1334 -2.0444
 9856TIP3   OH250982   2.719   1.541  16.130 -0.2097  0.6370  0.4028
 9856TIP3    H150983   2.781   1.507  16.194  0.3316  1.1807  0.1844
 9856TIP3    H250984   2.763   1.619  16.094  0.3840 -0.7125 -2.0008
 9857TIP3   OH250985   0.031   6.077  17.251  0.3954 -0.3317  0.2032
 9857TIP3    H150986   0.081   6.098  17.330 -0.5884 -1.1154  1.0582
 9857TIP3    H250987  -0.003   5.989  17.267  1.4954 -1.1756 -1.7727
 9858TIP3   OH250988   0.488   6.559   1.674  0.8620  0.2225 -0.2912
 9858TIP3    H150989   0.420   6.582   1.737 -0.1599 -1.4964 -0.7215
 9858TIP3    H250990   0.564   6.536   1.728  0.5732  0.5257  0.2497
 9859TIP3   OH250991   6.505   2.518   1.338  0.5300 -0.1920 -0.0507
 9859TIP3    H150992   6.538   2.592   1.387 -1.0021 -0.1885  1.0271
 9859TIP3    H250993   6.467   2.459   1.404  0.8380 -1.4794 -0.9666
 9860TIP3   OH250994   5.311   3.341  13.224  0.0465 -0.1128 -0.0750
 9860TIP3    H150995   5.337   3.263  13.174 -0.4615  0.4522 -1.2681
 9860TIP3    H250996   5.291   3.406  13.157  1.6710  1.4795  0.9167
 9861TIP3   OH250997   2.830   5.249   0.862  0.6194 -0.1928 -0.7943
 9861TIP3    H150998   2.841   5.179   0.797  1.0250  0.0451 -0.9895
 9861TIP3    H250999   2.881   5.322   0.826  0.9955 -0.1191 -0.1180
 9862TIP3   OH251000   1.940   1.644  12.184  0.0060 -0.1613 -0.5019
 9862TIP3    H151001   1.951   1.735  12.209 -0.5730 -0.1893 -0.1327
 9862TIP3    H251002   2.028   1.616  12.157  0.1877  0.4995 -0.6219
 9863TIP3   OH251003   4.524   5.212   4.512 -0.7312 -0.1162  0.2507
 9863TIP3    H151004   4.505   5.199   4.420  1.7387  0.5802 -0.4282
 9863TIP3    H251005   4.524   5.124   4.550 -1.9649 -0.3877 -0.3192
 9864TIP3   OH251006   2.616   5.966   5.692  0.2375  0.0915 -0.4420
 9864TIP3    H151007   2.589   5.989   5.781 -0.3984 -1.9575 -0.0459
 9864TIP3    H251008   2.566   5.886   5.672 -0.4695  1.0845 -3.0697
 9865TIP3   OH251009   3.737   0.516   1.273  0.3797  0.0718  0.3356
 9865TIP3    H151010   3.663   0.555   1.226  2.0622  3.6314  0.3328
 9865TIP3    H251011   3.808   0.514   1.209  0.8924 -1.4185  0.9006
 9866TIP3   OH251012   1.955   0.643  14.865 -0.5965  0.2505 -0.2225
 9866TIP3    H151013   1.879   0.594  14.833  0.4080 -0.0897 -2.2717
 9866TIP3    H251014   2.031   0.597  14.828  0.4265  2.8429 -1.6530
 9867TIP3   OH251015   3.702   3.405   1.161 -0.0990  0.0831 -0.4437
 9867TIP3    H151016   3.748   3.444   1.087  1.5772  1.0125  1.0037
 9867TIP3    H251017   3.751   3.434   1.238 -1.9079 -0.6362  1.0703
 9868TIP3   OH251018   3.381   4.117   3.708 -0.0733  0.2640  0.2685
 9868TIP3    H151019   3.459   4.166   3.681  0.7424 -0.3264  1.4468
 9868TIP3    H251020   3.336   4.096   3.627 -0.6141  3.1705 -0.3091
 9869TIP3   OH251021   0.720   6.172   5.914  0.0781  0.0003 -0.1298
 9869TIP3    H151022   0.816   6.173   5.912  0.1943  1.2206  2.2786
 9869TIP3    H251023   0.696   6.262   5.937 -1.7018 -0.2025 -1.0186
 9870TIP3   OH251024   0.531   1.388  12.600  0.3033  0.6524 -0.0559
 9870TIP3    H151025   0.477   1.393  12.521  2.0900 -0.0290 -1.3681
 9870TIP3    H251026   0.612   1.347  12.572  0.7156 -0.3173  2.3186
 9871TIP3   OH251027   1.194   1.204  12.793  0.3393  0.1601 -0.6747
 9871TIP3    H151028   1.125   1.148  12.758 -0.5686 -0.2124  1.5495
 9871TIP3    H251029   1.149   1.284  12.819  0.2753 -0.8399  2.6413
 9872TIP3   OH251030   4.709   1.607   3.039  0.3861 -0.0714 -0.6410
 9872TIP3    H151031   4.789   1.661   3.044  0.8963 -0.7791 -1.0080
 9872TIP3    H251032   4.741   1.518   3.026 -0.4224 -0.5829  0.6435
 9873TIP3   OH251033   1.832   3.447   6.176 -0.0726  0.0628  0.6513
 9873TIP3    H151034   1.858   3.466   6.086  0.1596 -2.6998  0.0208
 9873TIP3    H251035   1.737   3.438   6.173 -0.0407 -0.2859  0.6047
 9874TIP3   OH251036   0.508   4.624   3.873  0.0200  0.3849 -0.3827
 9874TIP3    H151037   0.481   4.713   3.850  0.7090  0.3483 -1.3954
 9874TIP3    H251038   0.603   4.629   3.882  0.0318 -0.1842 -0.1384
 9875TIP3   OH251039   0.016   3.788   6.199  0.7485  0.2498  0.1494
 9875TIP3    H151040   0.053   3.732   6.130 -0.9567 -0.0982 -0.5407
 9875TIP3    H251041   0.060   3.759   6.279  1.4892 -0.5588 -0.5249
 9876TIP3   OH251042   2.420   1.532   3.627  0.3767  0.0915 -0.1707
 9876TIP3    H151043   2.514   1.519   3.639  0.2440 -1.9204 -1.0279
 9876TIP3    H251044   2.382   1.446   3.644 -1.4607  1.1500  1.3567
 9877TIP3   OH251045   5.507   2.475  13.319  0.4972 -0.0616 -0.2470
 9877TIP3    H151046   5.431   2.508  13.270  0.2566  2.6705  1.7860
 9877TIP3    H251047   5.502   2.380  13.307 -2.8819  0.0309 -0.7408
 9878TIP3   OH251048   3.195   2.442  12.609  0.2575 -0.1170  0.7505
 9878TIP3    H151049   3.235   2.356  12.624  1.7497  0.3075 -0.5774
 9878TIP3    H251050   3.207   2.459  12.515 -1.6304  0.7657  0.6207
 9879TIP3   OH251051   1.356   4.429   3.475  0.1873  0.2506 -0.2639
 9879TIP3    H151052   1.447   4.435   3.505 -0.1325  1.0343  0.6154
 9879TIP3    H251053   1.334   4.336   3.484  1.2258 -0.1515 -1.5351
 9880TIP3   OH251054   2.402   1.403   4.113  0.0611 -0.2427 -0.1819
 9880TIP3    H151055   2.387   1.495   4.137 -1.4568  0.0345 -1.9463
 9880TIP3    H251056   2.399   1.356   4.196 -1.7308  1.0236  0.5491
 9881TIP3   OH251057   0.881   6.423   1.882  0.2860 -0.5724 -0.3326
 9881TIP3    H151058   0.891   6.479   1.805 -1.8284  0.0871 -0.1855
 9881TIP3    H251059   0.809   6.462   1.931  1.2606 -1.2577  1.7613
 9882TIP3   OH251060   1.361   0.838   4.534 -0.4405 -0.1000 -0.2556
 9882TIP3    H151061   1.268   0.853   4.515 -0.5198 -0.8162 -0.4606
 9882TIP3    H251062   1.369   0.849   4.628 -1.1288 -1.9441  0.0670
 9883TIP3   OH251063   3.489   3.766   2.680  0.3819  0.6249 -0.0409
 9883TIP3    H151064   3.485   3.707   2.604 -0.5479  1.7881 -0.9241
 9883TIP3    H251065   3.512   3.851   2.644  1.0951  0.9582  1.1483
 9884TIP3   OH251066   5.736   4.082   2.773  0.1959 -0.0022  0.1559
 9884TIP3    H151067   5.738   4.061   2.679  0.1162 -0.4947  0.2605
 9884TIP3    H251068   5.753   4.176   2.777  1.8596 -0.2581 -0.2477
 9885TIP3   OH251069   2.254   0.465  10.709 -0.1346 -0.0187  0.7322
 9885TIP3    H151070   2.342   0.475  10.673 -0.2162 -1.2811  0.1374
 9885TIP3    H251071   2.227   0.378  10.682 -1.1573 -0.0570  1.8252
 9886TIP3   OH251072   1.366   3.363   4.359  0.4499  0.0818 -0.5808
 9886TIP3    H151073   1.314   3.442   4.345 -0.2654 -0.4155 -0.7813
 9886TIP3    H251074   1.343   3.336   4.448  1.1689  0.4401 -0.2795
 9887TIP3   OH251075   4.338   1.018   4.954  0.4278  0.1857  0.2074
 9887TIP3    H151076   4.402   1.010   5.025  0.0987  1.2666  0.6248
 9887TIP3    H251077   4.292   0.934   4.954  0.2392  0.2805  1.4466
 9888TIP3   OH251078   5.500   5.926  15.248 -0.3650  0.3569  1.0652
 9888TIP3    H151079   5.481   6.019  15.262  0.5171  0.6745  0.2403
 9888TIP3    H251080   5.586   5.925  15.205 -1.1992 -0.7329 -0.6975
 9889TIP3   OH251081   0.821   1.810   3.189 -0.1477 -0.7139 -0.0164
 9889TIP3    H151082   0.875   1.834   3.265 -0.5874 -1.5742  0.5888
 9889TIP3    H251083   0.875   1.749   3.140 -0.6504 -1.7788  0.7290
 9890TIP3   OH251084   2.383   1.647  11.120  0.4761  0.4538 -0.6207
 9890TIP3    H151085   2.453   1.583  11.109 -1.1579 -1.2155 -1.7576
 9890TIP3    H251086   2.318   1.603  11.173  0.4482  2.1718  0.8709
 9891TIP3   OH251087   4.914   0.226  17.184  0.0524 -0.2328 -0.4708
 9891TIP3    H151088   4.929   0.239  17.091  0.3207 -1.0167 -0.5381
 9891TIP3    H251089   4.968   0.293  17.227  1.0195 -0.7804 -0.8270
 9892TIP3   OH251090   2.488   2.559  15.952  0.0216  0.7039  0.0133
 9892TIP3    H151091   2.564   2.528  15.904  0.9473  1.0912  1.1813
 9892TIP3    H251092   2.524   2.611  16.024 -1.3635  1.3450  0.2819
 9893TIP3   OH251093   3.930   5.703  17.162 -0.0069  0.9471  0.1458
 9893TIP3    H151094   3.853   5.761  17.158 -0.9365 -0.1290  1.4234
 9893TIP3    H251095   3.993   5.751  17.215 -0.6993  0.8946  1.0388
 9894TIP3   OH251096   5.758   0.640  17.246 -0.4112  0.5137 -0.0735
 9894TIP3    H151097   5.794   0.567  17.197 -1.6165  0.1032 -0.3708
 9894TIP3    H251098   5.672   0.610  17.275 -0.5483  1.4804  0.5765
 9895TIP3   OH251099   3.138   0.754  12.963 -0.5946  0.8677 -0.5477
 9895TIP3    H151100   3.230   0.731  12.975 -1.3662 -1.4719  2.0106
 9895TIP3    H251101   3.107   0.692  12.896 -0.9608 -0.6776  0.9647
 9896TIP3   OH251102   1.706   3.014   1.080 -0.2227  0.2118 -0.4221
 9896TIP3    H151103   1.755   3.060   1.149 -1.0616 -0.2351  0.4995
 9896TIP3    H251104   1.726   3.062   1.000  3.2239 -1.0074 -0.4627
 9897TIP3   OH251105   5.008   6.685   5.762  0.3177 -0.3812  0.4271
 9897TIP3    H151106   5.071   6.687   5.834 -0.0482  0.6020  0.7395
 9897TIP3    H251107   5.036   6.756   5.704 -0.0392 -0.4465  0.1702
 9898TIP3   OH251108   0.484   2.772  13.455  0.0896 -0.0904 -0.1693
 9898TIP3    H151109   0.475   2.703  13.390  2.7117 -1.0498  0.3416
 9898TIP3    H251110   0.414   2.755  13.518 -2.9882  1.2889 -2.8946
 9899TIP3   OH251111   5.491   0.927  14.854 -0.3232 -0.8380  0.3287
 9899TIP3    H151112   5.405   0.902  14.887 -0.1909 -2.3840 -0.4092
 9899TIP3    H251113   5.501   1.019  14.880 -1.6513 -1.0011  1.5191
 9900TIP3   OH251114   6.727   1.594   0.497 -0.0958  0.2025 -0.0043
 9900TIP3    H151115   6.757   1.520   0.444  1.2712  1.1715 -0.6581
 9900TIP3    H251116   6.678   1.554   0.568  0.9953 -1.3759 -0.0657
 9901TIP3   OH251117   4.594   5.775   6.209  0.4685  0.0265  0.2172
 9901TIP3    H151118   4.638   5.693   6.230  2.4545  1.0458  0.1972
 9901TIP3    H251119   4.550   5.758   6.125  0.2642 -1.1956  0.5490
 9902TIP3   OH251120   4.520   5.020   0.661  0.1944 -0.0404 -0.4230
 9902TIP3    H151121   4.489   5.093   0.714  1.2462 -1.7602  2.7957
 9902TIP3    H251122   4.451   4.954   0.668  0.8189 -0.6941 -0.2613
 9903TIP3   OH251123   4.543   3.779  13.857  0.3365 -0.8394  0.4802
 9903TIP3    H151124   4.450   3.797  13.870  0.5265 -0.2383  1.0819
 9903TIP3    H251125   4.575   3.852  13.805  0.2931 -1.5135 -0.5214
 9904TIP3   OH251126   0.349   4.735   5.623 -0.9925  0.1971 -0.5104
 9904TIP3    H151127   0.380   4.702   5.708 -0.9169 -0.2155 -0.6987
 9904TIP3    H251128   0.290   4.667   5.591 -1.6722  0.7275 -0.4087
 9905TIP3   OH251129   4.099   3.314   5.383  0.2373  0.5982  0.6327
 9905TIP3    H151130   4.183   3.358   5.395  1.2752 -0.7310 -1.1681
 9905TIP3    H251131   4.087   3.262   5.462  1.3265  0.5100  0.7496
 9906TIP3   OH251132   5.984   3.054   4.346 -0.4125  0.0126  0.0923
 9906TIP3    H151133   5.943   3.037   4.431 -0.0681  0.6597  0.3937
 9906TIP3    H251134   6.022   3.141   4.354 -0.5276  0.1550 -0.7926
 9907TIP3   OH251135   3.671   5.668   1.212 -0.0801  0.2828 -0.8476
 9907TIP3    H151136   3.593   5.631   1.254 -0.5704  0.6035 -1.4585
 9907TIP3    H251137   3.713   5.720   1.281  0.2031 -0.7693 -0.1982
 9908TIP3   OH251138   1.712   6.418   0.496  0.0007 -0.3269 -0.1491
 9908TIP3    H151139   1.742   6.391   0.409  1.3199 -3.3263  1.0991
 9908TIP3    H251140   1.645   6.354   0.520 -0.9320  0.9265  0.7791
 9909TIP3   OH251141   2.322   1.236  15.466  0.8254  0.1452 -0.6501
 9909TIP3    H151142   2.352   1.161  15.414  4.6187  1.3680 -0.5478
 9909TIP3    H251143   2.289   1.298  15.402  0.4940 -0.4003 -1.0201
 9910TIP3   OH251144   2.979   5.723  14.343  0.3115 -0.1197  0.7645
 9910TIP3    H151145   2.887   5.701  14.327 -0.0245  0.1244  2.2034
 9910TIP3    H251146   2.978   5.764  14.429  1.7176  0.3122  0.5866
 9911TIP3   OH251147   2.260   6.481   6.040 -0.3090  0.0858  0.4181
 9911TIP3    H151148   2.269   6.566   5.997 -1.8604 -0.2931 -0.7608
 9911TIP3    H251149   2.199   6.496   6.111  0.6145  0.2564  1.1986
 9912TIP3   OH251150   2.597   4.791  14.188  0.8009  0.4903  0.2757
 9912TIP3    H151151   2.562   4.783  14.099  0.1228 -0.1016  0.5811
 9912TIP3    H251152   2.572   4.709  14.230  1.4398  0.6131  0.9058
 9913TIP3   OH251153   5.977   6.348  11.598 -0.1608  0.0062 -0.0028
 9913TIP3    H151154   5.924   6.282  11.554 -2.2771  1.1036  0.7395
 9913TIP3    H251155   6.019   6.302  11.669 -0.2265 -0.8816 -0.5250
 9914TIP3   OH251156   6.253   1.938  15.581  0.2770  0.1422 -0.2186
 9914TIP3    H151157   6.263   1.901  15.669  1.2547 -0.2740 -0.4878
 9914TIP3    H251158   6.266   2.032  15.593  1.0651  0.0156  0.0029
 9915TIP3   OH251159   3.744   5.189   0.540  0.0676 -0.0939 -0.1982
 9915TIP3    H151160   3.723   5.153   0.454  0.8551  0.9792 -0.8756
 9915TIP3    H251161   3.716   5.281   0.535  0.4202  0.0646  0.5785
 9916TIP3   OH251162   0.347   0.039  15.671  0.1453  0.5313  0.1575
 9916TIP3    H151163   0.345  -0.048  15.711  1.0832  0.1933 -0.5054
 9916TIP3    H251164   0.404   0.090  15.729  0.2204  0.4870  0.1228
 9917TIP3   OH251165   5.312   5.856   2.446  0.0298  0.1390  0.5283
 9917TIP3    H151166   5.357   5.940   2.438  0.5297 -0.2457 -1.5613
 9917TIP3    H251167   5.222   5.874   2.420 -0.1216  0.2051  1.0845
 9918TIP3   OH251168   3.723   0.632  15.615  0.1917  0.1566 -0.2181
 9918TIP3    H151169   3.647   0.646  15.670 -0.6581 -1.1181 -1.0226
 9918TIP3    H251170   3.750   0.720  15.589 -1.3148  0.6088 -0.3385
 9919TIP3   OH251171   3.603   5.245  14.122 -0.7679  0.0055  0.0491
 9919TIP3    H151172   3.668   5.288  14.066 -0.3102 -1.8066 -0.8897
 9919TIP3    H251173   3.523   5.296  14.108 -0.0520  1.0722 -0.3279
 9920TIP3   OH251174   2.193   0.313   3.987 -0.5571 -0.6907  0.0287
 9920TIP3    H151175   2.281   0.337   4.018 -0.9719  0.3682  0.4241
 9920TIP3    H251176   2.177   0.227   4.025  0.2154 -0.7887  0.1498
 9921TIP3   OH251177   6.480   2.027  14.893 -0.0086  1.2830 -0.8062
 9921TIP3    H151178   6.432   2.087  14.949 -0.4817 -0.3182  0.5993
 9921TIP3    H251179   6.440   1.942  14.910  1.5359  0.3406 -1.6681
 9922TIP3   OH251180   2.052   1.121  11.472 -0.4918 -0.3967 -0.1533
 9922TIP3    H151181   1.990   1.140  11.402  1.1052 -1.5287 -1.9932
 9922TIP3    H251182   2.039   1.191  11.536 -1.7134  0.9494 -1.7896
 9923TIP3   OH251183   0.887   3.919   3.797 -0.6854 -0.1013  0.1755
 9923TIP3    H151184   0.799   3.953   3.780 -0.7884 -1.3062 -2.0889
 9923TIP3    H251185   0.913   3.878   3.715  3.3728  3.0168 -0.4260
 9924TIP3   OH251186   2.610   5.756   2.646 -0.6500 -0.0644 -0.4796
 9924TIP3    H151187   2.595   5.728   2.556 -2.5129 -1.9688  0.3400
 9924TIP3    H251188   2.684   5.703   2.676 -1.1592 -0.7266 -0.3731
 9925TIP3   OH251189   3.543   5.796  15.269  0.3077  0.5335 -0.0622
 9925TIP3    H151190   3.577   5.851  15.340 -0.3627  1.5443 -0.5069
 9925TIP3    H251191   3.514   5.858  15.202  0.5227 -0.3989 -1.0423
 9926TIP3   OH251192   5.262   3.405  13.866 -0.0701  0.3045 -0.3582
 9926TIP3    H151193   5.303   3.371  13.786 -0.8815  2.1933 -1.6271
 9926TIP3    H251194   5.306   3.488  13.883 -0.7410  0.5047  0.4971
 9927TIP3   OH251195   4.687   2.940   2.293 -0.2012 -0.2398  0.0559
 9927TIP3    H151196   4.727   2.974   2.213 -0.4589 -0.3910 -0.1407
 9927TIP3    H251197   4.701   3.008   2.358 -0.1110 -0.0572 -0.1553
 9928TIP3   OH251198   2.719   5.009   6.125 -0.2999 -0.2942  0.3698
 9928TIP3    H151199   2.701   4.975   6.212 -2.2877 -1.9453 -0.5917
 9928TIP3    H251200   2.654   5.078   6.111 -2.7033 -2.6547 -1.1292
 9929TIP3   OH251201   0.472   4.225   0.618  0.1068 -0.1588 -0.3450
 9929TIP3    H151202   0.426   4.168   0.680  0.2973 -3.1266 -2.6882
 9929TIP3    H251203   0.403   4.261   0.562  0.2662 -1.4470 -1.4082
 9930TIP3   OH251204   3.295   3.800   2.119  0.5654 -0.3184 -0.1309
 9930TIP3    H151205   3.226   3.831   2.061  0.7255  1.1080  0.4108
 9930TIP3    H251206   3.356   3.873   2.125  0.4580 -0.3500  1.9830
 9931TIP3   OH251207   2.880   3.840   4.644 -0.6601 -0.2268 -0.0328
 9931TIP3    H151208   2.846   3.751   4.643 -1.0603 -0.0762 -1.1946
 9931TIP3    H251209   2.971   3.831   4.672 -0.1008 -1.2407 -2.0411
 9932TIP3   OH251210   5.158   5.350  16.397 -0.1952  0.4838  0.2914
 9932TIP3    H151211   5.104   5.273  16.380  0.1010  0.2665  0.3299
 9932TIP3    H251212   5.147   5.405  16.319 -0.2818  0.3294  0.1949
 9933TIP3   OH251213   6.313   0.687  15.704 -0.3372 -0.3598  0.1662
 9933TIP3    H151214   6.267   0.634  15.639 -0.7290 -2.0856  1.7549
 9933TIP3    H251215   6.397   0.643  15.716  0.0151  0.3379  0.3336
 9934TIP3   OH251216   6.103   3.742  10.490  0.6584 -0.8616  0.3036
 9934TIP3    H151217   6.155   3.798  10.547 -0.6495  1.0621 -0.3023
 9934TIP3    H251218   6.160   3.668  10.469  2.8036  0.7105  0.3509
 9935TIP3   OH251219   2.835   2.208  12.742  0.5324 -0.3503 -0.2768
 9935TIP3    H151220   2.846   2.115  12.762  1.0327 -0.2589 -0.1066
 9935TIP3    H251221   2.903   2.252  12.792  0.6496  0.0590 -0.7788
 9936TIP3   OH251222   1.515   1.082  11.779 -0.3314  0.4558  0.1173
 9936TIP3    H151223   1.569   1.160  11.791 -2.3112  1.9104  0.1647
 9936TIP3    H251224   1.430   1.116  11.749 -1.0600 -1.7414 -0.5000
 9937TIP3   OH251225   2.257   1.429  13.462 -0.0477 -0.1860 -0.0463
 9937TIP3    H151226   2.344   1.465  13.451  0.8956 -2.0759  0.6913
 9937TIP3    H251227   2.202   1.504  13.483  1.0027  1.3134 -2.3021
 9938TIP3   OH251228   6.732   4.902  11.873  0.3180  0.6918  0.1934
 9938TIP3    H151229   6.785   4.971  11.914  0.0180  1.3597 -0.5042
 9938TIP3    H251230   6.779   4.881  11.793 -1.3252  2.5896 -1.3805
 9939TIP3   OH251231   5.627   6.480  11.904  0.3005  0.7906 -0.4820
 9939TIP3    H151232   5.602   6.539  11.833  1.8660  0.8160 -1.0476
 9939TIP3    H251233   5.607   6.392  11.871 -1.0548  0.9178 -0.0492
 9940TIP3   OH251234   4.308   1.740  16.073 -0.2542  0.1105  0.6232
 9940TIP3    H151235   4.327   1.662  16.020  2.3251 -0.3097  1.9632
 9940TIP3    H251236   4.234   1.714  16.128 -0.6217 -0.7187 -0.2242
 9941TIP3   OH251237   5.901   1.863   2.757  0.8141 -0.1912  0.4898
 9941TIP3    H151238   5.903   1.896   2.847  0.8831 -0.2647  0.5157
 9941TIP3    H251239   5.824   1.806   2.755  2.1078 -2.0341  1.1620
 9942TIP3   OH251240   1.278   6.237  16.185 -0.1465  0.1466 -0.5010
 9942TIP3    H151241   1.366   6.239  16.224  0.3218  0.7018 -1.5548
 9942TIP3    H251242   1.220   6.224  16.260  0.8211 -0.1581  0.2259
 9943TIP3   OH251243   6.154   6.747   5.226 -0.0630  0.0560 -0.1414
 9943TIP3    H151244   6.145   6.835   5.265  2.1940 -0.0667  0.8645
 9943TIP3    H251245   6.080   6.739   5.167 -1.4592  1.8539  1.2305
 9944TIP3   OH251246   1.349   0.307  12.966  0.1631 -0.3196  0.0540
 9944TIP3    H151247   1.439   0.275  12.974 -0.1876 -1.7730 -1.3155
 9944TIP3    H251248   1.305   0.276  13.045  1.5114  3.1192  2.4182
 9945TIP3   OH251249   1.539   6.623   2.293 -0.1302  0.1786  0.0069
 9945TIP3    H151250   1.478   6.619   2.367  0.1829 -2.5564  0.2252
 9945TIP3    H251251   1.507   6.696   2.239 -3.1384 -0.6241  0.5089
 9946TIP3   OH251252   2.782   4.022  15.028 -0.4071 -0.0376  0.1267
 9946TIP3    H151253   2.830   3.962  14.972  0.4557  1.0306 -0.3092
 9946TIP3    H251254   2.812   4.002  15.117 -0.8666 -0.9032  0.0942
 9947TIP3   OH251255   0.443   3.234   3.852 -0.3148  0.4045 -0.1155
 9947TIP3    H151256   0.405   3.262   3.935 -0.7784  1.9048 -0.8062
 9947TIP3    H251257   0.442   3.138   3.856 -1.3733  0.4478  1.1317
 9948TIP3   OH251258   0.090   4.446   6.558 -0.2965 -0.1056  0.4043
 9948TIP3    H151259   0.008   4.412   6.595  0.3373 -1.3927  0.6892
 9948TIP3    H251260   0.132   4.369   6.520  1.3197  0.3248  1.2660
 9949TIP3   OH251261   1.855   6.393   6.253  0.5790 -0.0222  0.4131
 9949TIP3    H151262   1.860   6.485   6.227 -1.0163  0.4614  1.6623
 9949TIP3    H251263   1.941   6.373   6.290  1.3492  0.5832 -0.9682
 9950TIP3   OH251264   6.465   0.437  11.716  0.4351  0.4819 -0.2058
 9950TIP3    H151265   6.426   0.375  11.655 -0.2943  0.6020  0.1260
 9950TIP3    H251266   6.429   0.522  11.691 -1.2654  0.3087  1.4645
 9951TIP3   OH251267   0.345   0.418  17.145 -0.2980 -0.1327 -0.0032
 9951TIP3    H151268   0.257   0.454  17.162  0.1969  1.1654 -0.0674
 9951TIP3    H251269   0.362   0.362  17.221  0.0315  2.0422  1.6576
 9952TIP3   OH251270   4.051   5.001   6.245 -0.4137 -0.0373 -0.2009
 9952TIP3    H151271   4.125   5.005   6.306 -0.0751  1.1075 -0.6560
 9952TIP3    H251272   4.043   4.908   6.223  1.1226 -0.1530 -0.3961
 9953TIP3   OH251273   0.281   1.831  14.667  0.4220  0.5973 -0.5688
 9953TIP3    H151274   0.290   1.878  14.583 -0.4687  0.3715 -0.8014
 9953TIP3    H251275   0.210   1.877  14.712 -1.9806 -1.7447 -1.6974
 9954TIP3   OH251276   0.826   4.293  16.069 -0.6350 -0.0155 -0.1586
 9954TIP3    H151277   0.866   4.266  15.986 -2.0594 -0.8923 -0.5943
 9954TIP3    H251278   0.733   4.279  16.056 -0.8764 -0.2919  1.6646
 9955TIP3   OH251279   6.594   1.482   0.114 -0.1585 -0.0707  0.4788
 9955TIP3    H151280   6.549   1.499   0.031  1.3270  0.0806 -0.3334
 9955TIP3    H251281   6.672   1.433   0.090 -0.6478 -1.7246  2.0243
 9956TIP3   OH251282   6.694   2.369  16.565  0.0834  0.1074 -0.6494
 9956TIP3    H151283   6.733   2.284  16.546  0.4910 -0.0150  0.6242
 9956TIP3    H251284   6.602   2.359  16.539  0.4228 -0.2723 -1.7475
 9957TIP3   OH251285   5.660   4.063   1.765  0.6589  0.5609  0.3195
 9957TIP3    H151286   5.720   4.121   1.812 -1.8387  1.5425  2.5093
 9957TIP3    H251287   5.578   4.112   1.762 -1.2352 -2.3539  1.2381
 9958TIP3   OH251288   6.556   0.491   5.914  0.1310 -0.0980  0.3367
 9958TIP3    H151289   6.467   0.528   5.914 -0.4193 -1.2212 -1.9321
 9958TIP3    H251290   6.597   0.527   5.992 -2.5273 -0.0795  1.8351
 9959TIP3   OH251291   4.964   0.693   3.926  0.3182  0.2229  0.5672
 9959TIP3    H151292   4.932   0.720   3.840  1.0822  1.8999  0.7783
 9959TIP3    H251293   4.987   0.600   3.914  0.5859  0.4670 -1.0837
 9960TIP3   OH251294   6.048   3.320  11.236  0.4441  0.4275  0.2297
 9960TIP3    H151295   6.003   3.313  11.152  0.9930  2.6541 -0.3171
 9960TIP3    H251296   6.138   3.291  11.218 -0.1023 -1.7737  0.7687
 9961TIP3   OH251297   5.918   4.163  14.276  0.2926 -0.0712  0.4766
 9961TIP3    H151298   5.948   4.180  14.186 -1.6805  0.9488 -0.0482
 9961TIP3    H251299   5.953   4.076  14.297  1.6765  0.1247 -0.8748
 9962TIP3   OH251300   1.808   1.984  10.689  0.4776 -0.2157  0.3921
 9962TIP3    H151301   1.720   1.967  10.654  1.5023 -0.1880 -2.4949
 9962TIP3    H251302   1.862   2.001  10.611  2.6219  1.8953  2.1599
 9963TIP3   OH251303   2.229   2.214   5.323 -0.5845 -0.1573  0.2587
 9963TIP3    H151304   2.183   2.240   5.403  0.5673  0.3671  0.7672
 9963TIP3    H251305   2.317   2.191   5.352 -0.4009 -0.7917 -0.7481
 9964TIP3   OH251306   5.446   2.270   5.415 -0.0366 -0.3010  0.0093
 9964TIP3    H151307   5.436   2.210   5.341 -1.3324  0.4954 -0.4991
 9964TIP3    H251308   5.524   2.239   5.461 -0.0923 -1.7432 -0.8154
 9965TIP3   OH251309   5.814   5.749  16.655  0.2724  0.0062  0.1567
 9965TIP3    H151310   5.847   5.825  16.607  0.5069  0.3841  0.8940
 9965TIP3    H251311   5.853   5.673  16.611 -1.7979  0.1371 -2.0379
 9966TIP3   OH251312   6.216   2.064   5.717 -0.0427  0.0873  0.2579
 9966TIP3    H151313   6.224   2.065   5.621  2.1314 -0.8488  0.3890
 9966TIP3    H251314   6.137   2.116   5.734 -0.0985  0.8674 -1.9947
 9967TIP3   OH251315   4.780   1.130  12.557 -0.3696  0.2556 -0.4229
 9967TIP3    H151316   4.763   1.038  12.578 -0.6696 -0.0991 -2.0562
 9967TIP3    H251317   4.700   1.175  12.582 -0.4348 -0.0224 -0.1248
 9968TIP3   OH251318   5.897   2.472  10.847 -0.3278 -0.5634  0.0884
 9968TIP3    H151319   5.944   2.388  10.853  1.9577  0.3384 -2.7847
 9968TIP3    H251320   5.965   2.538  10.861 -1.1975  0.8066 -1.7264
 9969TIP3   OH251321   1.856   5.289  15.371  0.1717 -0.0913 -0.0110
 9969TIP3    H151322   1.774   5.254  15.338 -0.0950  0.5114 -0.0074
 9969TIP3    H251323   1.908   5.308  15.293  0.3482 -0.5557 -0.0099
 9970TIP3   OH251324   1.876   6.235   3.714  0.2529  0.5870  1.2586
 9970TIP3    H151325   1.854   6.142   3.721  0.2680  0.5010  0.3073
 9970TIP3    H251326   1.805   6.280   3.760 -0.2459  0.1466  0.9306
 9971TIP3   OH251327   1.535   4.288   0.119  0.4103  0.3120 -0.0507
 9971TIP3    H151328   1.469   4.288   0.049  2.6908  0.6341 -2.3265
 9971TIP3    H251329   1.493   4.241   0.191 -2.2332  0.3712 -1.4261
 9972TIP3   OH251330   1.186   1.959  10.857 -0.3202  0.3683  0.3154
 9972TIP3    H151331   1.157   1.883  10.906 -0.3552  0.5472  0.5761
 9972TIP3    H251332   1.143   1.951  10.771  0.4830 -0.4436 -0.0297
 9973TIP3   OH251333   3.869   4.919   1.879 -0.5926 -0.1055  0.1942
 9973TIP3    H151334   3.955   4.877   1.871 -0.7375 -0.1846 -1.1548
 9973TIP3    H251335   3.811   4.850   1.909 -0.2313 -0.0868  0.9811
 9974TIP3   OH251336   2.012   4.497  16.561 -0.0266  0.2662 -0.1698
 9974TIP3    H151337   1.991   4.495  16.654 -0.9097 -1.2669 -0.3612
 9974TIP3    H251338   2.056   4.581  16.548 -0.0222  0.5771  1.5884
 9975TIP3   OH251339   3.452   0.585  15.450 -0.1717  0.1669  0.3270
 9975TIP3    H151340   3.456   0.602  15.544 -2.9371  1.1982  0.3725
 9975TIP3    H251341   3.381   0.522  15.441 -0.5336  0.7536 -1.1227
 9976TIP3   OH251342   1.071   2.560   2.453 -0.0426 -0.2943 -0.1448
 9976TIP3    H151343   1.014   2.627   2.489  0.0459  0.4798 -1.3859
 9976TIP3    H251344   1.038   2.478   2.491 -2.3852  0.0376 -1.2499
 9977TIP3   OH251345   6.596   0.388  14.272  0.0044 -0.2233  0.3121
 9977TIP3    H151346   6.604   0.347  14.359 -0.8453 -1.0829  0.0057
 9977TIP3    H251347   6.521   0.446  14.279  1.9330  2.3711  1.1147
 9978TIP3   OH251348   4.158   5.299   4.413 -0.1438 -0.2304 -0.2579
 9978TIP3    H151349   4.071   5.289   4.451 -0.0255  3.3435  1.3643
 9978TIP3    H251350   4.147   5.363   4.343  1.1124 -0.0051 -0.2736
 9979TIP3   OH251351   3.164   3.176  13.848 -0.1576 -0.2456 -0.4631
 9979TIP3    H151352   3.069   3.179  13.837 -0.4700 -1.1088  1.5883
 9979TIP3    H251353   3.198   3.177  13.758 -1.9439  2.7444 -1.2600
 9980TIP3   OH251354   3.157   3.897  17.090  0.4402 -0.0877 -0.2670
 9980TIP3    H151355   3.102   3.891  17.012  1.9444 -1.7013 -1.2851
 9980TIP3    H251356   3.165   3.807  17.122 -0.4701  0.5728  2.0455
 9981TIP3   OH251357   2.600   6.573  16.854  1.0410  0.5463  0.0248
 9981TIP3    H151358   2.687   6.548  16.882  0.6523 -0.0049  0.7807
 9981TIP3    H251359   2.564   6.624  16.927  1.3524  2.2938 -0.9834
 9982TIP3   OH251360   4.871   4.553   3.346  0.1743 -0.1507 -0.0163
 9982TIP3    H151361   4.892   4.520   3.433 -0.3263 -1.8641 -0.4965
 9982TIP3    H251362   4.914   4.492   3.286 -1.2872 -0.3067 -0.9674
 9983TIP3   OH251363   4.379   6.124  12.492  0.1093 -0.0056 -0.4967
 9983TIP3    H151364   4.472   6.148  12.489  0.3085 -0.8013 -1.1132
 9983TIP3    H251365   4.349   6.152  12.578  0.8545  0.5189 -0.4045
 9984TIP3   OH251366   4.211   3.942  15.562  0.4455 -0.1817 -0.8685
 9984TIP3    H151367   4.226   3.849  15.545  0.4575 -0.1841 -0.8448
 9984TIP3    H251368   4.159   3.972  15.487  0.2579 -0.2568 -0.7687
 9985TIP3   OH251369   3.582   4.052   2.577 -0.1203  0.0716  0.0452
 9985TIP3    H151370   3.668   4.046   2.621  1.3194  0.1326 -2.5812
 9985TIP3    H251371   3.567   4.146   2.566 -0.9629  0.0964  1.2084
 9986TIP3   OH251372   1.019   3.899  11.185  0.2490 -0.2615  0.2953
 9986TIP3    H151373   0.961   3.829  11.214  1.4548 -0.8834  1.2486
 9986TIP3    H251374   0.960   3.962  11.142 -0.8522 -1.8604 -0.6645
 9987TIP3   OH251375   4.922   1.117  13.214  0.4927  0.5167 -0.1187
 9987TIP3    H151376   4.854   1.159  13.160  0.7840  0.5026 -0.5002
 9987TIP3    H251377   4.949   1.186  13.275  1.4135  1.1038 -1.1506
 9988TIP3   OH251378   1.968   2.531   2.160 -0.5695 -0.1633  0.2782
 9988TIP3    H151379   2.059   2.562   2.157 -0.8763  0.6534 -1.3887
 9988TIP3    H251380   1.947   2.507   2.070 -1.6861 -1.3904  0.8237
 9989TIP3   OH251381   4.417   1.750  12.546  0.3565 -0.3343 -0.3633
 9989TIP3    H151382   4.415   1.660  12.512  2.5638 -0.5521 -0.0750
 9989TIP3    H251383   4.474   1.797  12.486 -0.1675  0.6935 -0.0720
 9990TIP3   OH251384   2.885   3.110  16.353  0.9831  0.1881  0.1798
 9990TIP3    H151385   2.957   3.081  16.296 -1.9310 -1.7703 -2.8929
 9990TIP3    H251386   2.857   3.194  16.317  1.1133  0.5095  0.8033
 9991TIP3   OH251387   5.110   3.692   3.769  0.3117  0.5768 -0.1135
 9991TIP3    H151388   5.023   3.692   3.728  0.2462  1.3009  0.0144
 9991TIP3    H251389   5.151   3.611   3.738  0.5514  1.4220 -2.2153
 9992TIP3   OH251390   4.404   1.316  17.201 -0.0597 -0.5187 -0.9708
 9992TIP3    H151391   4.452   1.233  17.211  0.9314 -0.2382 -2.8922
 9992TIP3    H251392   4.369   1.312  17.112  0.4304  1.3392 -1.2772
 9993TIP3   OH251393   5.496   5.311   5.198 -0.0220 -0.0872  0.1115
 9993TIP3    H151394   5.445   5.351   5.269 -0.0121  2.1532 -1.0760
 9993TIP3    H251395   5.519   5.384   5.141 -0.4466 -1.8610 -2.4961
 9994TIP3   OH251396   4.386   6.574   4.647 -0.9633 -0.4463 -0.2139
 9994TIP3    H151397   4.328   6.536   4.712 -2.3135  0.5348 -0.8067
 9994TIP3    H251398   4.441   6.635   4.696 -0.7019 -1.0543  0.2704
 9995TIP3   OH251399   5.776   1.382  15.185  0.2827  0.3521 -0.5074
 9995TIP3    H151400   5.813   1.453  15.133  1.2966  0.8519  0.8303
 9995TIP3    H251401   5.845   1.316  15.188 -0.2392 -0.2170 -0.8236
 9996TIP3   OH251402   3.623   0.238  11.824 -0.2845  0.8813  0.1612
 9996TIP3    H151403   3.667   0.300  11.882 -1.0862  0.9310  0.7376
 9996TIP3    H251404   3.570   0.184  11.883  0.5024 -0.4609 -0.3084
 9997TIP3   OH251405   5.219   0.841  13.741 -0.2193 -0.7845  0.4905
 9997TIP3    H151406   5.234   0.934  13.724 -0.1978 -0.8256  0.2869
 9997TIP3    H251407   5.305   0.800  13.732 -0.5584 -1.1527 -1.5338
 9998TIP3   OH251408   3.367   3.466  11.890 -0.0424 -0.5069 -0.2934
 9998TIP3    H151409   3.289   3.523  11.890  0.7343  0.5875 -0.4196
 9998TIP3    H251410   3.345   3.395  11.830 -0.4567  0.4800 -1.3268
 9999TIP3   OH251411   0.992   3.762  14.372  0.0062 -0.0861  0.5647
 9999TIP3    H151412   1.043   3.694  14.416 -0.9066 -1.1738  0.0020
 9999TIP3    H251413   1.012   3.751  14.279 -1.0993 -0.4220  0.3499
10000TIP3   OH251414   0.951   5.077   2.986  0.1552  0.4412 -0.0006
10000TIP3    H151415   1.014   5.121   2.930  1.7909 -3.7433 -1.8475
10000TIP3    H251416   0.883   5.046   2.926 -1.5755  1.2973  1.3922
10001TIP3   OH251417   4.424   0.682   3.498  0.0384  0.2576  0.0600
10001TIP3    H151418   4.426   0.733   3.579  2.4023  0.2642  0.0636
10001TIP3    H251419   4.357   0.615   3.515 -0.6439  1.2106  1.3854
10002TIP3   OH251420   5.804   2.695   2.869 -0.7943 -0.5546 -0.3121
10002TIP3    H151421   5.792   2.610   2.826  0.4491 -1.2236  0.6105
10002TIP3    H251422   5.855   2.675   2.947 -0.4637  1.0581 -0.0924
10003TIP3   OH251423   0.626   3.001   4.998 -0.0827 -0.1163  0.1508
10003TIP3    H151424   0.583   2.948   5.066 -0.2946 -0.0654  0.0559
10003TIP3    H251425   0.720   2.990   5.015 -0.1334 -0.1880  0.3887
10004TIP3   OH251426   6.627   4.679   0.637 -0.5883  0.3691 -0.1066
10004TIP3    H151427   6.619   4.706   0.728 -0.8193  0.3409 -0.1191
10004TIP3    H251428   6.581   4.747   0.587  0.0296  0.6917 -0.2511
10005TIP3   OH251429   2.683   1.789   4.362  0.1062 -0.1085 -0.1433
10005TIP3    H151430   2.739   1.726   4.408  0.5869  1.2947  1.2842
10005TIP3    H251431   2.744   1.854   4.326 -0.5067  0.8029  0.4106
10006TIP3   OH251432   2.204   4.806  14.121 -0.0900 -0.4876  0.2963
10006TIP3    H151433   2.173   4.886  14.164 -1.1293 -1.1364  0.7825
10006TIP3    H251434   2.280   4.835  14.069 -0.6340  0.8692  0.2082
10007TIP3   OH251435   1.484   3.227   1.300 -0.1496 -0.4247 -0.2953
10007TIP3    H151436   1.573   3.259   1.283  0.1797 -1.0534  0.2008
10007TIP3    H251437   1.438   3.302   1.338  0.8633 -0.7625  1.6950
10008TIP3   OH251438   3.603   0.668   5.357  0.4388 -0.1010  0.0972
10008TIP3    H151439   3.646   0.754   5.348  0.4870  0.0001  1.1627
10008TIP3    H251440   3.660   0.619   5.417 -0.7396 -0.0685  1.2943
10009TIP3   OH251441   3.625   1.146   5.535 -0.7749  0.0410 -0.5905
10009TIP3    H151442   3.669   1.228   5.560 -0.1016 -0.3391 -0.4836
10009TIP3    H251443   3.551   1.140   5.595  1.0137 -1.0298  1.6818
10010TIP3   OH251444   3.283   0.988  14.013  0.3266  0.3535  0.4275
10010TIP3    H151445   3.273   0.957  13.923  0.8453  0.8783  0.1807
10010TIP3    H251446   3.194   1.000  14.044  0.1193  1.7034 -0.5735
10011TIP3   OH251447   1.811   0.900  13.543  0.7533 -0.1229 -0.1967
10011TIP3    H151448   1.780   0.968  13.484  1.2127  1.6892  1.5483
10011TIP3    H251449   1.898   0.928  13.570  0.4891 -0.7660  1.4822
10012TIP3   OH251450   6.466   1.146   5.187  0.2695  0.5680  0.4760
10012TIP3    H151451   6.460   1.215   5.253  0.1895  1.4705 -0.4568
10012TIP3    H251452   6.500   1.190   5.109 -0.6271 -0.2550 -0.4040
10013TIP3   OH251453   6.009   4.225   3.448  0.0639  0.6408 -0.3167
10013TIP3    H151454   6.065   4.154   3.417 -1.1316 -1.7054  2.4711
10013TIP3    H251455   6.009   4.288   3.376  2.2476 -1.5290 -2.4208
10014TIP3   OH251456   5.553   2.761   4.443 -0.3116 -0.1372 -0.0549
10014TIP3    H151457   5.478   2.798   4.396 -0.1898 -0.0471 -0.1811
10014TIP3    H251458   5.609   2.836   4.461  0.6097 -0.4141 -1.5384
10015TIP3   OH251459   6.729   5.107  13.768  0.3932  0.0039 -0.2325
10015TIP3    H151460   6.648   5.101  13.819 -1.2069  1.0756 -2.4861
10015TIP3    H251461   6.717   5.043  13.697  1.3618  0.4430 -0.8023
10016TIP3   OH251462   5.599   5.909  12.371 -0.1437  0.2353 -0.3458
10016TIP3    H151463   5.684   5.944  12.397 -0.5766  2.0715 -1.2575
10016TIP3    H251464   5.611   5.880  12.281 -0.4659  0.4993 -0.4782
10017TIP3   OH251465   6.236   1.283   3.917  0.1893 -0.4663  0.6609
10017TIP3    H151466   6.264   1.365   3.877 -0.8837 -1.7601 -3.2718
10017TIP3    H251467   6.316   1.229   3.921  0.3930 -0.1615  0.6913
10018TIP3   OH251468   5.657   4.829   0.840 -0.5726  0.4895 -0.0313
10018TIP3    H151469   5.668   4.914   0.799  0.6811  0.2856 -0.1521
10018TIP3    H251470   5.712   4.833   0.919 -0.5677 -0.1805  0.0033
10019TIP3   OH251471   3.955   6.276  14.715 -0.3388  0.1154 -0.8814
10019TIP3    H151472   4.019   6.345  14.733 -1.2337  0.9666 -0.8678
10019TIP3    H251473   3.989   6.199  14.760  1.0303  0.3579 -1.4612
10020TIP3   OH251474   4.647   6.107   4.256 -0.1104  0.3726 -0.3624
10020TIP3    H151475   4.560   6.079   4.228 -0.0418  0.1613 -0.3664
10020TIP3    H251476   4.671   6.045   4.326  0.7729 -0.6920 -1.5440
10021TIP3   OH251477   1.127   1.870   4.995  0.3591  0.0550  0.3046
10021TIP3    H151478   1.129   1.876   5.090  0.5356  1.0536  0.2506
10021TIP3    H251479   1.057   1.930   4.968  0.0414 -0.5235 -0.1724
10022TIP3   OH251480   4.474   3.148  11.681  0.1368 -0.6428 -0.4397
10022TIP3    H151481   4.551   3.111  11.723 -1.3822 -1.3923  1.8875
10022TIP3    H251482   4.422   3.183  11.753 -0.9778  1.3212 -2.0784
10023TIP3   OH251483   6.759   6.490  13.686 -0.4235 -0.3317  0.4787
10023TIP3    H151484   6.851   6.481  13.658 -0.8732 -0.4235 -1.0369
10023TIP3    H251485   6.720   6.549  13.621 -2.5173 -3.7148 -1.6079
10024TIP3   OH251486   4.839   5.731   2.957 -0.1232 -0.3181  0.0624
10024TIP3    H151487   4.907   5.719   2.891  0.7263 -1.0839  1.0438
10024TIP3    H251488   4.810   5.821   2.945 -0.5265 -0.6587 -1.8329
10025TIP3   OH251489   1.933   2.728  10.594 -0.0154  0.5972 -0.0961
10025TIP3    H151490   1.853   2.781  10.586  0.6739  1.6116 -0.4992
10025TIP3    H251491   2.004   2.792  10.586  0.8397 -0.1481  1.2119
10026TIP3   OH251492   5.173   4.631   3.043  0.5244  0.0369 -0.4547
10026TIP3    H151493   5.256   4.584   3.036 -0.3879 -1.4864 -1.9774
10026TIP3    H251494   5.129   4.613   2.960 -1.0074  1.4493  0.0088
10027TIP3   OH251495   1.738   1.901  16.508  0.1671  0.4261  0.3825
10027TIP3    H151496   1.706   1.811  16.503 -0.0962  0.5679 -1.4493
10027TIP3    H251497   1.684   1.942  16.576 -2.6149  0.2267 -1.5171
10028TIP3   OH251498   6.730   3.387  13.157  0.2456 -0.0983  0.0850
10028TIP3    H151499   6.655   3.378  13.098  0.7483  0.1717 -0.6112
10028TIP3    H251500   6.740   3.301  13.197 -0.9042  0.0724  0.7692
10029TIP3   OH251501   5.964   5.216   0.285 -0.1261 -0.4458 -0.4194
10029TIP3    H151502   6.007   5.226   0.370 -0.4985 -0.7305 -0.1943
10029TIP3    H251503   6.023   5.260   0.223 -0.4644  0.8701  0.1587
10030TIP3   OH251504   2.800   5.765   4.689  0.0172 -0.1063  0.2731
10030TIP3    H151505   2.822   5.680   4.652 -0.2656 -0.7348  1.4877
10030TIP3    H251506   2.881   5.816   4.681  0.6335 -0.9767  0.8411
10031TIP3   OH251507   0.936   4.525   2.944 -0.1768  0.4461  0.8902
10031TIP3    H151508   1.016   4.483   2.976  1.1736  1.5128 -0.9280
10031TIP3    H251509   0.963   4.613   2.919 -1.4132  0.1517 -1.7804
10032TIP3   OH251510   2.839   3.234   3.584 -0.3270  0.2350  0.0138
10032TIP3    H151511   2.802   3.316   3.619 -1.1086 -0.3197  0.5247
10032TIP3    H251512   2.929   3.256   3.561  0.4041  0.5534  2.8054
10033TIP3   OH251513   6.691   5.469  11.504  0.7318  0.5383  0.0857
10033TIP3    H151514   6.668   5.536  11.568 -0.0444  0.4606 -0.1008
10033TIP3    H251515   6.786   5.462  11.510  0.6586  0.4145  1.3366
10034TIP3   OH251516   3.250   6.761   5.181  0.2377 -0.4474 -0.0147
10034TIP3    H151517   3.157   6.780   5.179  0.2350 -0.4282 -2.5244
10034TIP3    H251518   3.256   6.665   5.178  0.2815 -0.4433 -0.0868
10035TIP3   OH251519   2.916   4.429  12.809  0.1767  0.1536 -0.0251
10035TIP3    H151520   2.860   4.493  12.764  1.1664 -1.5582 -4.1152
10035TIP3    H251521   2.862   4.350  12.814  1.2729 -0.7437 -1.6551
10036TIP3   OH251522   1.379   6.179  13.059  0.0118 -0.3340 -0.1387
10036TIP3    H151523   1.345   6.181  12.969  0.7716 -0.4127 -0.4377
10036TIP3    H251524   1.429   6.097  13.064  0.8479  0.1742  0.0179
10037TIP3   OH251525   5.291   3.809  14.154  0.3881  0.5395 -0.2037
10037TIP3    H151526   5.360   3.746  14.171  0.0067 -0.3970 -1.8651
10037TIP3    H251527   5.336   3.894  14.154  1.8301 -0.1401 -2.4353
10038TIP3   OH251528   3.144   2.022   4.326  0.1004  0.0474  0.6403
10038TIP3    H151529   3.144   1.931   4.353  1.0201 -0.8897 -2.0951
10038TIP3    H251530   3.234   2.038   4.297 -0.6150  0.9496 -1.3113
10039TIP3   OH251531   5.757   4.089   0.325  0.1080  0.0165 -0.1528
10039TIP3    H151532   5.823   4.020   0.325 -0.2805 -0.3765  1.1617
10039TIP3    H251533   5.713   4.081   0.409 -0.8632  1.0023 -0.5342
10040TIP3   OH251534   4.616   2.094   3.092 -0.0111  0.6486 -0.3705
10040TIP3    H151535   4.618   2.082   2.997  0.2349 -0.4930 -0.2372
10040TIP3    H251536   4.527   2.070   3.117  0.5155 -1.1866 -0.0886
10041TIP3   OH251537   4.321   4.478   4.385 -0.3472  0.3031  0.3377
10041TIP3    H151538   4.323   4.417   4.459 -1.8794  0.1922  0.3146
10041TIP3    H251539   4.392   4.448   4.328  0.5076  0.0571  1.4806
10042TIP3   OH251540   5.568   3.410  11.460 -0.6387  0.9566  0.1746
10042TIP3    H151541   5.519   3.377  11.384  0.4056 -0.3893  0.0426
10042TIP3    H251542   5.659   3.392  11.439 -0.4152 -1.3275  2.5751
10043TIP3   OH251543   2.532   6.355  15.442 -0.6713  0.0303  0.1544
10043TIP3    H151544   2.471   6.412  15.396  1.5681  2.2948 -0.2627
10043TIP3    H251545   2.569   6.410  15.511  1.7072 -0.7997 -0.3541
10044TIP3   OH251546   5.616   6.636  14.605  0.2545  0.1546 -0.2254
10044TIP3    H151547   5.649   6.589  14.528 -3.8085 -1.1198 -1.4622
10044TIP3    H251548   5.621   6.573  14.676 -0.7200 -0.5423 -0.7480
10045TIP3   OH251549   5.665   6.434   5.318  0.3804 -0.7214  0.7179
10045TIP3    H151550   5.746   6.482   5.335 -1.1352  2.1317  0.4821
10045TIP3    H251551   5.625   6.478   5.243 -1.2345 -2.2746  0.5837
10046TIP3   OH251552   1.952   0.629  12.552  0.0773  0.3257 -0.6694
10046TIP3    H151553   1.945   0.535  12.571 -2.4507  0.5776  0.0763
10046TIP3    H251554   1.988   0.667  12.631  0.1299  0.1021 -0.5847
10047TIP3   OH251555   1.311   0.155   1.178  0.2400  0.6505  0.2333
10047TIP3    H151556   1.345   0.089   1.238  2.1133  0.9471 -0.4275
10047TIP3    H251557   1.330   0.120   1.091 -0.5306  1.1709 -0.1505
10048TIP3   OH251558   4.770   6.545  16.093 -0.6390  0.2137 -0.1341
10048TIP3    H151559   4.742   6.487  16.164  0.8315 -0.1416  0.1984
10048TIP3    H251560   4.712   6.621  16.100  0.1426  0.6925  2.1759
10049TIP3   OH251561   1.902   6.008  16.787 -0.0133  0.4569  0.7701
10049TIP3    H151562   1.906   5.978  16.696 -0.3493  1.6224  0.3499
10049TIP3    H251563   1.837   6.079  16.786 -0.6035 -0.0472  2.0831
10050TIP3   OH251564   0.446   1.450  13.892 -0.2546  0.2366 -0.9707
10050TIP3    H151565   0.392   1.525  13.868  1.0656  1.3630 -0.4966
10050TIP3    H251566   0.536   1.481  13.885  0.2953 -0.5172  1.5778
10051TIP3   OH251567   1.420   2.737  16.079 -0.4247 -0.3452  0.1098
10051TIP3    H151568   1.347   2.717  16.137 -0.5708  1.5336  0.6392
10051TIP3    H251569   1.436   2.831  16.092  1.1750 -0.4213 -1.0299
10052TIP3   OH251570   0.381   0.726   4.986  0.6771 -0.2487  0.1661
10052TIP3    H151571   0.342   0.796   5.038 -0.6875  0.4054 -1.6005
10052TIP3    H251572   0.313   0.658   4.982  1.7639 -1.4570  1.3757
10053TIP3   OH251573   6.463   3.195   5.321  0.2341  0.7837 -0.4162
10053TIP3    H151574   6.555   3.189   5.346  0.2450  0.3669 -0.5407
10053TIP3    H251575   6.463   3.177   5.227  0.2383  2.6899 -0.8183
10054TIP3   OH251576   2.354   1.078  10.871  0.1455  0.6240 -0.0530
10054TIP3    H151577   2.268   1.058  10.908  0.5083  0.0126  0.4855
10054TIP3    H251578   2.335   1.115  10.785 -0.6052 -2.0696 -1.1494
10055TIP3   OH251579   3.024   4.263  13.957  0.4378  0.5132 -0.0471
10055TIP3    H151580   2.932   4.267  13.931 -0.0588 -0.2804  1.4754
10055TIP3    H251581   3.047   4.354  13.977  0.3585  0.8953 -1.5733
10056TIP3   OH251582   4.784   3.597   4.681 -0.5677 -0.1356 -0.4817
10056TIP3    H151583   4.715   3.533   4.695 -0.7608  0.1518 -0.0957
10056TIP3    H251584   4.833   3.598   4.763 -0.0109 -0.4472 -0.8045
10057TIP3   OH251585   6.438   5.381  15.381 -0.5780 -0.6868  0.4161
10057TIP3    H151586   6.411   5.330  15.304 -2.3830  0.6092  0.1101
10057TIP3    H251587   6.410   5.471  15.362  0.3502 -0.0238  1.9371
10058TIP3   OH251588   1.509   4.599  12.306  0.0463  0.2859  0.4771
10058TIP3    H151589   1.513   4.660  12.232 -0.8370  2.7206  2.3046
10058TIP3    H251590   1.519   4.512  12.266  0.8201  1.5466 -2.3240
10059TIP3   OH251591   6.726   2.983   2.680 -0.4804 -0.1387 -0.3809
10059TIP3    H151592   6.724   2.910   2.618 -1.1067 -0.1682 -0.3391
10059TIP3    H251593   6.737   3.060   2.626  1.9725 -0.3572 -0.3122
10060TIP3   OH251594   6.488   0.804  14.137 -0.6660  0.0247  0.3574
10060TIP3    H151595   6.550   0.823  14.207 -2.1282  1.4217  1.3466
10060TIP3    H251596   6.432   0.734  14.171 -0.5326 -0.2417  0.0375
10061TIP3   OH251597   6.158   6.129  17.125  0.1208  0.0450  0.2816
10061TIP3    H151598   6.146   6.193  17.056  0.1171 -1.1059 -0.8303
10061TIP3    H251599   6.252   6.114  17.128  0.0043 -0.9972 -0.5435
10062TIP3   OH251600   4.497   4.921   4.639  1.1606  0.2391  0.4053
10062TIP3    H151601   4.507   4.855   4.570 -0.8189 -1.6025  1.7579
10062TIP3    H251602   4.560   4.896   4.706  0.6684 -0.0770  0.7570
10063TIP3   OH251603   1.881   6.605  13.552  0.0859  0.6781  0.4279
10063TIP3    H151604   1.899   6.673  13.487 -0.1795 -0.1107 -0.4994
10063TIP3    H251605   1.852   6.653  13.629 -0.3723  1.6137 -0.3029
10064TIP3   OH251606   4.518   4.240   3.973 -0.0629  0.1478 -0.0730
10064TIP3    H151607   4.433   4.225   3.931  0.5826 -0.7177 -1.0935
10064TIP3    H251608   4.578   4.256   3.900  1.0183 -1.0834  0.5226
10065TIP3   OH251609   6.355   1.022  16.975  0.2487 -0.0138  0.1619
10065TIP3    H151610   6.334   0.929  16.970 -1.8439  0.3728  0.7652
10065TIP3    H251611   6.403   1.032  17.057 -1.5067 -0.2764  1.2811
10066TIP3   OH251612   1.148   6.551  12.085  0.1633  0.0465  0.6895
10066TIP3    H151613   1.170   6.458  12.092 -1.8900 -0.5288  0.1108
10066TIP3    H251614   1.217   6.587  12.030  1.4118 -0.9644  1.5408
10067TIP3   OH251615   4.872   2.960   0.185 -0.4366  0.0342 -0.0558
10067TIP3    H151616   4.798   2.975   0.245 -1.2542 -2.4509 -0.3313
10067TIP3    H251617   4.832   2.953   0.099 -0.2113 -2.8133 -0.0446
10068TIP3   OH251618   1.809   4.764   4.584  0.2923 -0.2297 -0.2880
10068TIP3    H151619   1.718   4.736   4.573  1.2347 -3.3663 -1.0332
10068TIP3    H251620   1.810   4.808   4.669 -2.0399  0.6423 -0.6388
10069TIP3   OH251621   6.511   0.608   3.749 -0.3836  0.1154 -0.2583
10069TIP3    H151622   6.519   0.679   3.812  1.0558 -0.4410  0.2215
10069TIP3    H251623   6.428   0.625   3.704 -0.3962  1.7104  0.3051
10070TIP3   OH251624   0.768   6.364   3.200 -0.1839  0.2303 -0.7583
10070TIP3    H151625   0.680   6.344   3.167 -1.3129  1.8006  1.0696
10070TIP3    H251626   0.795   6.442   3.152  0.1323 -0.1265 -1.1659
10071TIP3   OH251627   0.051   3.487  16.889  0.2777  0.1747 -0.0565
10071TIP3    H151628   0.078   3.538  16.812  0.6301  0.2455  0.1100
10071TIP3    H251629  -0.037   3.456  16.867  0.8722 -0.9119 -1.0397
10072TIP3   OH251630   4.463   5.305  13.110  0.0031  0.3019  0.2728
10072TIP3    H151631   4.504   5.228  13.150  1.2555  0.3568 -0.8486
10072TIP3    H251632   4.423   5.271  13.030  1.4267  0.9720 -0.7511
10073TIP3   OH251633   5.204   1.944   0.259  0.3690  0.2616 -0.2780
10073TIP3    H151634   5.115   1.911   0.258 -0.0550  1.0491  2.4502
10073TIP3    H251635   5.199   2.029   0.215  0.2054 -0.5198 -1.8164
10074TIP3   OH251636   2.471   5.693   0.840 -0.3858 -0.4668 -0.7120
10074TIP3    H151637   2.425   5.691   0.924  1.6324 -2.2238  0.4377
10074TIP3    H251638   2.493   5.602   0.823  0.1357 -0.0098 -2.6827
10075TIP3   OH251639   6.528   0.607   0.646  0.2049 -0.5534  0.1721
10075TIP3    H151640   6.486   0.567   0.569  0.5675  0.2273 -0.4528
10075TIP3    H251641   6.455   0.634   0.701 -0.0658 -0.9955  0.0351
10076TIP3   OH251642   1.703   3.456  14.307 -0.3155  0.5048 -0.0004
10076TIP3    H151643   1.730   3.409  14.386  1.1429 -0.3512 -0.9516
10076TIP3    H251644   1.618   3.419  14.285  0.2805 -0.8943 -0.0598
10077TIP3   OH251645   4.950   1.024  17.240 -0.0057  0.4532 -0.2199
10077TIP3    H151646   4.897   1.049  17.316  0.0319  0.0422 -0.0571
10077TIP3    H251647   5.003   1.102  17.222 -0.4849  0.7787 -0.2316
10078TIP3   OH251648   0.881   3.497  15.055 -0.3348  0.1262 -0.4562
10078TIP3    H151649   0.893   3.402  15.045 -2.9095 -0.7833  3.2136
10078TIP3    H251650   0.810   3.519  14.995 -1.8089 -0.9798  0.8076
10079TIP3   OH251651   0.493   0.522  11.951  0.1894 -0.1408 -0.0607
10079TIP3    H151652   0.456   0.436  11.935 -0.6756  0.0039  1.0140
10079TIP3    H251653   0.426   0.584  11.920 -0.3067  0.1200  1.4252
10080TIP3   OH251654   1.826   2.733   1.435 -0.1096 -0.2694  0.6839
10080TIP3    H151655   1.732   2.741   1.454 -0.7945  0.6447 -2.5642
10080TIP3    H251656   1.848   2.813   1.387  2.7651  0.2494  2.5758
10081TIP3   OH251657   5.367   5.709  12.665  0.3111 -0.0723 -0.1946
10081TIP3    H151658   5.351   5.655  12.743  1.8885  2.9181  2.4360
10081TIP3    H251659   5.301   5.778  12.670  0.9226  0.5910 -1.0887
10082TIP3   OH251660   5.011   2.632  15.805 -0.4630  0.2087 -0.2267
10082TIP3    H151661   5.067   2.602  15.734  0.8635 -0.1759  0.9420
10082TIP3    H251662   4.924   2.595  15.785  0.5068 -2.2907 -0.1972
10083TIP3   OH251663   5.606   6.368  14.319  0.2607 -0.1560  0.2415
10083TIP3    H151664   5.679   6.429  14.326  1.3393 -1.4825  1.1866
10083TIP3    H251665   5.529   6.423  14.303  1.5541  1.2275 -1.7042
10084TIP3   OH251666   4.455   3.574  12.149 -0.0036  0.1452 -0.0073
10084TIP3    H151667   4.550   3.560  12.158 -0.0405 -0.2747 -0.2468
10084TIP3    H251668   4.416   3.515  12.213 -0.2111 -1.8304 -1.8442
10085TIP3   OH251669   2.907   6.356   4.243 -0.0874 -0.3984  0.2574
10085TIP3    H151670   2.879   6.341   4.153 -0.3038  0.6166  0.1427
10085TIP3    H251671   2.891   6.449   4.258  2.2642  0.0166  0.5280
10086TIP3   OH251672   6.155   0.714  11.333 -0.7008  0.1742  0.3114
10086TIP3    H151673   6.187   0.711  11.242  1.0865  1.9895  0.7896
10086TIP3    H251674   6.130   0.805  11.346  1.4676  0.5828  2.3306
10087TIP3   OH251675   2.778   1.934  13.227  0.1756  0.0561 -0.2942
10087TIP3    H151676   2.856   1.988  13.241  1.5111 -1.8109 -0.0628
10087TIP3    H251677   2.716   1.992  13.183  1.6592  1.6445 -0.4036
10088TIP3   OH251678   4.711   1.391  12.886 -0.0619  0.3093  0.0559
10088TIP3    H151679   4.671   1.475  12.909 -1.6046 -0.9872  2.5451
10088TIP3    H251680   4.642   1.344  12.838 -0.5290 -0.7820  1.7037
10089TIP3   OH251681   4.587   0.348   1.220 -0.0264 -0.3328 -0.1029
10089TIP3    H151682   4.636   0.430   1.233 -1.0979  0.3718 -0.3858
10089TIP3    H251683   4.654   0.280   1.225  1.3718  0.7170 -2.5322
10090TIP3   OH251684   5.780   0.572   4.910  0.7108 -0.1973 -0.6523
10090TIP3    H151685   5.733   0.489   4.903  0.4647 -0.0817 -0.3799
10090TIP3    H251686   5.864   0.555   4.868  1.4904 -1.1874  1.2367
10091TIP3   OH251687   4.869   2.122  15.784  0.8682  0.1987  1.1292
10091TIP3    H151688   4.788   2.138  15.833  0.9264 -0.5018  1.4729
10091TIP3    H251689   4.853   2.039  15.739  0.3084  1.4757 -1.1564
10092TIP3   OH251690   2.594   1.865  13.909  0.0817  0.0079 -0.1992
10092TIP3    H151691   2.567   1.854  14.000 -0.6224 -1.8492 -0.5670
10092TIP3    H251692   2.638   1.949  13.906 -0.7131  0.5387  1.6605
10093TIP3   OH251693   1.376   2.625  11.853  0.3558  0.4377 -0.0031
10093TIP3    H151694   1.438   2.692  11.884 -0.1085  1.1718 -0.6426
10093TIP3    H251695   1.295   2.673  11.838  0.3707 -0.0128 -1.6956
10094TIP3   OH251696   5.245   2.949  13.235  0.6304  0.2690  0.4883
10094TIP3    H151697   5.177   2.989  13.289  1.8420  1.0412  1.4945
10094TIP3    H251698   5.271   3.018  13.174  2.3574  0.9491  1.8872
10095TIP3   OH251699   3.865   1.579  15.219  0.4684 -0.2172 -0.6735
10095TIP3    H151700   3.782   1.569  15.266  0.5261 -2.1449 -0.9053
10095TIP3    H251701   3.867   1.671  15.194 -1.0966  0.1130  0.2579
10096TIP3   OH251702   5.283   0.190   0.192  0.2987  0.7608  0.0480
10096TIP3    H151703   5.355   0.160   0.137 -0.7300  1.1848 -1.6398
10096TIP3    H251704   5.298   0.284   0.203  1.3815  0.4096  1.9524
10097TIP3   OH251705   0.201   1.330  10.934  0.5122  0.1373  0.0475
10097TIP3    H151706   0.168   1.419  10.924  0.2135  0.0210 -0.0208
10097TIP3    H251707   0.176   1.305  11.023 -0.3096 -0.2409 -0.2733
10098TIP3   OH251708   5.599   4.344  15.247 -0.0528  0.1856  0.4431
10098TIP3    H151709   5.552   4.391  15.177  1.5983  2.6584  0.8501
10098TIP3    H251710   5.543   4.353  15.324 -0.9027 -0.7023 -0.0623
10099TIP3   OH251711   1.884   3.634   0.874  0.0588 -0.0563  0.1912
10099TIP3    H151712   1.900   3.724   0.902  1.8407 -0.4092  0.4062
10099TIP3    H251713   1.821   3.643   0.802 -1.5371  1.1571  1.6575
10100TIP3   OH251714   2.861   5.760  12.060 -0.1734  0.6305 -0.1949
10100TIP3    H151715   2.845   5.775  11.967 -0.7684 -0.4788 -0.2969
10100TIP3    H251716   2.883   5.846  12.095 -0.4142  1.1515 -1.2674
10101TIP3   OH251717   1.951   5.800  15.580 -0.0712 -0.0422 -0.1445
10101TIP3    H151718   1.958   5.879  15.634 -0.8405 -0.7750  1.0723
10101TIP3    H251719   1.982   5.730  15.637 -3.9939 -1.3645  0.6078
10102TIP3   OH251720   0.045   5.379   5.253  0.2237 -0.0157 -0.5738
10102TIP3    H151721   0.129   5.368   5.209  0.1544  2.2478 -1.4255
10102TIP3    H251722   0.063   5.362   5.345  1.6586  0.5459 -0.7322
10103TIP3   OH251723   5.096   3.851  11.807 -0.0236  0.2195  0.0040
10103TIP3    H151724   5.157   3.777  11.797 -0.5538 -0.2167 -0.0437
10103TIP3    H251725   5.032   3.821  11.871  0.3202  1.0203  0.7321
10104TIP3   OH251726   3.654   5.399  13.698  0.4777 -0.6600  0.1332
10104TIP3    H151727   3.573   5.352  13.679 -0.9136  0.6095  2.4362
10104TIP3    H251728   3.643   5.484  13.653  0.4075 -0.3913  0.6536
10105TIP3   OH251729   5.077   1.958   2.543  0.2756 -0.1575 -0.1206
10105TIP3    H151730   4.993   2.003   2.549 -0.3343 -1.4238  1.7883
10105TIP3    H251731   5.055   1.865   2.549  1.8128 -0.5197  0.4677
10106TIP3   OH251732   2.418   1.887  16.661 -0.2680 -0.3885 -0.2311
10106TIP3    H151733   2.426   1.957  16.597  0.3267  0.2354  0.5150
10106TIP3    H251734   2.325   1.866  16.663 -0.4233  0.2712 -0.5700
10107TIP3   OH251735   2.472   1.686  14.215  0.0580  0.2918  0.7589
10107TIP3    H151736   2.473   1.590  14.217 -0.2334  0.2708  0.1863
10107TIP3    H251737   2.390   1.710  14.257 -0.9811  0.2020 -1.1225
10108TIP3   OH251738   4.102   4.542   5.860  0.0712  0.3321 -0.3659
10108TIP3    H151739   4.106   4.448   5.842  2.6593  0.4208 -0.5866
10108TIP3    H251740   4.190   4.565   5.891 -1.2166  2.2087  2.3152
10109TIP3   OH251741   5.851   0.251   1.799  0.2267 -0.3645 -0.6278
10109TIP3    H151742   5.859   0.187   1.729  1.2670 -2.2547  1.1257
10109TIP3    H251743   5.916   0.318   1.779 -0.2226 -0.3167 -1.9908
10110TIP3   OH251744   4.332   1.781  14.069 -0.2237 -0.2879 -0.4304
10110TIP3    H151745   4.356   1.823  14.152  0.8651 -0.1182 -0.8246
10110TIP3    H251746   4.310   1.691  14.094 -0.7727 -0.0039  0.1544
10111TIP3   OH251747   1.651   2.087  10.886 -0.4012 -0.0929 -0.0894
10111TIP3    H151748   1.708   2.033  10.831  0.6306  0.8642  0.0054
10111TIP3    H251749   1.627   2.161  10.830 -1.2910 -0.3123 -0.0129
10112TIP3   OH251750   0.216   0.362   0.097  0.3955 -0.5736 -0.5464
10112TIP3    H151751   0.165   0.286   0.068 -1.0223  0.6640 -1.4722
10112TIP3    H251752   0.218   0.354   0.193 -1.9458 -0.4962 -0.4160
10113TIP3   OH251753   4.198   2.113  14.716  0.5676  0.1757  0.6206
10113TIP3    H151754   4.176   2.037  14.662  1.7705  0.3756 -0.1910
10113TIP3    H251755   4.258   2.078  14.782  0.5267  0.2780  0.7121
10114TIP3   OH251756   4.952   5.949   1.901  0.0966 -0.0492 -0.2357
10114TIP3    H151757   5.031   5.997   1.877 -1.5614  3.0356  0.0745
10114TIP3    H251758   4.880   5.998   1.862 -1.7959 -1.9695  0.6264
10115TIP3   OH251759   2.613   0.323   0.366  0.1518  0.2669 -0.2361
10115TIP3    H151760   2.606   0.231   0.391  1.2069  0.2460  0.0085
10115TIP3    H251761   2.701   0.332   0.331  0.1388  1.2356 -0.0482
10116TIP3   OH251762   4.162   3.886  11.639  0.4990  0.8101  0.4107
10116TIP3    H151763   4.098   3.822  11.606  1.9221 -1.3964  1.6921
10116TIP3    H251764   4.116   3.970  11.634 -1.1464 -0.1189 -2.2128
10117TIP3   OH251765   5.257   4.573   0.068  0.2083 -0.2929 -0.0666
10117TIP3    H151766   5.202   4.523   0.129  0.0369  1.7685  1.5546
10117TIP3    H251767   5.340   4.584   0.114 -0.2057  2.0112  0.2327
10118TIP3   OH251768   5.556   5.807   6.515 -0.1476 -0.1305  0.0700
10118TIP3    H151769   5.490   5.741   6.495 -0.0305 -0.1556 -0.2434
10118TIP3    H251770   5.518   5.858   6.587 -0.8564  0.3468 -0.6139
10119TIP3   OH251771   6.071   0.614   3.423 -0.0117  0.3740  0.0424
10119TIP3    H151772   6.161   0.640   3.402  0.7306 -0.5622  1.8549
10119TIP3    H251773   6.076   0.579   3.512 -1.6262 -2.4219 -0.8488
10120TIP3   OH251774   1.395   4.455  14.444  0.5005 -0.2626 -0.5030
10120TIP3    H151775   1.372   4.429  14.533  0.0705 -0.5133 -0.6839
10120TIP3    H251776   1.373   4.378  14.390 -0.5464  0.3681 -1.0129
10121TIP3   OH251777   2.960   2.546   2.879 -0.5518 -0.4468 -0.0532
10121TIP3    H151778   3.029   2.528   2.943  0.4816 -2.2751 -1.5692
10121TIP3    H251779   3.001   2.607   2.817 -0.4211 -1.1863 -0.7102
10122TIP3   OH251780   4.385   4.018   2.910 -0.6319  0.2442  0.1642
10122TIP3    H151781   4.419   4.086   2.968 -0.5636 -0.2502  0.7207
10122TIP3    H251782   4.377   3.941   2.967 -0.5894 -0.2411 -0.4836
10123TIP3   OH251783   5.534   1.824   3.935  0.9451 -0.2710 -0.3565
10123TIP3    H151784   5.604   1.764   3.907  0.3923 -1.2734  0.3523
10123TIP3    H251785   5.573   1.911   3.926  1.6490 -0.6897 -1.7704
10124TIP3   OH251786   0.821   1.134   6.004  0.5861 -0.5872  0.2622
10124TIP3    H151787   0.847   1.187   6.079 -0.7686  0.3029  0.1232
10124TIP3    H251788   0.891   1.146   5.940 -0.1426  1.8590 -0.1579
10125TIP3   OH251789   5.535   1.984   2.566 -0.0103  0.2448 -0.1960
10125TIP3    H151790   5.529   1.928   2.489  0.8624  1.8485 -1.4998
10125TIP3    H251791   5.475   1.944   2.629 -0.9497 -0.9843 -1.7749
10126TIP3   OH251792   0.098   5.100   2.637 -0.7314 -0.2558 -0.3777
10126TIP3    H151793   0.014   5.119   2.678 -1.3567 -0.0142 -1.6959
10126TIP3    H251794   0.090   5.009   2.608  0.1785 -0.8366  1.0955
10127TIP3   OH251795   0.582   6.761   3.072  0.8667 -0.6699  0.0813
10127TIP3    H151796   0.583   6.721   2.985 -1.3658 -1.6793  0.4505
10127TIP3    H251797   0.674   6.766   3.097  1.4623 -1.7918 -1.7048
10128TIP3   OH251798   2.123   6.339   3.499  0.1129 -0.6286 -0.3437
10128TIP3    H151799   2.057   6.276   3.527 -0.7346 -0.3536 -1.6358
10128TIP3    H251800   2.073   6.407   3.454  1.2104  0.0020 -0.6468
10129TIP3   OH251801   4.450   0.533  12.440  0.4140  0.2567 -0.2820
10129TIP3    H151802   4.474   0.563  12.352  1.1985 -0.6770 -0.4028
10129TIP3    H251803   4.499   0.591  12.499 -0.6746  1.3635 -0.4130
10130TIP3   OH251804   5.483   0.684   2.190  0.0681  0.5972  0.1501
10130TIP3    H151805   5.421   0.754   2.214  0.9181  1.6722 -0.6995
10130TIP3    H251806   5.559   0.700   2.246 -0.6338 -1.1589  1.7191
10131TIP3   OH251807   5.459   6.513   1.050 -0.0810  0.0167 -0.0158
10131TIP3    H151808   5.493   6.498   0.962 -0.7657 -2.0532  0.0209
10131TIP3    H251809   5.366   6.492   1.045 -0.2047  0.1933  1.1396
10132TIP3   OH251810   5.712   6.120  15.911  0.5357  0.2466 -0.3423
10132TIP3    H151811   5.624   6.094  15.885  0.6880 -0.7565  0.0724
10132TIP3    H251812   5.730   6.199  15.861 -0.1220 -0.2320 -1.3644
10133TIP3   OH251813   3.505   0.430  15.845 -0.0681  0.5371 -0.1404
10133TIP3    H151814   3.438   0.434  15.913  0.6915 -1.2059  0.7781
10133TIP3    H251815   3.533   0.521  15.834 -1.4158  1.0797  0.6124
10134TIP3   OH251816   5.554   0.686   3.344 -0.3166 -0.3947  0.2885
10134TIP3    H151817   5.594   0.700   3.258 -2.1567  1.9314 -0.2981
10134TIP3    H251818   5.619   0.719   3.406  0.9849 -1.9947 -0.1502
10135TIP3   OH251819   2.854   6.166  16.893  0.2548  0.0228 -0.0224
10135TIP3    H151820   2.931   6.122  16.929  0.4977  0.7126  0.3383
10135TIP3    H251821   2.781   6.131  16.942  0.6224  1.2226  1.4639
10136TIP3   OH251822   5.800   2.974   4.119 -0.0232  0.1838  0.7816
10136TIP3    H151823   5.819   3.001   4.208 -0.1375  1.3510  0.4617
10136TIP3    H251824   5.870   2.912   4.097 -1.3106 -2.0697  2.5074
10137TIP3   OH251825   2.288   0.214   2.235 -0.3541 -0.0770 -0.1002
10137TIP3    H151826   2.265   0.287   2.178  3.7989  1.0760 -0.6492
10137TIP3    H251827   2.282   0.249   2.324  0.7169  0.7078 -0.3186
10138TIP3   OH251828   0.724   5.018  13.538  0.2786  0.5811  0.6270
10138TIP3    H151829   0.740   5.050  13.450  0.8507  0.6947  0.7703
10138TIP3    H251830   0.651   5.071  13.570 -1.5647 -1.0363 -0.6254
10139TIP3   OH251831   3.968   1.830  11.893 -0.1249 -0.0396 -0.6323
10139TIP3    H151832   3.964   1.923  11.913 -1.3186 -0.7058  2.9023
10139TIP3    H251833   3.904   1.818  11.822 -1.3772  1.5827  0.1442
10140TIP3   OH251834   5.226   0.867  14.970  0.2909  0.3991  0.3037
10140TIP3    H151835   5.198   0.938  14.912  1.9040  0.7237 -0.1452
10140TIP3    H251836   5.154   0.855  15.031 -0.0948  2.3040  0.2719
10141TIP3   OH251837   6.165   4.349   3.095 -0.5051  0.6127 -0.5570
10141TIP3    H151838   6.249   4.328   3.134 -0.5846 -1.4216 -1.3738
10141TIP3    H251839   6.109   4.374   3.169  0.9667  2.7586 -0.0805
10142TIP3   OH251840   6.520   0.188  12.422  0.6077  0.1887  0.0943
10142TIP3    H151841   6.458   0.120  12.395 -0.8505  0.7933  1.7139
10142TIP3    H251842   6.515   0.254  12.354  0.2815 -0.2662 -0.3245
10143TIP3   OH251843   1.278   1.689   5.530  0.3518  0.2968  0.8472
10143TIP3    H151844   1.372   1.692   5.548  0.4256 -0.6716  0.6383
10143TIP3    H251845   1.237   1.688   5.617  0.5782 -0.5230  0.9472
10144TIP3   OH251846   2.276   4.612  13.108  0.2198  0.5041 -0.4791
10144TIP3    H151847   2.349   4.613  13.047  1.8345  1.2633  1.3536
10144TIP3    H251848   2.280   4.527  13.151  0.5171  0.8174  0.1383
10145TIP3   OH251849   6.154   2.411   3.348 -0.5717 -0.2424 -0.4791
10145TIP3    H151850   6.072   2.448   3.379 -1.5648 -2.9119  0.3943
10145TIP3    H251851   6.140   2.398   3.254 -1.7188 -1.7849 -0.1486
10146TIP3   OH251852   1.939   3.379  11.575 -0.0176 -0.5928  0.2352
10146TIP3    H151853   1.933   3.456  11.630 -3.6500 -0.8777  0.4983
10146TIP3    H251854   1.850   3.367  11.541  1.3717 -2.0733 -3.4522
10147TIP3   OH251855   5.925   1.254   2.135 -0.0398  0.4984  0.0721
10147TIP3    H151856   5.845   1.290   2.172 -0.4198  0.1925 -0.4460
10147TIP3    H251857   5.903   1.164   2.112  0.2777  0.5842 -0.6097
10148TIP3   OH251858   2.066   5.999   3.518 -0.1551  0.0380 -0.2470
10148TIP3    H151859   2.104   5.912   3.504  0.2828  0.3837 -1.3654
10148TIP3    H251860   2.066   6.011   3.613  1.9057 -0.2737 -0.1710
10149TIP3   OH251861   3.388   2.280  10.567 -0.0412 -0.0619 -0.1999
10149TIP3    H151862   3.424   2.191  10.569  0.0521 -0.0383 -0.6869
10149TIP3    H251863   3.437   2.325  10.498 -1.5927 -0.3095 -1.5328
10150TIP3   OH251864   1.401   2.221  11.976 -0.7565  0.1602  0.6537
10150TIP3    H151865   1.325   2.202  11.921 -1.0660  0.0799  1.0981
10150TIP3    H251866   1.458   2.145  11.966  0.6416  1.3986 -1.9019
10151TIP3   OH251867   0.683   4.792   5.119  0.0993  0.5193  0.1016
10151TIP3    H151868   0.691   4.776   5.025  2.2722  0.1485  0.2837
10151TIP3    H251869   0.736   4.870   5.135 -0.7109  0.9218  0.9532
10152TIP3   OH251870   2.600   1.376  11.990 -0.3925  0.4208 -0.6518
10152TIP3    H151871   2.657   1.452  12.001 -0.7424  0.5809  0.1168
10152TIP3    H251872   2.647   1.319  11.929  0.7721  0.3645  0.2831
10153TIP3   OH251873   4.830   3.415   5.310 -0.1970  0.0539 -0.3411
10153TIP3    H151874   4.792   3.427   5.397  1.3896  2.7563  0.0778
10153TIP3    H251875   4.906   3.359   5.325 -2.7651 -4.0654 -0.9608
10154TIP3   OH251876   2.179   3.587  13.664  0.6707  0.3446  0.0222
10154TIP3    H151877   2.237   3.596  13.739  2.0067  1.3555 -1.0810
10154TIP3    H251878   2.228   3.535  13.600  0.1535  0.7570 -0.7332
10155TIP3   OH251879   2.229   6.604  11.595  0.0443 -0.2990 -0.3155
10155TIP3    H151880   2.243   6.686  11.546 -1.5261  0.4503  0.3947
10155TIP3    H251881   2.316   6.567  11.606  0.8547  1.4986 -0.3028
10156TIP3   OH251882   0.301   5.919   4.555 -0.4545 -0.2154  0.3545
10156TIP3    H151883   0.274   5.889   4.642 -0.8571  0.2489  0.3929
10156TIP3    H251884   0.335   5.840   4.512 -1.0285 -0.6210  0.6339
10157TIP3   OH251885   3.172   3.258  17.231 -0.5986  0.4953 -1.0051
10157TIP3    H151886   3.249   3.297  17.189 -0.4904 -0.1027 -1.3691
10157TIP3    H251887   3.187   3.164  17.226 -1.5680  0.3469 -1.5048
10158TIP3   OH251888   2.223   3.464   2.430  0.4419  0.5949  0.0663
10158TIP3    H151889   2.277   3.413   2.490  1.1184 -1.5134 -2.1941
10158TIP3    H251890   2.284   3.521   2.385 -0.1319  2.5425  1.5827
10159TIP3   OH251891   0.028   0.045  15.949  0.0078  0.1980  0.2695
10159TIP3    H151892   0.068  -0.016  15.887  2.2415  0.5919  1.2328
10159TIP3    H251893   0.049   0.132  15.914  1.7927  0.4374  1.7764
10160TIP3   OH251894   5.524   6.587  10.558  0.3039 -0.0928 -0.5617
10160TIP3    H151895   5.529   6.674  10.598  0.3638 -0.7977  1.0196
10160TIP3    H251896   5.602   6.541  10.589  0.8437 -0.3868 -2.2526
10161TIP3   OH251897   5.035   5.936  16.490 -0.0244  0.9972  0.1626
10161TIP3    H151898   5.014   5.965  16.579 -1.1091  1.7005 -0.3090
10161TIP3    H251899   5.011   5.843  16.489 -1.5700  1.3867  0.1308
10162TIP3   OH251900   4.617   3.813  12.023  0.1215  0.0450  0.2373
10162TIP3    H151901   4.585   3.867  12.096  0.3491  0.5058 -0.0026
10162TIP3    H251902   4.651   3.876  11.959 -1.4885 -0.2474 -0.9652
10163TIP3   OH251903   1.044   4.847   4.289  0.4438  0.0713 -0.3330
10163TIP3    H151904   1.024   4.775   4.228  0.0572  0.4162 -0.6235
10163TIP3    H251905   1.129   4.879   4.261  0.2343  0.2760 -0.7517
10164TIP3   OH251906   4.778   4.189  16.111 -0.5946 -0.0174 -0.3391
10164TIP3    H151907   4.807   4.098  16.112 -3.4346 -1.0384 -0.0387
10164TIP3    H251908   4.845   4.236  16.159 -0.9908 -2.7046  3.3095
10165TIP3   OH251909   4.042   3.686   2.768 -0.1075 -0.1835 -0.0928
10165TIP3    H151910   3.962   3.722   2.729  1.0006  1.6256 -0.8300
10165TIP3    H251911   4.075   3.758   2.822  1.5481 -0.5316 -0.6091
10166TIP3   OH251912   1.320   0.859   5.777 -0.0749 -0.0537 -0.3294
10166TIP3    H151913   1.234   0.818   5.772 -0.0579 -0.0465 -0.7522
10166TIP3    H251914   1.381   0.786   5.789 -0.2013  0.0021  0.6749
10167TIP3   OH251915   6.143   1.738  14.269  0.0474  0.2706 -0.1822
10167TIP3    H151916   6.219   1.795  14.256  1.4623 -1.2433  0.9545
10167TIP3    H251917   6.092   1.747  14.189  0.7443  2.3142 -0.4529
10168TIP3   OH251918   0.908   6.561  14.564  0.0589  0.1014  0.1132
10168TIP3    H151919   0.866   6.614  14.496  1.6095  1.3703  0.1035
10168TIP3    H251920   0.867   6.474  14.555 -1.8345  1.0051 -0.5116
10169TIP3   OH251921   1.609   4.789  12.683 -0.1774  0.7065 -0.0201
10169TIP3    H151922   1.565   4.725  12.739  0.1529 -0.1577 -0.7053
10169TIP3    H251923   1.559   4.870  12.693 -0.1224  0.5715  1.5069
10170TIP3   OH251924   1.352   6.549   3.742 -0.2973  0.2074  0.1258
10170TIP3    H151925   1.424   6.610   3.756  0.9828 -1.0338 -0.7368
10170TIP3    H251926   1.277   6.604   3.720 -0.0385  1.6306  2.5163
10171TIP3   OH251927   5.327   6.596   0.355  0.2764 -0.1282 -0.1582
10171TIP3    H151928   5.353   6.590   0.263  0.7474  0.5781 -0.0833
10171TIP3    H251929   5.373   6.673   0.387 -0.5508  0.1186  0.4546
10172TIP3   OH251930   1.494   3.525   4.722  0.0973  0.1283  0.1274
10172TIP3    H151931   1.455   3.477   4.795 -1.9683 -0.2279 -1.1511
10172TIP3    H251932   1.558   3.465   4.685  0.9729  0.2132  1.4427
10173TIP3   OH251933   6.302   4.116   2.587  0.5586 -0.1530  0.3583
10173TIP3    H151934   6.257   4.198   2.606  0.7312  0.2099 -0.7706
10173TIP3    H251935   6.237   4.048   2.609  0.1953  0.2928  0.6872
10174TIP3   OH251936   5.398   3.240  16.104 -0.4641  0.0561 -0.3574
10174TIP3    H151937   5.482   3.273  16.071 -1.1177 -0.4864 -2.7580
10174TIP3    H251938   5.339   3.244  16.028 -2.1433 -1.2200  0.8044
10175TIP3   OH251939   1.538   4.495   2.715 -0.0099 -0.0370  0.3690
10175TIP3    H151940   1.520   4.559   2.784  0.3424 -0.2529  0.6650
10175TIP3    H251941   1.524   4.543   2.633  0.2424  0.4099  0.5868
10176TIP3   OH251942   0.485   0.545   1.213  0.3319 -0.2866  0.1149
10176TIP3    H151943   0.565   0.505   1.179  0.4599 -0.9248  1.1273
10176TIP3    H251944   0.416   0.481   1.196  0.0887  0.1138 -0.4437
10177TIP3   OH251945   1.001   0.459  16.473  0.4372 -0.1347 -0.3834
10177TIP3    H151946   0.933   0.460  16.541  1.1072 -1.4859  0.3516
10177TIP3    H251947   1.082   0.480  16.520  0.5956  1.2600 -1.2134
10178TIP3   OH251948   0.104   5.260  15.310  0.0207 -0.1564  0.0263
10178TIP3    H151949   0.155   5.338  15.292  1.2956 -0.8182  0.6280
10178TIP3    H251950   0.026   5.292  15.355  0.6743  0.7411  0.5448
10179TIP3   OH251951   3.788   5.327  15.702  0.1700  0.3272 -1.1589
10179TIP3    H151952   3.727   5.253  15.707  0.5748  0.0251 -0.5850
10179TIP3    H251953   3.741   5.393  15.651 -0.7088  0.1586 -0.6027
10180TIP3   OH251954   3.427   5.522  11.029 -0.0552 -0.1930  0.3159
10180TIP3    H151955   3.493   5.489  10.969 -0.8332 -1.3215  0.0325
10180TIP3    H251956   3.464   5.602  11.066  0.8335 -0.0128 -0.9365
10181TIP3   OH251957   1.340   3.763   6.721 -0.1095  0.1752 -0.2195
10181TIP3    H151958   1.377   3.754   6.633 -2.5894 -0.5834 -1.2893
10181TIP3    H251959   1.378   3.690   6.770  1.9257  1.0676 -0.3482
10182TIP3   OH251960   1.323   5.342  14.512 -0.2434  0.6560  0.0686
10182TIP3    H151961   1.260   5.327  14.582 -0.6185  0.4750 -0.3041
10182TIP3    H251962   1.359   5.256  14.492 -1.7077  0.3303 -1.4173
10183TIP3   OH251963   5.996   0.399  12.171  0.0852 -0.3675  0.0007
10183TIP3    H151964   5.975   0.492  12.163 -2.3755 -0.8905 -0.5021
10183TIP3    H251965   6.086   0.392  12.138  0.2778  1.7954 -0.0746
10184TIP3   OH251966   1.303   1.508   4.949 -0.3661  0.2014  0.0985
10184TIP3    H151967   1.217   1.536   4.982 -0.7484 -1.8512  1.0589
10184TIP3    H251968   1.362   1.520   5.023 -0.2354 -0.1443  0.0508
10185TIP3   OH251969   1.015   0.080  16.949 -0.3320  0.7954  0.4296
10185TIP3    H151970   1.087   0.109  17.004 -0.2911  2.5532 -0.4688
10185TIP3    H251971   0.992   0.158  16.897 -2.1755 -0.0196 -0.0458
10186TIP3   OH251972   1.962   4.422   6.612  1.0142  0.1369  0.3363
10186TIP3    H151973   1.868   4.409   6.603  0.8709  0.5097  1.2049
10186TIP3    H251974   1.998   4.396   6.527 -0.0114  1.5060 -0.5577
10187TIP3   OH251975   0.665   2.123  13.865 -0.1438  0.1928 -0.3219
10187TIP3    H151976   0.691   2.203  13.818 -0.0205  0.1114 -0.3937
10187TIP3    H251977   0.698   2.052  13.810 -1.8591  0.0357 -1.2210
10188TIP3   OH251978   0.498   6.559  16.548  0.0163  0.2681  0.6470
10188TIP3    H151979   0.434   6.553  16.619 -0.2929 -0.1100  0.3450
10188TIP3    H251980   0.456   6.615  16.483  0.6489  1.3133  1.1123
10189TIP3   OH251981   2.320   6.734  11.133  0.4055 -0.2950 -0.2310
10189TIP3    H151982   2.247   6.757  11.076  0.8665  0.6233 -0.4793
10189TIP3    H251983   2.292   6.654  11.178 -0.9224  0.2807  0.0057
10190TIP3   OH251984   3.113   4.371   4.341 -0.0626  0.4630  0.3121
10190TIP3    H151985   3.152   4.294   4.299  2.0568  1.2010  0.7886
10190TIP3    H251986   3.136   4.361   4.433 -1.0810  0.9270  0.6234
10191TIP3   OH251987   6.159   4.977  13.251 -0.9199 -0.0438  0.0518
10191TIP3    H151988   6.100   5.043  13.287 -1.3881 -0.3530 -0.1384
10191TIP3    H251989   6.159   4.993  13.157 -1.0082 -0.2903  0.0080
10192TIP3   OH251990   5.198   5.799  14.817  0.2841 -0.1867  0.4378
10192TIP3    H151991   5.258   5.837  14.753  1.4984 -2.0979  0.3477
10192TIP3    H251992   5.118   5.783  14.768  0.9518 -0.9424 -0.4701
10193TIP3   OH251993   6.537   0.209  11.132  0.5501  0.6000 -0.4680
10193TIP3    H151994   6.542   0.139  11.066 -1.4870  0.4526 -0.5224
10193TIP3    H251995   6.628   0.234  11.146  1.1351 -0.0284 -2.6357
10194TIP3   OH251996   2.692   1.966   1.714 -0.6194 -0.9377  0.2114
10194TIP3    H151997   2.711   2.025   1.787  2.1477 -0.6374 -0.6191
10194TIP3    H251998   2.672   2.024   1.640  2.3638 -0.8609 -0.6748
10195TIP3   OH251999   4.689   2.928  13.102 -0.1818  0.4183  0.3237
10195TIP3    H152000   4.629   2.891  13.038  0.7963 -2.8604  1.1364
10195TIP3    H252001   4.648   2.911  13.187  2.0267 -2.5005  0.9469
10196TIP3   OH252002   0.597   3.748  16.438 -0.4837 -0.4191 -0.2094
10196TIP3    H152003   0.570   3.672  16.490  0.0032  0.2823  1.1396
10196TIP3    H252004   0.523   3.766  16.381 -0.9714 -1.3350  0.1087
10197TIP3   OH252005   4.150   3.125  17.096 -0.4298  0.8766  0.1026
10197TIP3    H152006   4.139   3.136  17.002  0.6092 -1.6007 -0.3821
10197TIP3    H252007   4.242   3.103  17.108 -0.9121 -0.5869  1.4840
10198TIP3   OH252008   3.963   6.585   3.819  0.1894  0.0469  0.4719
10198TIP3    H152009   3.966   6.581   3.724 -2.3786  1.1075  0.2507
10198TIP3    H252010   3.975   6.495   3.848  2.6880 -0.0705 -0.6953
10199TIP3   OH252011   1.126   4.982  11.458  0.1393 -0.6490 -0.3220
10199TIP3    H152012   1.215   5.005  11.432 -0.0220 -0.5238 -0.7786
10199TIP3    H252013   1.112   5.028  11.541  0.5254 -0.7314 -0.2089
10200TIP3   OH252014   5.092   1.961  14.197 -0.4009 -1.1890 -0.4808
10200TIP3    H152015   5.153   2.016  14.245  0.3865 -0.7052 -1.9628
10200TIP3    H252016   5.061   2.016  14.125 -1.3008 -1.9715 -0.7167
10201TIP3   OH252017   0.781   3.246   0.299  0.5374  0.4431 -0.8163
10201TIP3    H152018   0.854   3.227   0.357  0.4337 -0.4525 -0.9662
10201TIP3    H252019   0.817   3.234   0.211 -0.4270 -2.7343 -0.9001
10202TIP3   OH252020   1.263   4.433   2.516 -0.2677  0.3631 -0.1323
10202TIP3    H152021   1.280   4.347   2.477 -2.0890 -0.5271  0.9234
10202TIP3    H252022   1.345   4.481   2.502 -0.0256 -0.6444 -2.9591
10203TIP3   OH252023   4.677   1.916   5.873 -0.0817 -0.5901  0.7238
10203TIP3    H152024   4.662   1.828   5.840 -1.3040 -1.0017  2.2635
10203TIP3    H252025   4.593   1.961   5.861 -0.7494 -0.9110  3.5743
10204TIP3   OH252026   1.003   0.071  11.327 -0.5897  0.1028 -0.1836
10204TIP3    H152027   0.910   0.070  11.350 -0.6612  2.2645 -0.1873
10204TIP3    H252028   1.006   0.047  11.234 -1.0476 -0.7557  0.0158
10205TIP3   OH252029   4.680   4.264   2.340 -0.3836  0.0872 -0.1002
10205TIP3    H152030   4.637   4.191   2.297  0.7240  0.1717 -1.4220
10205TIP3    H252031   4.715   4.227   2.421 -1.8718 -0.2449  0.4217
10206TIP3   OH252032   0.904   5.322  16.917 -0.1894  0.3099 -0.1532
10206TIP3    H152033   0.864   5.290  16.997 -0.1885 -0.9242 -0.6290
10206TIP3    H252034   0.909   5.417  16.929  0.3160  0.0958  1.5268
10207TIP3   OH252035   4.821   6.356  15.717 -0.2514 -0.1775 -0.0042
10207TIP3    H152036   4.820   6.270  15.674 -1.1123  0.3153 -1.0064
10207TIP3    H252037   4.736   6.394  15.695  0.2724  1.0894  0.1150
10208TIP3   OH252038   5.502   1.741   0.829 -0.5636  0.2134  0.1902
10208TIP3    H152039   5.519   1.656   0.789 -0.4685 -0.1271  0.9413
10208TIP3    H252040   5.514   1.804   0.758  1.2193 -0.2321  0.0435
10209TIP3   OH252041   4.899   0.556  12.248 -0.5229  0.1179 -0.0836
10209TIP3    H152042   4.942   0.569  12.164  1.6303 -1.7664  0.6240
10209TIP3    H252043   4.865   0.642  12.272  1.4471  1.3584 -1.4750
10210TIP3   OH252044   5.023   0.692   2.732  0.4262 -0.1275  0.1259
10210TIP3    H152045   5.025   0.634   2.808 -0.9339  1.0330  1.0894
10210TIP3    H252046   4.931   0.691   2.703  0.9105 -0.5597 -1.5484
10211TIP3   OH252047   5.958   3.310  11.660  0.1668  0.2779 -0.1137
10211TIP3    H152048   5.940   3.240  11.722 -2.0868  1.5440  0.7776
10211TIP3    H252049   5.980   3.386  11.715  0.5511  0.8013 -0.9627
10212TIP3   OH252050   4.506   6.592  14.326 -0.1054  0.4057  0.3701
10212TIP3    H152051   4.486   6.673  14.373  0.1164  0.3275  0.6013
10212TIP3    H252052   4.522   6.528  14.395 -0.0989  0.2103  0.1873
10213TIP3   OH252053   6.169   5.948   2.204 -0.2018 -0.0663  0.7902
10213TIP3    H152054   6.103   5.879   2.204  0.1988 -0.4651  1.1991
10213TIP3    H252055   6.149   6.000   2.282  0.2321 -0.4603  1.1715
10214TIP3   OH252056   5.061   1.446  15.560  0.3680  0.3948  0.1272
10214TIP3    H152057   5.036   1.535  15.532  0.6650  0.2766 -0.5347
10214TIP3    H252058   5.005   1.428  15.635  1.5446  1.8508  1.4398
10215TIP3   OH252059   5.214   6.536  13.214  0.4744 -0.0832  0.3132
10215TIP3    H152060   5.263   6.555  13.135  0.0801 -1.7981 -0.3951
10215TIP3    H252061   5.268   6.473  13.261  0.6534  0.8337  1.3747
10216TIP3   OH252062   0.646   3.561  13.132 -0.3323 -0.3579 -0.0906
10216TIP3    H152063   0.668   3.653  13.149 -1.6598 -0.1084  0.3842
10216TIP3    H252064   0.637   3.556  13.037 -0.9568  0.1738 -0.0645
10217TIP3   OH252065   3.558   1.183  16.055  0.0491  0.4152  0.0004
10217TIP3    H152066   3.598   1.100  16.029 -1.5546 -0.2464 -0.4261
10217TIP3    H252067   3.498   1.204  15.984 -0.7589  1.1101  0.8708
10218TIP3   OH252068   5.122   6.081  12.437  0.3513 -0.3121 -0.1445
10218TIP3    H152069   5.211   6.115  12.446  1.3675 -2.8099  0.0126
10218TIP3    H252070   5.133   5.993  12.401 -1.8789 -1.5993  2.0215
10219TIP3   OH252071   3.015   2.830   3.826 -0.5998 -0.2391  0.0043
10219TIP3    H152072   3.099   2.855   3.788 -0.5123 -0.9231 -0.2565
10219TIP3    H252073   2.975   2.913   3.852 -0.2776  0.1673 -0.7835
10220TIP3   OH252074   0.659   3.473  12.879  0.0165  0.2459  0.0403
10220TIP3    H152075   0.607   3.462  12.799 -0.3957 -0.0604  0.3445
10220TIP3    H252076   0.731   3.411  12.868  0.6797  1.1275 -0.6697
10221TIP3   OH252077   1.714   5.975  11.452  0.1212 -0.4664  0.0137
10221TIP3    H152078   1.689   5.893  11.410  0.2464 -0.3038 -0.3776
10221TIP3    H252079   1.726   5.952  11.544 -1.3222 -0.5821  0.1871
10222TIP3   OH252080   1.451   4.455  17.096  0.0281  0.7525  0.0040
10222TIP3    H152081   1.412   4.442  17.009 -1.0900  2.6945  0.1706
10222TIP3    H252082   1.395   4.405  17.155 -1.4269  2.3584  0.0457
10223TIP3   OH252083   3.268   3.763   3.819  0.3600 -0.6911 -0.0350
10223TIP3    H152084   3.280   3.788   3.727 -1.3845 -0.8214 -0.3424
10223TIP3    H252085   3.181   3.723   3.821 -0.2938  0.6754  1.9351
10224TIP3   OH252086   6.573   4.255   0.964 -0.3833  0.8865  0.4255
10224TIP3    H152087   6.570   4.345   0.929 -1.0432  0.3113 -1.0843
10224TIP3    H252088   6.635   4.260   1.037  2.5811  1.7732 -1.9708
10225TIP3   OH252089   0.059   1.539   5.914  0.2892  0.1217 -0.0607
10225TIP3    H152090   0.097   1.626   5.932  1.5872 -0.4270 -0.0013
10225TIP3    H252091   0.121   1.498   5.854 -0.1199 -0.9025  0.2015
10226TIP3   OH252092   2.742   5.872  14.859  0.5941 -0.1000 -0.5095
10226TIP3    H152093   2.681   5.803  14.834  1.5596 -1.8164  1.5100
10226TIP3    H252094   2.719   5.892  14.950  0.8517  1.6977 -0.8118
10227TIP3   OH252095   4.758   4.122  16.560 -0.1059  0.5389  0.1007
10227TIP3    H152096   4.698   4.197  16.557  0.6481  1.1463  0.1829
10227TIP3    H252097   4.701   4.048  16.584 -0.8719  1.0555 -0.0684
10228TIP3   OH252098   1.935   5.406  10.961 -0.0016  0.0245 -0.5115
10228TIP3    H152099   2.026   5.401  10.932  0.1566 -0.1748  0.0016
10228TIP3    H252100   1.905   5.493  10.934  0.0943 -0.1988 -1.3698
10229TIP3   OH252101   5.360   6.694   2.871  0.5172  0.0585 -0.2966
10229TIP3    H152102   5.413   6.720   2.946  0.0673  0.2589 -0.0417
10229TIP3    H252103   5.409   6.727   2.795  1.4329 -0.9424 -0.1606
10230TIP3   OH252104   2.557   5.907   0.268 -0.2740 -0.5047 -0.2172
10230TIP3    H152105   2.495   5.838   0.246 -1.8210  0.7204  0.1467
10230TIP3    H252106   2.504   5.976   0.309  1.0784  1.1648 -1.1093
10231TIP3   OH252107   1.179   6.285  14.335 -0.6063 -0.2673 -0.1840
10231TIP3    H152108   1.264   6.315  14.303 -0.8811 -0.7097 -1.3743
10231TIP3    H252109   1.115   6.343  14.294 -0.9141 -0.2186  0.3547
10232TIP3   OH252110   5.758   2.507   0.913 -0.1242 -0.4112 -0.0475
10232TIP3    H152111   5.755   2.552   0.829  0.3520  0.7623  0.5333
10232TIP3    H252112   5.739   2.416   0.893 -0.7793 -0.0096 -1.3184
10233TIP3   OH252113   6.670   2.836  15.917 -0.7565 -0.0376 -0.4071
10233TIP3    H152114   6.742   2.779  15.887 -1.6149 -1.4779  0.1437
10233TIP3    H252115   6.633   2.873  15.837 -1.4675 -1.8976 -0.9922
10234TIP3   OH252116   3.554   4.678  15.255  0.6024 -0.1082  0.6020
10234TIP3    H152117   3.637   4.721  15.234  0.8595 -0.6985  0.3853
10234TIP3    H252118   3.489   4.748  15.252  1.1068  0.3743  0.8549
10235TIP3   OH252119   5.220   5.478   2.510 -0.8633 -0.3683 -0.4378
10235TIP3    H152120   5.265   5.516   2.434 -0.9271  1.8092  0.5193
10235TIP3    H252121   5.127   5.493   2.493 -0.8042  2.3427  1.0225
10236TIP3   OH252122   4.282   5.967  11.315  0.2332  0.3678 -0.0624
10236TIP3    H152123   4.191   5.949  11.292  0.6708 -1.7992 -0.2925
10236TIP3    H252124   4.280   5.985  11.409 -0.5066  0.9257 -0.1813
10237TIP3   OH252125   2.326   5.668   0.214  0.1915  0.1838 -0.1722
10237TIP3    H152126   2.282   5.585   0.202 -0.8005  0.1717  2.7700
10237TIP3    H252127   2.400   5.648   0.273  1.4029  1.0002 -1.3577
10238TIP3   OH252128   5.172   3.274   6.164  0.5171  0.3355 -0.1176
10238TIP3    H152129   5.204   3.221   6.091  1.6802 -0.4182  0.9096
10238TIP3    H252130   5.214   3.359   6.151 -0.4687  0.7008 -1.1357
10239TIP3   OH252131   5.936   6.620  14.718  0.1022  0.1746 -0.5924
10239TIP3    H152132   5.895   6.535  14.701  1.6419 -0.6904 -0.2336
10239TIP3    H252133   5.903   6.677  14.649 -2.2241 -0.2355  0.0986
10240TIP3   OH252134   1.837   1.354  11.951 -0.2109 -0.7286 -0.0927
10240TIP3    H152135   1.853   1.427  12.011  1.3509 -0.0522 -1.2743
10240TIP3    H252136   1.924   1.316  11.937 -0.8177 -1.9757 -0.5568
10241TIP3   OH252137   0.119   6.314   3.251 -0.3558 -0.1521 -1.1908
10241TIP3    H152138   0.093   6.397   3.212 -2.7409 -0.2223  0.0705
10241TIP3    H252139   0.037   6.268   3.268  0.8319 -2.2252 -0.6559
10242TIP3   OH252140   5.293   5.492   0.298  0.1577  0.0403  0.2319
10242TIP3    H152141   5.257   5.523   0.380  0.4174 -0.5004  0.5548
10242TIP3    H252142   5.251   5.546   0.231  1.6727  2.1377  0.8522
10243TIP3   OH252143   4.490   5.485   4.503 -0.3925 -0.5555  0.6882
10243TIP3    H152144   4.479   5.401   4.549  0.9721 -0.3779  1.3948
10243TIP3    H252145   4.506   5.460   4.412 -1.6775 -0.9691  0.5451
10244TIP3   OH252146   1.618   6.520   0.755 -0.6064 -0.4261  0.6683
10244TIP3    H152147   1.646   6.510   0.664 -0.3309  2.2657  0.3909
10244TIP3    H252148   1.661   6.448   0.801  1.2621 -0.4061 -0.9119
10245TIP3   OH252149   5.965   6.105   3.656 -1.0531  0.0012  0.1203
10245TIP3    H152150   5.921   6.132   3.575 -0.7641 -0.4334 -0.1925
10245TIP3    H252151   6.016   6.028   3.630 -1.7580 -0.7626  0.9564
10246TIP3   OH252152   4.153   5.936  15.711  0.2583 -0.4326 -0.3301
10246TIP3    H152153   4.117   5.864  15.660 -2.5026 -0.6872  1.7794
10246TIP3    H252154   4.089   6.006  15.702  2.0864  1.2621 -0.9956
10247TIP3   OH252155   6.553   3.162   5.950 -0.6540 -0.0677  0.1120
10247TIP3    H152156   6.476   3.139   6.002  0.3769  0.0117  1.7299
10247TIP3    H252157   6.619   3.188   6.014  0.8303 -0.4101 -1.2100
10248TIP3   OH252158   0.989   3.483  12.913 -0.1958  0.2647 -0.9489
10248TIP3    H152159   1.058   3.540  12.946  0.7153 -0.4273 -1.6312
10248TIP3    H252160   0.933   3.541  12.862 -0.0110  0.7873 -0.5710
10249TIP3   OH252161   2.492   5.995  12.537  0.1922 -0.0869  0.1592
10249TIP3    H152162   2.566   6.013  12.480  1.8193  0.0867  2.2233
10249TIP3    H252163   2.458   5.911  12.507  2.6836 -1.3272  0.5536
10250TIP3   OH252164   0.348   4.409   1.407 -0.4207 -0.1754  0.2193
10250TIP3    H152165   0.432   4.437   1.371 -1.5653  2.0142 -0.9400
10250TIP3    H252166   0.325   4.331   1.356  0.4696 -0.2586 -0.0713
10251TIP3   OH252167   4.221   4.693  14.202 -0.4797 -0.0926 -0.8306
10251TIP3    H152168   4.290   4.630  14.181 -0.0119  0.0218  0.2590
10251TIP3    H252169   4.218   4.694  14.298 -0.7723  1.2141 -0.8281
10252TIP3   OH252170   4.860   2.812   4.408 -0.1702 -0.8037  1.0594
10252TIP3    H152171   4.907   2.889   4.440  1.9173 -1.8684  0.7184
10252TIP3    H252172   4.892   2.800   4.319 -1.3116 -1.4324  0.7178
10253TIP3   OH252173   6.259   1.581   4.492  0.0031  0.4808 -1.1118
10253TIP3    H152174   6.223   1.518   4.554  2.1444 -0.7523 -0.9922
10253TIP3    H252175   6.184   1.633   4.463 -1.8555 -1.9819 -1.0598
10254TIP3   OH252176   5.847   3.874   5.754 -0.0510  0.2644 -0.8190
10254TIP3    H152177   5.801   3.903   5.676  0.3997  2.1040 -0.4456
10254TIP3    H252178   5.790   3.899   5.827  0.1757 -0.1504 -0.4928
10255TIP3   OH252179   2.184   5.142   2.049 -0.4188 -0.0584  0.0096
10255TIP3    H152180   2.254   5.135   2.114 -1.3402  0.3178  1.0782
10255TIP3    H252181   2.127   5.068   2.068 -0.8916  0.2696 -0.1300
10256TIP3   OH252182   2.627   4.278  14.290 -0.4020 -0.4690 -0.6819
10256TIP3    H152183   2.704   4.268  14.235 -0.6235 -1.5627 -0.8129
10256TIP3    H252184   2.640   4.215  14.361  0.2011  1.3590  0.9321
10257TIP3   OH252185   1.571   1.677  14.670 -0.3361 -0.4155  0.6991
10257TIP3    H152186   1.486   1.643  14.644 -1.6116  0.8048  2.9668
10257TIP3    H252187   1.598   1.622  14.744  0.5953 -0.4473  0.3509
10258TIP3   OH252188   1.947   5.197   4.495  0.2826  0.0306 -0.1907
10258TIP3    H152189   1.880   5.214   4.429  1.2364  0.4698 -1.0933
10258TIP3    H252190   1.901   5.153   4.566 -1.2982  1.8626  0.0025
10259TIP3   OH252191   4.822   4.056  15.294  0.0202 -0.0703  0.0958
10259TIP3    H152192   4.893   4.070  15.231  1.9021 -0.7806  1.9206
10259TIP3    H252193   4.811   3.961  15.297 -0.5976  0.0035  0.2894
10260TIP3   OH252194   2.467   0.078  16.214 -0.2291  0.0112 -0.2043
10260TIP3    H152195   2.516   0.040  16.141 -0.1813 -2.0499  0.8287
10260TIP3    H252196   2.503   0.037  16.292  0.3541  2.8290  1.1539
10261TIP3   OH252197   4.382   4.725  10.502 -0.0436 -0.1244  0.2731
10261TIP3    H152198   4.398   4.813  10.467 -0.2239 -0.4216 -0.5944
10261TIP3    H252199   4.469   4.686  10.509 -0.0890 -0.8031 -1.9269
10262TIP3   OH252200   1.803   2.426  12.773 -0.1907  0.0661 -0.2347
10262TIP3    H152201   1.886   2.391  12.804 -0.0625  1.7169  1.4201
10262TIP3    H252202   1.748   2.348  12.759  0.2947 -0.8973  2.6006
10263TIP3   OH252203   6.672   4.180  16.458 -0.4317  0.2001  0.0168
10263TIP3    H152204   6.613   4.178  16.533 -1.4436  0.5722 -0.7472
10263TIP3    H252205   6.615   4.161  16.383  0.4438  0.4649 -0.7245
10264TIP3   OH252206   6.091   3.990   1.382  0.5832 -0.0662 -0.4740
10264TIP3    H152207   6.175   4.021   1.349  0.6267 -0.4815 -0.7612
10264TIP3    H252208   6.065   3.922   1.320  0.2626 -0.2664 -0.1185
10265TIP3   OH252209   1.315   3.286   5.638  0.0162  0.2645  0.1895
10265TIP3    H152210   1.326   3.376   5.608 -1.6328  0.4330 -0.0036
10265TIP3    H252211   1.334   3.289   5.731 -0.1967  0.8426  0.2168
10266TIP3   OH252212   4.418   2.838   5.744 -0.3876  0.1109  0.1019
10266TIP3    H152213   4.471   2.835   5.823 -0.1244  2.4581  0.0872
10266TIP3    H252214   4.446   2.762   5.693  2.4734  0.8495  0.4117
10267TIP3   OH252215   4.057   0.027   0.187 -0.2469  0.3563  0.1590
10267TIP3    H152216   4.125  -0.025   0.145  0.3972  1.2047  0.1087
10267TIP3    H252217   4.086   0.034   0.278 -0.9136 -0.3059  0.4295
10268TIP3   OH252218   4.992   1.703  16.366  0.4811  0.4604 -0.3414
10268TIP3    H152219   4.994   1.798  16.369  0.8708  0.4844 -1.2318
10268TIP3    H252220   5.084   1.677  16.366  0.4487  0.1804 -2.3530
10269TIP3   OH252221   1.042   1.160  15.369 -0.4809 -0.7463  0.3147
10269TIP3    H152222   0.976   1.120  15.426 -0.9645  1.5010  1.4184
10269TIP3    H252223   0.992   1.207  15.303 -0.3309  3.4557  2.8175
10270TIP3   OH252224   1.901   2.054   0.007  0.0428 -0.5064  0.0627
10270TIP3    H152225   1.898   2.051  -0.089  1.1876  0.3299 -0.0263
10270TIP3    H252226   1.993   2.070   0.027 -0.1097 -1.1373  1.3326
10271TIP3   OH252227   2.201   6.306   4.851  0.5904 -0.1632 -0.1268
10271TIP3    H152228   2.190   6.377   4.914 -0.2869 -0.0016 -0.4624
10271TIP3    H252229   2.200   6.227   4.905  1.4173  0.0480  0.2298
10272TIP3   OH252230   4.163   5.017  12.812  0.2490  0.2137 -0.3153
10272TIP3    H152231   4.191   5.066  12.889 -1.2811  0.4796  0.0978
10272TIP3    H252232   4.233   5.033  12.748  1.6757 -0.2163  1.0567
10273TIP3   OH252233   5.561   6.462  12.582  0.0465  0.6409  0.2142
10273TIP3    H152234   5.557   6.539  12.638 -0.6271  0.8900 -0.1637
10273TIP3    H252235   5.612   6.489  12.506  2.6606 -0.2544  1.5130
10274TIP3   OH252236   3.646   2.616  13.198  0.0920 -0.2226  0.2991
10274TIP3    H152237   3.682   2.568  13.123 -1.5765 -0.5844 -0.3032
10274TIP3    H252238   3.638   2.550  13.266  0.7640 -0.0930  0.5065
10275TIP3   OH252239   2.362   1.274   2.052 -0.2525 -0.3461 -0.5576
10275TIP3    H152240   2.392   1.263   1.962  0.1003 -3.0427 -0.1779
10275TIP3    H252241   2.439   1.305   2.099  1.1566 -3.9115 -0.2641
10276TIP3   OH252242   4.599   3.199  15.769  0.0947 -0.2235  0.0710
10276TIP3    H152243   4.608   3.272  15.830  3.1017 -0.7024  0.3154
10276TIP3    H252244   4.570   3.125  15.824  1.1654 -0.2420  0.6234
10277TIP3   OH252245   0.146   0.902  11.608 -0.6094 -0.5360 -0.4073
10277TIP3    H152246   0.131   0.833  11.543 -1.1728 -0.6549 -0.1544
10277TIP3    H252247   0.067   0.956  11.605 -0.3249 -0.1155 -0.3430
10278TIP3   OH252248   2.985   2.699  15.644 -0.1519  0.2664 -0.3575
10278TIP3    H152249   2.911   2.739  15.598 -2.0301 -1.1558  1.2725
10278TIP3    H252250   3.020   2.770  15.698 -1.3808  0.5686  0.0678
10279TIP3   OH252251   0.193   4.775   4.106 -0.8747  0.2561  0.3628
10279TIP3    H152252   0.173   4.682   4.100 -2.0605  0.5305 -0.5007
10279TIP3    H252253   0.141   4.806   4.181 -1.2809  0.4070  0.0204
10280TIP3   OH252254   1.802   6.710  13.817 -0.0361 -0.3879  0.0993
10280TIP3    H152255   1.751   6.656  13.877 -0.4084  1.1488  1.2100
10280TIP3    H252256   1.776   6.800  13.836  1.9265  0.3452 -0.4098
10281TIP3   OH252257   4.624   4.849  15.031 -0.2466  0.1800  0.3639
10281TIP3    H152258   4.612   4.754  15.040  2.7179 -0.3814 -0.4610
10281TIP3    H252259   4.603   4.884  15.118  0.6590 -1.5378  1.3467
10282TIP3   OH252260   4.355   2.162   6.128 -0.0667  0.0030  0.0922
10282TIP3    H152261   4.265   2.141   6.102  0.1822 -2.1048  0.7671
10282TIP3    H252262   4.363   2.256   6.112 -1.4926 -0.2282 -2.5932
10283TIP3   OH252263   4.916   5.271   2.700 -0.0123 -0.3170  0.0921
10283TIP3    H152264   4.884   5.189   2.663  0.3052 -0.1442 -0.5687
10283TIP3    H252265   4.983   5.245   2.763 -0.3087 -0.5881  0.3024
10284TIP3   OH252266   5.383   6.371  12.967  0.2781  0.0044  0.5952
10284TIP3    H152267   5.307   6.330  13.008  0.5316 -0.3512  0.7080
10284TIP3    H252268   5.350   6.456  12.935  0.0567  0.2487  1.4519
10285TIP3   OH252269   2.952   3.944   0.268  0.5781  0.0235 -0.0010
10285TIP3    H152270   2.862   3.977   0.265  0.5699  0.0378  0.3867
10285TIP3    H252271   2.955   3.878   0.199 -0.0743 -0.8486  0.7856
10286TIP3   OH252272   3.930   0.101  17.083  0.0235  0.6813 -0.5180
10286TIP3    H152273   3.923   0.014  17.122  0.9099  1.1009  0.6635
10286TIP3    H252274   3.927   0.086  16.989  2.0085 -0.8514 -0.4125
10287TIP3   OH252275   3.985   0.251   4.169  0.2103 -0.3491  0.4251
10287TIP3    H152276   3.936   0.256   4.087 -0.9509 -1.7424  1.0067
10287TIP3    H252277   4.058   0.193   4.150 -0.1002 -0.7317  0.3855
10288TIP3   OH252278   2.223   4.429   6.086 -0.6623  0.1700  0.3547
10288TIP3    H152279   2.161   4.476   6.142 -0.4589  0.4933  0.3090
10288TIP3    H252280   2.308   4.466   6.108 -0.6711  0.8709 -0.7365
10289TIP3   OH252281   0.996   5.177  14.806 -0.2888 -0.4655 -0.1143
10289TIP3    H152282   0.981   5.107  14.869 -1.7712  0.4575  0.6095
10289TIP3    H252283   0.916   5.181  14.754 -0.0447  0.3635 -0.4556
10290TIP3   OH252284   0.208   4.483   6.227  0.3949  0.1346 -0.0786
10290TIP3    H152285   0.172   4.535   6.299 -1.2279  0.9700 -1.4185
10290TIP3    H252286   0.152   4.407   6.221  1.3281 -0.6075  0.3533
10291TIP3   OH252287   3.803   0.418  12.665 -0.0533 -0.4272 -0.0386
10291TIP3    H152288   3.781   0.486  12.728 -0.8854 -0.6342 -0.0949
10291TIP3    H252289   3.898   0.407  12.673  0.3488  1.7612 -1.0770
10292TIP3   OH252290   6.460   4.213  16.654  0.0279  0.5203  0.3081
10292TIP3    H152291   6.477   4.127  16.692 -1.4928  0.2299  0.3998
10292TIP3    H252292   6.400   4.255  16.714 -1.1908  0.6604 -0.9557
10293TIP3   OH252293   4.993   0.794  11.823  0.2655  0.2384 -0.3811
10293TIP3    H152294   4.951   0.799  11.737  0.1621  0.0393 -0.3430
10293TIP3    H252295   4.993   0.884  11.855  0.7479  0.3985 -0.8003
10294TIP3   OH252296   4.568   4.211  15.060 -0.3227 -0.2997  0.3715
10294TIP3    H152297   4.484   4.243  15.094 -1.6101 -1.2062 -1.7610
10294TIP3    H252298   4.566   4.117  15.075 -0.0002 -0.4203 -0.3231
10295TIP3   OH252299   5.702   5.459  16.988 -0.2344  0.0648 -0.2215
10295TIP3    H152300   5.694   5.478  16.894  1.9527  1.0548 -0.2729
10295TIP3    H252301   5.707   5.545  17.030  0.8732 -0.3483  0.5471
10296TIP3   OH252302   0.117   4.643   4.517  0.2479  0.1568 -0.2418
10296TIP3    H152303   0.152   4.563   4.477  1.2449  0.2229  0.4734
10296TIP3    H252304   0.108   4.704   4.443 -1.0526 -0.7778 -0.8842
10297TIP3   OH252305   4.759   2.027   2.296 -0.0366  0.1893  0.0804
10297TIP3    H152306   4.721   2.062   2.376  0.2486 -0.4850  0.5297
10297TIP3    H252307   4.724   2.081   2.226 -0.2829  0.7958  0.6661
10298TIP3   OH252308   3.144   0.269  12.305 -0.3959  0.4120  0.2391
10298TIP3    H152309   3.129   0.244  12.214 -1.5195 -0.9776  0.7733
10298TIP3    H252310   3.134   0.365  12.306 -1.4360  0.3315 -0.9071
10299TIP3   OH252311   6.037   3.922  15.544  0.5444 -1.0069 -0.1629
10299TIP3    H152312   5.945   3.943  15.528  0.2434 -2.0757  0.0848
10299TIP3    H252313   6.045   3.829  15.519  1.5844 -0.8955 -0.3051
10300TIP3   OH252314   4.209   4.316  14.030 -0.3051 -0.5769 -0.3140
10300TIP3    H152315   4.212   4.295  14.123 -0.0804 -0.9163 -0.3970
10300TIP3    H252316   4.255   4.399  14.022  1.0600 -1.3126 -0.3373
10301TIP3   OH252317   4.989   2.811  12.212  0.0386  0.3205  0.0187
10301TIP3    H152318   5.028   2.750  12.275 -0.2715 -1.0086 -1.0335
10301TIP3    H252319   5.061   2.840  12.157  0.1945  0.9659  0.5492
10302TIP3   OH252320   0.169   5.784   1.347  0.2543  0.4184  0.1588
10302TIP3    H152321   0.108   5.854   1.371  0.0313  0.1441  0.3917
10302TIP3    H252322   0.115   5.721   1.299  0.2718  0.0008  0.6742
10303TIP3   OH252323   6.374   2.598   4.928 -0.4088  0.6640 -0.6365
10303TIP3    H152324   6.294   2.622   4.974 -0.0032 -0.3736  0.6615
10303TIP3    H252325   6.348   2.527   4.870  0.0012 -1.5833  1.7372
10304TIP3   OH252326   3.971   6.103   5.482 -0.2186 -0.9632  0.4972
10304TIP3    H152327   3.957   6.193   5.511  0.3283 -1.2003  1.5180
10304TIP3    H252328   3.885   6.074   5.451 -0.7103 -0.5462  1.4489
10305TIP3   OH252329   3.225   1.115   4.593  0.0455  0.0831  0.9513
10305TIP3    H152330   3.265   1.028   4.584 -0.3677 -0.0890  0.7478
10305TIP3    H252331   3.147   1.099   4.646 -1.2709 -0.0676 -0.9493
10306TIP3   OH252332   6.554   6.293  16.286  0.4329  0.4599  0.4045
10306TIP3    H152333   6.518   6.244  16.213 -0.8455  1.9914 -0.0500
10306TIP3    H252334   6.649   6.281  16.279  0.4507  1.5791 -2.2917
10307TIP3   OH252335   3.865   3.225  13.431 -0.1018 -0.2187 -0.3645
10307TIP3    H152336   3.800   3.283  13.392 -1.4253 -0.5737  1.1916
10307TIP3    H252337   3.855   3.142  13.385 -1.2014 -0.4501  0.2736
10308TIP3   OH252338   5.398   0.151  13.796 -0.1215 -0.5128  0.5018
10308TIP3    H152339   5.437   0.070  13.765  0.9073  0.2222 -0.1968
10308TIP3    H252340   5.304   0.140  13.780 -0.1389 -1.9730  1.4226
10309TIP3   OH252341   1.630   3.211   4.090  0.7110  0.1139 -0.1996
10309TIP3    H152342   1.648   3.304   4.084  1.9016 -0.1540 -1.3079
10309TIP3    H252343   1.658   3.176   4.005 -2.4480 -0.8177 -1.0085
10310TIP3   OH252344   5.474   6.720  15.034 -0.3231 -0.1915  0.2436
10310TIP3    H152345   5.557   6.701  14.992 -0.7676 -1.6996 -0.0096
10310TIP3    H252346   5.497   6.751  15.122  0.5256  0.6413 -0.2582
10311TIP3   OH252347   3.279   4.682   2.098  0.6220 -0.2752  0.2264
10311TIP3    H152348   3.214   4.741   2.061 -0.2188 -0.4989  1.2869
10311TIP3    H252349   3.308   4.628   2.024  0.2836  0.4435 -0.4383
10312TIP3   OH252350   6.774   5.648   2.173 -0.8294 -0.3938  0.0005
10312TIP3    H152351   6.760   5.555   2.157  0.4675 -0.2899 -2.0441
10312TIP3    H252352   6.740   5.691   2.095 -0.2261  0.7556  0.3471
10313TIP3   OH252353   3.767   5.623  15.640 -0.4851 -0.0761  0.1106
10313TIP3    H152354   3.819   5.668  15.706 -0.5705 -1.8505  1.4455
10313TIP3    H252355   3.791   5.665  15.558  2.2291 -0.0900  0.8183
10314TIP3   OH252356   4.784   3.189  13.690 -0.1807  0.0226  0.2379
10314TIP3    H152357   4.851   3.223  13.631 -0.9175  1.9750  0.4499
10314TIP3    H252358   4.706   3.179  13.635 -0.2599 -0.3577  0.4128
10315TIP3   OH252359   1.621   1.569   4.702  0.0328  0.6758  0.0100
10315TIP3    H152360   1.605   1.510   4.776  3.1845  1.6270  1.6262
10315TIP3    H252361   1.685   1.523   4.648 -2.0693  0.0883 -2.1571
10316TIP3   OH252362   6.493   1.074  12.381  0.1217 -0.2028 -0.1937
10316TIP3    H152363   6.541   1.067  12.299  0.3844  1.4528 -0.2230
10316TIP3    H252364   6.529   1.005  12.437  2.0011  0.4998 -0.4822
10317TIP3   OH252365   4.479   5.193   3.381 -0.8090  0.2638  0.1682
10317TIP3    H152366   4.455   5.118   3.436  1.0317  0.3367  1.1432
10317TIP3    H252367   4.477   5.159   3.291 -0.1990 -0.9286  0.5820
10318TIP3   OH252368   1.478   6.108   3.277 -0.2256  0.3868 -0.3067
10318TIP3    H152369   1.429   6.180   3.238  1.5426  1.4355 -0.7281
10318TIP3    H252370   1.526   6.148   3.349  0.3371 -0.4861 -0.1864
10319TIP3   OH252371   1.895   0.127  12.757 -0.0069  0.4199 -0.0432
10319TIP3    H152372   1.920   0.120  12.849 -0.1659  2.0473  0.1589
10319TIP3    H252373   1.825   0.064  12.746 -0.8083  1.0387  1.2781
10320TIP3   OH252374   0.977   6.392   5.904  0.1129  0.8654  0.1624
10320TIP3    H152375   1.053   6.338   5.885 -0.0915  0.3024  0.8867
10320TIP3    H252376   1.010   6.461   5.963 -0.0535  0.2278  1.0261
10321TIP3   OH252377   6.514   2.117  12.851 -0.1934 -0.9946 -0.3338
10321TIP3    H152378   6.442   2.054  12.856 -0.2892 -0.8670 -0.1010
10321TIP3    H252379   6.504   2.171  12.930 -0.1371 -0.6632 -0.5521
10322TIP3   OH252380   3.597   1.649  14.387  0.1124  0.0087 -0.1005
10322TIP3    H152381   3.529   1.622  14.326 -1.7289  0.6287  1.5919
10322TIP3    H252382   3.589   1.589  14.461  0.9431  0.5352  0.4289
10323TIP3   OH252383   0.948   2.916   0.504 -0.0156  0.6628  0.1460
10323TIP3    H152384   0.993   2.836   0.476 -0.3305  0.9028 -1.0753
10323TIP3    H252385   0.867   2.917   0.454 -0.8543  0.8600  1.4508
10324TIP3   OH252386   1.395   4.968   3.556  0.6172 -0.1342  0.4418
10324TIP3    H152387   1.307   4.996   3.529  0.5696  0.4358  1.1600
10324TIP3    H252388   1.388   4.873   3.565  0.3043 -0.1912 -0.3313
10325TIP3   OH252389   0.329   3.621   0.300  0.0652 -0.3114  0.3980
10325TIP3    H152390   0.268   3.584   0.363 -1.5256 -0.9553 -1.4252
10325TIP3    H252391   0.388   3.549   0.278 -2.6078 -1.8638 -2.6295
10326TIP3   OH252392   3.249   3.901  16.623 -0.5475  0.3436 -0.2535
10326TIP3    H152393   3.241   3.920  16.716  0.7859  2.1941 -0.4738
10326TIP3    H252394   3.319   3.835  16.618 -0.2150  0.6689  0.0293
10327TIP3   OH252395   3.052   0.862  15.461  0.1898 -0.1825 -0.2756
10327TIP3    H152396   3.041   0.950  15.425  0.6790  0.1645  0.3895
10327TIP3    H252397   3.143   0.859  15.490 -0.8379  0.6157  3.5929
10328TIP3   OH252398   5.617   5.134  15.700  0.0708 -0.8155 -0.6230
10328TIP3    H152399   5.663   5.189  15.763 -1.1430 -1.5325  0.9662
10328TIP3    H252400   5.679   5.063  15.680 -0.1439 -1.5973  1.2453
10329TIP3   OH252401   6.657   1.929   3.201  0.2689 -0.2224 -0.9987
10329TIP3    H152402   6.708   1.992   3.150  0.8211 -1.3987 -1.9416
10329TIP3    H252403   6.591   1.982   3.246  2.0149  1.2859 -0.0954
10330TIP3   OH252404   5.557   3.650   5.283 -0.0185 -0.4777  0.2202
10330TIP3    H152405   5.591   3.735   5.256 -3.6057  0.6093 -1.4398
10330TIP3    H252406   5.610   3.587   5.235  2.2731  0.7739  0.9591
10331TIP3   OH252407   2.281   6.053  15.335 -0.0723  0.7815 -0.2083
10331TIP3    H152408   2.189   6.075  15.321  0.0147  0.1440 -2.2198
10331TIP3    H252409   2.329   6.115  15.279  0.7731  1.2811  1.0144
10332TIP3   OH252410   5.511   1.281  12.932  0.5179  0.4235 -0.4521
10332TIP3    H152411   5.526   1.372  12.957  0.1258  0.3692 -0.0177
10332TIP3    H252412   5.581   1.233  12.975  0.7839  0.5281 -0.7612
10333TIP3   OH252413   4.681   4.905   0.271  0.2129  0.1518  0.1032
10333TIP3    H152414   4.622   4.979   0.286  1.2736  0.8236  1.1701
10333TIP3    H252415   4.756   4.922   0.329  1.0230 -1.1502 -0.5135
10334TIP3   OH252416   0.204   1.945   2.907  0.0365 -0.1005  0.1119
10334TIP3    H152417   0.206   1.943   2.811  0.8022 -1.2265  0.1346
10334TIP3    H252418   0.273   2.008   2.930 -1.7186  2.0331 -0.0696
10335TIP3   OH252419   0.592   6.273   5.305  0.0572  0.3782  0.0762
10335TIP3    H152420   0.543   6.235   5.378  0.9428 -1.5185 -0.2515
10335TIP3    H252421   0.614   6.362   5.335  0.0973 -0.2208  1.9858
10336TIP3   OH252422   0.676   5.802  16.204 -0.4572 -0.1731 -0.1406
10336TIP3    H152423   0.765   5.832  16.221  0.0429 -0.5451 -1.8685
10336TIP3    H252424   0.679   5.708  16.220 -0.7796 -0.0586  0.6331
10337TIP3   OH252425   2.004   0.478  10.819 -0.5323 -0.1135  0.0017
10337TIP3    H152426   1.957   0.532  10.756  0.9089 -0.8807 -1.8390
10337TIP3    H252427   2.095   0.480  10.789 -0.2714 -2.8409  0.3231
10338TIP3   OH252428   6.345   3.843   3.818  0.2170 -0.0515 -0.2423
10338TIP3    H152429   6.364   3.936   3.808 -1.0773  0.0996 -1.4374
10338TIP3    H252430   6.430   3.804   3.837  0.5302  1.5856  2.1577
10339TIP3   OH252431   2.333   3.822  17.054 -0.2726  0.2678 -0.3484
10339TIP3    H152432   2.359   3.890  16.992  0.1104 -1.1553 -1.8393
10339TIP3    H252433   2.270   3.769  17.006 -0.6190 -0.3928  0.7947
10340TIP3   OH252434   4.097   6.595  15.784 -0.7692 -0.1728  0.1152
10340TIP3    H152435   4.013   6.639  15.774 -0.0866  2.0987  2.9782
10340TIP3    H252436   4.085   6.538  15.860  0.3195  0.4345  0.7699
10341TIP3   OH252437   4.521   6.247   3.089  0.3955 -0.0471 -0.9172
10341TIP3    H152438   4.460   6.229   3.017  0.1997  1.9025 -1.3211
10341TIP3    H252439   4.506   6.340   3.109  3.0226  0.4348 -0.8604
10342TIP3   OH252440   3.995   3.103  16.030  0.0898  0.2792 -0.2663
10342TIP3    H152441   4.009   3.122  15.937  2.0611  2.6719  0.3963
10342TIP3    H252442   4.053   3.029  16.048  2.6416  2.1148 -0.2871
10343TIP3   OH252443   1.174   0.830   1.068 -0.3954 -0.5106 -0.2626
10343TIP3    H152444   1.244   0.784   1.021  1.2225  1.3492  0.1517
10343TIP3    H252445   1.125   0.761   1.111 -0.1211 -2.0582 -2.2518
10344TIP3   OH252446   3.937   4.355  14.123  0.9625  0.4994  0.2402
10344TIP3    H152447   3.987   4.334  14.201 -1.1249  1.6564  1.9862
10344TIP3    H252448   3.927   4.271  14.077  3.0806 -0.0108  0.6171
10345TIP3   OH252449   6.489   3.042  11.843 -0.5148  0.2905 -0.0003
10345TIP3    H152450   6.568   3.004  11.805 -2.3768 -0.7570 -3.2762
10345TIP3    H252451   6.452   3.095  11.772 -4.5068 -2.1002  0.0062
10346TIP3   OH252452   5.372   6.227  15.666 -0.3787 -0.4347  0.2980
10346TIP3    H152453   5.306   6.271  15.720 -0.6898 -2.1826  1.4035
10346TIP3    H252454   5.415   6.299  15.619 -1.1189  1.0166  1.7160
10347TIP3   OH252455   0.949   2.553   2.847 -0.1477 -0.3567  0.2503
10347TIP3    H152456   0.938   2.600   2.763  1.4018  0.8247  0.6729
10347TIP3    H252457   0.961   2.623   2.911  1.1542 -1.3226  1.0752
10348TIP3   OH252458   5.369   3.277  14.613  0.0191  0.0346 -0.5248
10348TIP3    H152459   5.304   3.284  14.683 -1.2310 -0.0281 -1.6618
10348TIP3    H252460   5.364   3.185  14.586  2.4098 -0.6688  1.0552
10349TIP3   OH252461   5.208   4.906  12.199 -0.5326  0.4861 -0.6182
10349TIP3    H152462   5.125   4.905  12.247 -0.6467 -0.3604 -0.8166
10349TIP3    H252463   5.274   4.926  12.266 -0.8423  0.6921 -0.3718
10350TIP3   OH252464   5.198   3.719   0.869  0.4595  0.3621 -0.1043
10350TIP3    H152465   5.231   3.808   0.881  1.8596 -0.3435  1.7413
10350TIP3    H252466   5.165   3.693   0.956  0.0492 -0.9159 -0.6082
10351TIP3   OH252467   2.685   3.355  14.052 -0.2970 -0.1505  0.2014
10351TIP3    H152468   2.780   3.345  14.058 -0.1957  1.3305  2.5783
10351TIP3    H252469   2.652   3.265  14.046  1.2460 -0.6553 -3.2898
10352TIP3   OH252470   2.838   3.356   4.915 -0.3948 -0.4846 -0.2907
10352TIP3    H152471   2.833   3.264   4.943  0.2244 -0.2654  0.5850
10352TIP3    H252472   2.931   3.378   4.919 -0.7158  0.9119  2.1165
10353TIP3   OH252473   1.646   6.069   3.506  0.1943  0.0194  0.2359
10353TIP3    H152474   1.691   6.068   3.590  1.2498 -0.0743 -0.3151
10353TIP3    H252475   1.561   6.028   3.524 -0.2940  1.5471  1.6113
10354TIP3   OH252476   3.652   4.211  11.387 -0.2505  0.0143 -0.2122
10354TIP3    H152477   3.655   4.258  11.304  0.8918  0.7430  0.2164
10354TIP3    H252478   3.681   4.123  11.366  0.0437  0.1997 -0.5972
10355TIP3   OH252479   4.127   3.756  12.286 -0.2315  0.3191  0.0862
10355TIP3    H152480   4.191   3.768  12.356  0.2201  0.9095 -0.4133
10355TIP3    H252481   4.094   3.668  12.298  2.7154 -1.1091 -1.2820
10356TIP3   OH252482   2.201   5.703   2.690 -0.1042 -0.2788  0.2819
10356TIP3    H152483   2.128   5.723   2.631 -0.1953 -0.8444  0.2000
10356TIP3    H252484   2.219   5.610   2.675  1.4963  0.1428 -0.6547
10357TIP3   OH252485   2.988   3.275   5.735  0.2341  0.2181 -0.5747
10357TIP3    H152486   3.004   3.234   5.820 -1.5363 -1.8072 -1.1104
10357TIP3    H252487   3.014   3.209   5.671 -1.7848  0.2121 -1.4923
10358TIP3   OH252488   2.905   2.431   5.136 -0.5944  0.0120  0.6810
10358TIP3    H152489   2.949   2.426   5.221 -0.3527 -1.1215  0.5143
10358TIP3    H252490   2.820   2.388   5.151 -1.0096  0.8040  0.6189
10359TIP3   OH252491   3.067   2.868   1.828  0.7602 -0.5181 -0.1485
10359TIP3    H152492   3.086   2.914   1.746 -0.9370  0.6071  0.0539
10359TIP3    H252493   3.037   2.782   1.801  0.1527 -0.1319 -0.7171
10360TIP3   OH252494   5.822   3.427  16.236  0.1857  0.0709 -0.0186
10360TIP3    H152495   5.831   3.458  16.146  0.9060  0.2915  0.1269
10360TIP3    H252496   5.912   3.414  16.267 -0.0602 -0.4718  0.5100
10361TIP3   OH252497   4.106   5.221  14.460 -1.0791 -0.2400  0.0940
10361TIP3    H152498   4.193   5.224  14.422 -0.5768  1.5300  1.2476
10361TIP3    H252499   4.047   5.214  14.385  0.0133 -0.8955 -0.7354
10362TIP3   OH252500   4.978   2.836  13.043 -0.4079 -0.2969 -0.2415
10362TIP3    H152501   4.895   2.868  13.078 -0.1093  0.4788 -0.2293
10362TIP3    H252502   4.988   2.749  13.082 -0.1630  0.4744  1.5413
10363TIP3   OH252503   3.916   3.059   0.262 -0.1913 -0.5190  0.4285
10363TIP3    H152504   3.854   2.987   0.254 -1.8336  0.9617 -1.0746
10363TIP3    H252505   3.903   3.111   0.182  2.7416  0.0850  0.2092
10364TIP3   OH252506   6.240   3.504  11.725  0.1898 -0.2064 -0.1730
10364TIP3    H152507   6.213   3.474  11.638  3.5138  1.7169 -2.1012
10364TIP3    H252508   6.159   3.524  11.770 -1.6889 -0.7507 -3.0400
10365TIP3   OH252509   1.421   0.971  14.187 -0.4062 -0.0899  0.1023
10365TIP3    H152510   1.430   1.064  14.165 -1.0109 -0.3016 -1.1033
10365TIP3    H252511   1.327   0.954  14.181 -0.6194 -0.2468  2.6720
10366TIP3   OH252512   6.461   2.763   2.722  0.1215  0.3228 -0.1363
10366TIP3    H152513   6.545   2.717   2.712 -0.6123 -1.1394  0.1247
10366TIP3    H252514   6.479   2.832   2.786  0.9144 -0.5685  0.6356
10367TIP3   OH252515   0.990   6.004  15.362  0.0217  0.0311 -0.0119
10367TIP3    H152516   1.041   5.937  15.406 -0.3101  0.4079  0.9661
10367TIP3    H252517   0.903   5.966  15.352  0.1386 -0.1177 -0.5088
10368TIP3   OH252518   6.526   0.469   4.050 -0.2493 -0.5700  0.4118
10368TIP3    H152519   6.512   0.470   4.144 -0.3313 -1.6029  0.4300
10368TIP3    H252520   6.515   0.560   4.022 -1.1570 -0.4006  1.2590
10369TIP3   OH252521   0.886   2.621   4.241 -0.3103 -0.3905 -0.0528
10369TIP3    H152522   0.887   2.669   4.324  0.8717  0.3739 -0.4793
10369TIP3    H252523   0.803   2.573   4.242 -0.4452 -0.1825  1.4424
10370TIP3   OH252524   6.261   0.750   3.663 -0.2520  0.0034 -0.3090
10370TIP3    H152525   6.247   0.825   3.722  0.1092 -0.6765  0.6776
10370TIP3    H252526   6.194   0.687   3.689  1.0766 -1.0620  0.7001
10371TIP3   OH252527   4.815   1.949  16.620 -0.1620  0.2992 -0.2264
10371TIP3    H152528   4.764   1.952  16.701  1.0443  2.2889  0.5664
10371TIP3    H252529   4.824   2.041  16.595 -0.3169 -0.2684 -2.5379
10372TIP3   OH252530   3.345   2.943   0.798 -0.2020  0.0800  0.3141
10372TIP3    H152531   3.389   2.929   0.714  0.9964  1.7798  0.6011
10372TIP3    H252532   3.410   2.990   0.851 -0.9432 -0.9154  2.1880
10373TIP3   OH252533   1.144   5.634  13.271 -0.6986  0.4523  0.4113
10373TIP3    H152534   1.077   5.627  13.202 -0.7471  2.2140  0.2215
10373TIP3    H252535   1.107   5.697  13.333  0.2842  0.5359  0.9235
10374TIP3   OH252536   1.062   3.593   3.830 -0.1856 -0.1853 -0.3592
10374TIP3    H152537   1.151   3.624   3.814 -1.1070  1.9126 -2.0125
10374TIP3    H252538   1.008   3.644   3.769 -2.4577 -1.8247  0.1498
10375TIP3   OH252539   0.980   4.310   2.264 -0.0488  0.1021  0.3244
10375TIP3    H152540   0.887   4.309   2.241  0.2934  0.7295 -1.1902
10375TIP3    H252541   0.988   4.245   2.335 -1.0470 -2.8011 -2.0033
10376TIP3   OH252542   6.654   2.784  14.380  0.2781 -0.0604 -0.1513
10376TIP3    H152543   6.580   2.723  14.371  1.3209 -1.1889 -1.5219
10376TIP3    H252544   6.639   2.827  14.464 -1.2393 -1.2102  0.2230
10377TIP3   OH252545   6.068   2.165   2.666  0.2977  0.5220 -0.2717
10377TIP3    H152546   6.003   2.137   2.602  0.8169 -1.0536 -0.1312
10377TIP3    H252547   6.030   2.142   2.751  1.5041 -1.5604 -0.2324
10378TIP3   OH252548   1.967   3.190  10.749 -0.4245  0.3162  0.0369
10378TIP3    H152549   1.874   3.172  10.756 -0.8151  2.3819  1.1230
10378TIP3    H252550   1.996   3.202  10.839  1.2198 -1.5711 -0.1793
10379TIP3   OH252551   3.701   5.674   0.837 -0.4506  0.1538 -0.0336
10379TIP3    H152552   3.652   5.752   0.809 -0.8207 -0.0762 -0.0288
10379TIP3    H252553   3.730   5.633   0.755 -2.9857 -1.4656 -0.2166
10380TIP3   OH252554   1.503   0.655   3.308  0.1317  0.2220 -0.0726
10380TIP3    H152555   1.458   0.734   3.337 -1.2975 -0.5873  0.0223
10380TIP3    H252556   1.434   0.599   3.273  1.3004 -0.4219 -1.4557
10381TIP3   OH252557   6.562   5.378  12.059  0.3252  0.4595 -0.5487
10381TIP3    H152558   6.548   5.332  12.142 -2.0916  0.9168 -0.6451
10381TIP3    H252559   6.648   5.421  12.070 -0.3262  1.2690  2.1126
10382TIP3   OH252560   1.563   1.810  16.785  0.8229 -0.4875 -0.3061
10382TIP3    H152561   1.653   1.785  16.766  1.1468  0.9348 -0.7866
10382TIP3    H252562   1.552   1.895  16.742 -0.1359  0.3002  1.4029
10383TIP3   OH252563   3.206   4.055   6.969  0.6080 -0.1579  0.5797
10383TIP3    H152564   3.296   4.045   6.940  0.6410  1.4615  0.0360
10383TIP3    H252565   3.191   4.149   6.971 -1.7853 -0.3539 -1.7114
10384TIP3   OH252566   3.458   2.660  14.152  0.4582 -0.4729  0.1275
10384TIP3    H152567   3.425   2.731  14.206  1.2766  1.1631 -1.4178
10384TIP3    H252568   3.542   2.636  14.192 -0.0899 -1.0444  0.9959
10385TIP3   OH252569   3.657   5.319  17.288 -0.4347 -0.1702  0.2135
10385TIP3    H152570   3.579   5.323  17.232 -1.9736 -0.3989  2.2337
10385TIP3    H252571   3.623   5.329  17.377  1.8664 -0.2980  1.1647
10386TIP3   OH252572   0.139   4.596   3.172 -0.2049 -0.0655 -0.0840
10386TIP3    H152573   0.123   4.640   3.089 -2.0866 -0.1215  0.2064
10386TIP3    H252574   0.188   4.659   3.224  2.9347 -0.7887 -1.8866
10387TIP3   OH252575   5.794   3.644  12.269 -0.5689 -0.1373 -0.5838
10387TIP3    H152576   5.868   3.660  12.329 -0.3254 -0.8097 -0.7049
10387TIP3    H252577   5.816   3.562  12.225 -1.3662 -0.3100 -0.6639
10388TIP3   OH252578   2.859   2.047  17.264 -0.1150  0.5730 -0.4996
10388TIP3    H152579   2.920   1.986  17.224 -1.6481 -1.1046 -0.4077
10388TIP3    H252580   2.867   2.031  17.358 -1.1441 -0.1410 -0.5212
10389TIP3   OH252581   3.085   3.691  12.304 -0.3686  0.0409 -0.6058
10389TIP3    H152582   3.103   3.611  12.354  0.3275  1.1083  0.9253
10389TIP3    H252583   3.003   3.724  12.341 -0.4223  0.2599 -0.9213
10390TIP3   OH252584   4.341   4.244   1.262 -0.0012 -0.0525  0.3522
10390TIP3    H152585   4.372   4.316   1.207 -0.4005  0.5646  0.9211
10390TIP3    H252586   4.420   4.193   1.282  0.8022  1.7650  2.1794
10391TIP3   OH252587   5.587   6.211   1.535  0.0263 -0.0670 -0.4350
10391TIP3    H152588   5.639   6.181   1.610 -1.3056  0.3883  0.7086
10391TIP3    H252589   5.561   6.131   1.490  1.3935 -0.3212 -0.8419
10392TIP3   OH252590   1.353   2.041  16.082  0.3169 -0.0019  0.2119
10392TIP3    H152591   1.364   2.025  16.176  0.5691  1.6303  0.4967
10392TIP3    H252592   1.349   1.954  16.043  0.8184 -0.7106  1.6645
10393TIP3   OH252593   2.708   3.801   2.707 -0.3275  0.2674 -0.1800
10393TIP3    H152594   2.724   3.817   2.800 -0.4450 -1.0771  0.0901
10393TIP3    H252595   2.621   3.761   2.705 -0.8778  1.4320 -1.0064
10394TIP3   OH252596   0.616   6.750   4.115  0.3953  0.7200  0.0449
10394TIP3    H152597   0.617   6.725   4.022  0.3250 -0.5505  0.3787
10394TIP3    H252598   0.598   6.669   4.162  0.0656  1.4187  1.1608
10395TIP3   OH252599   1.188   4.728   4.499  0.5687  0.5322  0.1471
10395TIP3    H152600   1.115   4.770   4.454 -1.2792 -0.5194  2.0249
10395TIP3    H252601   1.199   4.644   4.454  0.1544  0.3954  0.3014
10396TIP3   OH252602   4.465   0.997  12.179 -0.3174  0.1219 -0.1361
10396TIP3    H152603   4.413   0.917  12.185  0.0915 -0.1095  0.5283
10396TIP3    H252604   4.537   0.974  12.121  0.6644 -0.5161  1.2644
10397TIP3   OH252605   0.255   1.254   2.065 -0.3792  0.3933  0.1103
10397TIP3    H152606   0.309   1.244   2.144 -0.6615  1.6445  0.4782
10397TIP3    H252607   0.308   1.215   1.995  0.5583  0.6762  0.6395
10398TIP3   OH252608   4.899   2.343   0.710 -0.1641  0.4432 -0.2779
10398TIP3    H152609   4.981   2.375   0.748 -0.0782 -0.2065  0.1026
10398TIP3    H252610   4.834   2.354   0.780 -0.2523  0.3211 -0.3396
10399TIP3   OH252611   4.709   1.037  11.277  0.2364 -0.1171 -0.0646
10399TIP3    H152612   4.782   1.099  11.279 -0.2185  0.4322 -0.2296
10399TIP3    H252613   4.650   1.068  11.346 -0.8158  0.6699 -1.2809
10400TIP3   OH252614   6.292   0.221   3.682  0.2137 -0.3015 -0.1954
10400TIP3    H152615   6.242   0.281   3.628 -0.3679 -0.6563 -0.0570
10400TIP3    H252616   6.329   0.276   3.751 -1.0037 -0.2308  0.4163
10401TIP3   OH252617   2.466   0.435  11.644 -0.3935  0.8719  0.5827
10401TIP3    H152618   2.371   0.440  11.656 -0.7216  0.7257 -1.6124
10401TIP3    H252619   2.481   0.348  11.606  0.4910  1.2561  0.0103
10402TIP3   OH252620   0.460   4.311   3.811  0.0103 -0.3491  0.1870
10402TIP3    H152621   0.541   4.362   3.815 -0.2284  0.0607 -0.1288
10402TIP3    H252622   0.465   4.265   3.727 -1.0419  1.3193 -0.8418
10403TIP3   OH252623   2.251   5.776  17.260 -0.3681 -0.5457 -0.0173
10403TIP3    H152624   2.158   5.790  17.244 -0.5352 -3.0378 -1.6509
10403TIP3    H252625   2.255   5.741  17.348 -1.0680 -1.2167 -0.2468
10404TIP3   OH252626   3.898   1.874  15.260 -0.2771 -0.0250 -0.6616
10404TIP3    H152627   3.984   1.885  15.220  0.0541 -2.2108 -0.6426
10404TIP3    H252628   3.916   1.831  15.344 -1.4034 -0.6992 -0.7496
10405TIP3   OH252629   1.293   3.765   0.987 -0.0776  0.3030 -0.2585
10405TIP3    H152630   1.280   3.856   0.960 -0.8124 -0.1042 -1.3378
10405TIP3    H252631   1.326   3.771   1.077  1.2659  1.6719 -0.8120
10406TIP3   OH252632   0.307   1.366  11.731  0.1891  0.3243 -0.0783
10406TIP3    H152633   0.309   1.345  11.638  2.6293 -0.8518  0.1625
10406TIP3    H252634   0.381   1.319  11.768 -0.5523  0.9625  2.4449
10407TIP3   OH252635   1.452   5.935  14.586 -0.0194  0.1688  0.1274
10407TIP3    H152636   1.538   5.894  14.590  0.6077  1.5130  0.9277
10407TIP3    H252637   1.469   6.027  14.566 -1.3499  0.2503 -0.8365
10408TIP3   OH252638   5.400   2.197   0.872  0.4898  0.4142 -0.0581
10408TIP3    H152639   5.310   2.201   0.904  0.2325 -0.1105 -0.7058
10408TIP3    H252640   5.418   2.284   0.837 -0.0139  0.3111 -0.5818
10409TIP3   OH252641   0.585   5.922  15.217 -0.0366  0.1122  0.7297
10409TIP3    H152642   0.651   5.863  15.252  1.8198  1.9718  0.5848
10409TIP3    H252643   0.623   6.010  15.229 -1.9936  1.1888 -0.4050
10410TIP3   OH252644   1.254   0.726   3.893 -0.1779  0.0354  0.3587
10410TIP3    H152645   1.264   0.656   3.958  1.5426  0.1289  0.2342
10410TIP3    H252646   1.309   0.698   3.819  1.1678  1.8433  0.6069
10411TIP3   OH252647   0.087   6.135  14.054 -0.3190 -0.1633 -0.2235
10411TIP3    H152648   0.159   6.108  13.997  0.4073 -1.3636  1.1895
10411TIP3    H252649   0.018   6.163  13.994  0.5213 -1.0704 -1.6752
10412TIP3   OH252650   2.557   5.529   5.427 -0.4203  0.1249 -0.6071
10412TIP3    H152651   2.629   5.466   5.432  0.4756  1.1643  0.1400
10412TIP3    H252652   2.486   5.481   5.384  0.3506 -1.2639 -0.3945
10413TIP3   OH252653   1.186   0.416  14.616  0.4156 -0.1710 -0.2550
10413TIP3    H152654   1.188   0.360  14.538 -0.8139 -0.9922  0.2749
10413TIP3    H252655   1.160   0.502  14.583 -2.3012 -1.0219 -0.5261
10414TIP3   OH252656   4.746   1.888   4.617  0.1317  0.5883  0.5838
10414TIP3    H152657   4.654   1.904   4.637 -0.2514  1.0082 -1.2961
10414TIP3    H252658   4.746   1.810   4.562  1.3021 -1.5775  3.3889
10415TIP3   OH252659   6.026   5.221  16.952 -0.3763 -0.0523 -0.0574
10415TIP3    H152660   6.071   5.246  17.033  0.1922 -1.3372  0.0377
10415TIP3    H252661   5.938   5.195  16.981  1.2156 -5.4479  1.0522
10416TIP3   OH252662   5.234   5.911   4.358 -0.1198 -0.1904 -0.1221
10416TIP3    H152663   5.242   5.821   4.327  0.8621 -0.2459  0.2490
10416TIP3    H252664   5.320   5.950   4.339 -0.4704  0.6084 -0.1028
10417TIP3   OH252665   3.437   0.736  14.606 -0.2033  0.3767 -0.2607
10417TIP3    H152666   3.515   0.789  14.624 -0.4933  0.4196  1.0062
10417TIP3    H252667   3.462   0.647  14.633 -0.0850  0.0621 -1.3472
10418TIP3   OH252668   2.023   0.513   3.502  0.2254 -0.0756 -0.2762
10418TIP3    H152669   1.935   0.474   3.508 -0.0184  0.7056  2.6159
10418TIP3    H252670   2.072   0.473   3.574  1.1110  2.0990  0.4189
10419TIP3   OH252671   5.755   4.072   3.852 -0.1415 -0.0822 -0.1334
10419TIP3    H152672   5.792   4.158   3.871 -2.2121  0.6231  1.1151
10419TIP3    H252673   5.760   4.064   3.757  1.2264  0.8615 -0.1668
10420TIP3   OH252674   6.132   1.768   3.249  0.4940  0.1092  0.0783
10420TIP3    H152675   6.155   1.716   3.326  0.6081  0.2811  0.1602
10420TIP3    H252676   6.157   1.713   3.175  1.3490  0.3598  0.1616
10421TIP3   OH252677   4.102   0.982  14.656 -0.4360  0.4669 -0.1690
10421TIP3    H152678   4.145   0.908  14.698  0.2504  0.7230 -0.3972
10421TIP3    H252679   4.014   0.983  14.692 -0.9043 -1.2830 -1.1677
10422TIP3   OH252680   0.089   6.579  15.766  0.0091 -0.2846 -0.2902
10422TIP3    H152681   0.073   6.524  15.690  0.2697  1.6057 -1.8050
10422TIP3    H252682   0.008   6.576  15.816 -0.0741 -1.7706 -0.4765
10423TIP3   OH252683   5.633   6.399   3.097 -0.1551  0.6743 -0.2619
10423TIP3    H152684   5.542   6.404   3.067 -0.3931  3.8560  0.6226
10423TIP3    H252685   5.685   6.433   3.025  0.5397 -1.9152 -1.0967
10424TIP3   OH252686   5.647   0.724  14.989 -0.0211  0.1100  0.1667
10424TIP3    H152687   5.587   0.775  14.935 -0.1348 -1.0083 -0.8086
10424TIP3    H252688   5.732   0.733  14.946 -0.1946 -1.1347 -0.4929
10425TIP3   OH252689   1.481   4.107  12.988  0.0077  0.1195 -0.3907
10425TIP3    H152690   1.507   4.079  12.901 -2.4403 -1.4765 -0.7233
10425TIP3    H252691   1.446   4.195  12.977 -3.4701 -1.2932 -1.8083
10426TIP3   OH252692   3.740   2.734  12.586 -0.2362  0.5943 -0.1048
10426TIP3    H152693   3.745   2.766  12.496 -0.6458 -0.2481 -0.4273
10426TIP3    H252694   3.791   2.653  12.585  0.9949  1.3152  0.7665
10427TIP3   OH252695   4.035   6.049   6.064 -0.0910 -0.0835 -0.0902
10427TIP3    H152696   4.104   5.983   6.059  0.8708  0.8828  0.0616
10427TIP3    H252697   3.981   6.033   5.986 -0.7834 -1.9819  0.7220
10428TIP3   OH252698   2.461   0.825   1.266 -0.3656  0.1249  0.0855
10428TIP3    H152699   2.383   0.878   1.254 -1.4594 -0.9151  2.0807
10428TIP3    H252700   2.428   0.735   1.266  1.0656 -0.4262 -0.5559
10429TIP3   OH252701   6.055   3.495   4.478 -0.2790  0.0521  0.4205
10429TIP3    H152702   6.068   3.561   4.410 -1.4302 -0.9741 -0.8599
10429TIP3    H252703   5.998   3.538   4.542  2.3930  1.7222  1.8627
10430TIP3   OH252704   5.334   0.426   3.596 -0.1545  0.1113 -0.3097
10430TIP3    H152705   5.390   0.498   3.625 -0.9424  0.8406 -0.5745
10430TIP3    H252706   5.247   0.447   3.631 -0.1487 -1.3591  0.6986
10431TIP3   OH252707   2.526   1.306   1.099 -0.0926  0.3980  0.4400
10431TIP3    H152708   2.541   1.300   1.194 -0.6974  0.3848  0.5383
10431TIP3    H252709   2.440   1.268   1.086 -0.5191  1.4741  0.0315
10432TIP3   OH252710   6.556   4.169   5.955 -0.2214  0.6308  0.1031
10432TIP3    H152711   6.609   4.090   5.952 -0.8507  0.2192 -0.3287
10432TIP3    H252712   6.540   4.184   6.048  3.3666  2.6269  0.5811
10433TIP3   OH252713   5.710   3.127  16.999 -0.5676 -0.1671 -0.0534
10433TIP3    H152714   5.654   3.200  17.023  0.1148  0.0891  0.8216
10433TIP3    H252715   5.792   3.144  17.045  0.0794 -0.7600 -0.9572
10434TIP3   OH252716   2.637   0.744   4.643  0.7288 -0.0623  0.3140
10434TIP3    H152717   2.693   0.709   4.712  1.6346  0.6288 -0.0504
10434TIP3    H252718   2.554   0.763   4.686  0.4997 -1.8058  0.7022
10435TIP3   OH252719   2.954   3.849  14.870  0.2155  0.6159 -1.2093
10435TIP3    H152720   2.961   3.755  14.886 -2.1845  0.3825 -1.1725
10435TIP3    H252721   3.041   3.883  14.890 -0.3086 -0.6040  5.6162
10436TIP3   OH252722   2.700   5.906  11.593  0.2708  0.6144  0.1367
10436TIP3    H152723   2.752   5.968  11.544  0.9951 -0.0928 -0.0101
10436TIP3    H252724   2.612   5.944  11.596  0.5973  1.4076 -0.3414
10437TIP3   OH252725   5.826   5.269  11.668  0.4046 -0.4375 -0.0828
10437TIP3    H152726   5.813   5.195  11.608  1.5377 -0.8290  0.1216
10437TIP3    H252727   5.798   5.235  11.753  1.9039 -1.0317  0.2166
10438TIP3   OH252728   4.589   2.899   5.256  0.3602 -0.1341  0.0671
10438TIP3    H152729   4.560   2.949   5.180  1.5731 -0.5882 -0.7153
10438TIP3    H252730   4.651   2.835   5.221  0.2164 -0.9851  1.3094
10439TIP3   OH252731   3.756   1.157  11.700  0.2077  0.4969  0.2215
10439TIP3    H152732   3.773   1.119  11.614 -0.4962  2.4445 -0.8421
10439TIP3    H252733   3.826   1.123  11.756  0.9801 -0.4057 -1.2401
10440TIP3   OH252734   4.351   4.472  11.586  0.6124 -0.1690 -0.4277
10440TIP3    H152735   4.356   4.500  11.495 -1.4952  1.0344 -0.2353
10440TIP3    H252736   4.372   4.378  11.583  3.4455  0.3835 -1.6962
10441TIP3   OH252737   1.188   5.484  15.209 -0.3609  0.2128 -0.1625
10441TIP3    H152738   1.179   5.392  15.186 -0.8844  0.3349 -0.4552
10441TIP3    H252739   1.283   5.498  15.215 -0.2758 -0.3021 -0.2749
10442TIP3   OH252740   5.819   3.776  11.427 -0.1095  0.5003  0.2064
10442TIP3    H152741   5.777   3.739  11.505 -0.0680 -0.7358 -0.3339
10442TIP3    H252742   5.750   3.774  11.360 -0.4895  2.5907  0.4698
10443TIP3   OH252743   3.895   2.126  11.755 -0.4455  0.0920  0.5800
10443TIP3    H152744   3.935   2.072  11.687 -0.1533  0.3523  0.5460
10443TIP3    H252745   3.801   2.119  11.738 -0.4035 -0.3339  0.5207
10444TIP3   OH252746   4.514   6.253  12.120 -0.6442 -0.7432 -0.6892
10444TIP3    H152747   4.607   6.261  12.141 -0.3039  0.3663 -2.3565
10444TIP3    H252748   4.489   6.168  12.154  0.1535  0.1782  2.6139
10445TIP3   OH252749   1.240   4.069  13.922  0.2437  0.6108  0.0563
10445TIP3    H152750   1.177   4.099  13.987 -0.5813  0.1655 -0.5075
10445TIP3    H252751   1.189   4.066  13.840  0.5119 -1.4161 -0.0884
10446TIP3   OH252752   3.403   1.245  15.857  0.1180  0.7745  0.1324
10446TIP3    H152753   3.432   1.250  15.766  1.4882  2.0643  0.5878
10446TIP3    H252754   3.315   1.284  15.855  1.5714  4.5228 -0.1662
10447TIP3   OH252755   3.785   3.609   1.887  0.2297  0.6601  0.0503
10447TIP3    H152756   3.692   3.603   1.869  0.3015 -0.8592  0.0238
10447TIP3    H252757   3.824   3.638   1.805  0.0209 -1.2329 -0.7806
10448TIP3   OH252758   4.659   4.667  13.451  0.5829 -0.1950  0.1993
10448TIP3    H152759   4.634   4.598  13.388 -1.0805  0.4406  0.1292
10448TIP3    H252760   4.695   4.737  13.396  3.0999 -1.2556  0.3271
10449TIP3   OH252761   3.531   3.881   1.810 -0.0584 -0.0686  0.6336
10449TIP3    H152762   3.465   3.947   1.790  1.5249  1.5868  0.5923
10449TIP3    H252763   3.570   3.911   1.893  1.7424 -0.0580 -0.1774
10450TIP3   OH252764   3.694   6.669  12.796  0.3221  0.3207  0.0203
10450TIP3    H152765   3.621   6.674  12.735  0.6394  1.4856 -0.2940
10450TIP3    H252766   3.674   6.594  12.853 -0.9152  0.3994 -0.3022
10451TIP3   OH252767   1.917   5.968  16.521 -0.2632  0.1942  0.3876
10451TIP3    H152768   1.875   5.948  16.438 -0.2109  1.1570  0.1076
10451TIP3    H252769   1.993   5.910  16.525  0.4215  0.9655 -0.8223
10452TIP3   OH252770   5.330   3.848   0.270  0.5023 -0.0951 -0.0548
10452TIP3    H152771   5.368   3.773   0.223  0.7202  0.3446 -0.5990
10452TIP3    H252772   5.364   3.840   0.359  2.0027  0.3533 -0.5543
10453TIP3   OH252773   0.325   0.711  17.122  0.0899 -0.0630 -0.3215
10453TIP3    H152774   0.326   0.646  17.052 -0.2715 -0.2143 -0.1857
10453TIP3    H252775   0.264   0.677  17.186  1.8560 -0.8767  1.0093
10454TIP3   OH252776   2.173   0.443   1.027 -0.0072  0.4173 -0.1316
10454TIP3    H152777   2.168   0.538   1.014  0.6335  0.7330  1.6974
10454TIP3    H252778   2.168   0.431   1.122  2.5469 -1.1662 -0.0989
10455TIP3   OH252779   4.200   6.721   2.040  1.0464  0.5809  0.0466
10455TIP3    H152780   4.137   6.771   2.092  0.0237 -0.7675  0.1626
10455TIP3    H252781   4.234   6.784   1.977 -2.7111  0.8039 -2.1076
10456TIP3   OH252782   1.470   1.714   4.873 -0.5283 -0.2061  0.3218
10456TIP3    H152783   1.535   1.666   4.823 -2.0769 -0.8748 -1.1540
10456TIP3    H252784   1.406   1.648   4.900 -1.6333  0.6971  0.0232
10457TIP3   OH252785   6.745   2.969  11.737  0.3291 -0.3504  0.0216
10457TIP3    H152786   6.722   2.964  11.645  0.2905 -0.8106  0.0567
10457TIP3    H252787   6.811   3.039  11.742 -0.2532  0.2286 -0.2358
10458TIP3   OH252788   0.723   4.097   3.493  0.0014 -0.5471  0.4602
10458TIP3    H152789   0.654   4.163   3.480  0.2930 -0.4914 -0.9311
10458TIP3    H252790   0.711   4.067   3.583 -0.4710  1.0343  0.9524
10459TIP3   OH252791   5.540   2.091  13.358  0.5258 -0.3420 -0.0751
10459TIP3    H152792   5.462   2.119  13.405  1.0439  0.3769  0.3764
10459TIP3    H252793   5.520   2.001  13.329  0.5854 -1.2222  2.4023
10460TIP3   OH252794   3.828   5.137   2.059  0.7456 -0.4131  0.4102
10460TIP3    H152795   3.739   5.161   2.084  1.2541  1.9070  0.1398
10460TIP3    H252796   3.816   5.072   1.989 -0.6765 -1.4322  1.5215
10461TIP3   OH252797   6.283   6.266   6.043 -0.0139 -0.0953  0.0278
10461TIP3    H152798   6.350   6.332   6.027  1.0900 -1.1400  0.1926
10461TIP3    H252799   6.276   6.261   6.139 -0.8502  0.4884  0.0158
10462TIP3   OH252800   3.926   5.766   5.570 -0.3077 -0.4059  0.5983
10462TIP3    H152801   3.892   5.679   5.550 -1.5802 -0.0655  1.1828
10462TIP3    H252802   3.919   5.814   5.488 -2.2158 -0.0561  0.9216
10463TIP3   OH252803   3.410   4.757  14.684 -0.3574  0.2041  0.1119
10463TIP3    H152804   3.317   4.767  14.667 -0.7402  0.3096  2.0614
10463TIP3    H252805   3.415   4.712  14.768  1.3741 -1.1580 -0.6415
10464TIP3   OH252806   5.487   1.002   5.392 -0.0301 -0.2227 -0.4619
10464TIP3    H152807   5.573   1.015   5.433 -0.3273 -0.6295  0.3169
10464TIP3    H252808   5.427   1.054   5.445 -0.0760  1.1965 -1.8405
10465TIP3   OH252809   2.091   0.846   2.614 -0.1831  0.0317  0.1311
10465TIP3    H152810   2.086   0.865   2.521 -1.0732  0.0646  0.1765
10465TIP3    H252811   2.135   0.922   2.652  1.2452 -0.5013 -0.4044
10466TIP3   OH252812   6.417   1.530   4.257  0.5213 -0.2515  0.2829
10466TIP3    H152813   6.392   1.557   4.345  0.8094  1.3404 -0.0910
10466TIP3    H252814   6.353   1.572   4.200  0.1327 -1.5508 -0.2546
10467TIP3   OH252815   1.922   0.891  14.916  0.2676 -0.1686  0.0691
10467TIP3    H152816   2.011   0.919  14.937  0.6581 -0.3979 -1.1992
10467TIP3    H252817   1.931   0.797  14.900 -0.4340 -0.4266  1.0793
10468TIP3   OH252818   4.467   3.272   6.051 -0.3343  0.0043 -0.4295
10468TIP3    H152819   4.468   3.184   6.089 -0.4549  0.1244 -0.1479
10468TIP3    H252820   4.532   3.268   5.981  0.7459  0.1033  0.5366
10469TIP3   OH252821   4.901   0.432   1.768 -0.4121  0.0873  0.5823
10469TIP3    H152822   4.989   0.416   1.801 -0.2473 -1.1354 -0.3817
10469TIP3    H252823   4.859   0.346   1.766 -0.7798  0.2574 -1.2573
10470TIP3   OH252824   5.018   6.692  14.199  0.0253 -0.1202  0.7003
10470TIP3    H152825   5.037   6.628  14.267  0.1314  2.2014  3.0205
10470TIP3    H252826   5.020   6.777  14.244  1.0803  1.6806 -2.4087
10471TIP3   OH252827   3.936   2.932  14.915 -0.1034 -0.3029 -0.6119
10471TIP3    H152828   3.997   2.948  14.988  1.4696  0.7078 -2.0726
10471TIP3    H252829   3.961   2.996  14.849 -0.8828 -1.7632 -2.4013
10472TIP3   OH252830   3.242   6.243   2.601  0.1747  0.3427 -0.1059
10472TIP3    H152831   3.157   6.288   2.601 -0.6706 -1.0721 -2.9187
10472TIP3    H252832   3.283   6.269   2.518  1.1743 -1.3141 -0.1684
10473TIP3   OH252833   1.672   3.931  15.315 -0.0574 -0.2895  0.6885
10473TIP3    H152834   1.704   3.976  15.237 -1.0482 -0.9124 -0.0972
10473TIP3    H252835   1.618   3.859  15.281 -0.0744 -0.8939  1.9385
10474TIP3   OH252836   2.827   5.953  13.433  0.1239 -0.0667 -0.0371
10474TIP3    H152837   2.867   6.004  13.363  0.7081 -0.0011  0.3410
10474TIP3    H252838   2.897   5.940  13.497 -0.1288 -0.9883  0.0659
10475TIP3   OH252839   5.927   0.373   1.428  0.4995  0.1444 -0.4519
10475TIP3    H152840   5.936   0.463   1.459 -0.1383 -0.5735  1.9851
10475TIP3    H252841   5.833   0.363   1.411  0.4131 -0.3222  0.2410
10476TIP3   OH252842   1.410   5.986   0.476 -0.1362 -0.4219  0.9251
10476TIP3    H152843   1.432   5.899   0.445 -0.6575 -1.0643  2.2793
10476TIP3    H252844   1.448   5.991   0.564  0.9758  1.1954  0.4198
10477TIP3   OH252845   0.070   4.683   4.822  0.3279 -0.3165  0.2887
10477TIP3    H152846   0.123   4.613   4.861 -0.0198 -1.2114 -0.8118
10477TIP3    H252847   0.088   4.678   4.728 -1.9078 -0.8371 -0.1558
10478TIP3   OH252848   5.429   0.400  16.634  0.2143  0.0404 -0.0698
10478TIP3    H152849   5.453   0.352  16.713  0.4950  0.1977 -0.0586
10478TIP3    H252850   5.441   0.336  16.563 -1.4679 -0.5634  0.1497
10479TIP3   OH252851   0.344   6.086  14.542 -0.8974  0.0225  0.4541
10479TIP3    H152852   0.418   6.031  14.516 -0.6961  0.6953 -0.4787
10479TIP3    H252853   0.312   6.123  14.459 -0.0299  2.5142  1.1240
10480TIP3   OH252854   6.276   6.698   5.746 -0.3478  0.1163 -0.1629
10480TIP3    H152855   6.216   6.636   5.705  2.3224 -3.3347  0.6692
10480TIP3    H252856   6.331   6.729   5.674 -0.3424 -0.1430 -0.2704
10481TIP3   OH252857   5.287   0.184  11.573 -0.0191 -0.1533 -0.1519
10481TIP3    H152858   5.319   0.095  11.560  1.3139  0.3024 -0.0677
10481TIP3    H252859   5.319   0.233  11.497  0.2529  0.5108  0.3740
10482TIP3   OH252860   3.747   1.086   0.711 -0.7126 -0.6673 -0.2382
10482TIP3    H152861   3.807   1.159   0.694  1.1654 -1.4272  2.4238
10482TIP3    H252862   3.774   1.018   0.649  2.5031 -1.5787  1.8744
10483TIP3   OH252863   5.935   6.102   5.634 -0.7202  0.2398 -0.1388
10483TIP3    H152864   5.992   6.124   5.707  0.1846  0.8073 -0.9900
10483TIP3    H252865   5.849   6.138   5.658 -0.6902 -0.4123  1.0441
10484TIP3   OH252866   4.877   0.053   3.383  0.0071 -0.3471 -0.8231
10484TIP3    H152867   4.815   0.116   3.421 -0.4201 -0.7343 -0.8746
10484TIP3    H252868   4.859  -0.029   3.429  1.7879 -0.0252  0.5545
10485TIP3   OH252869   2.066   1.182  14.497 -0.0049 -0.3719  0.3690
10485TIP3    H152870   2.142   1.153  14.548  0.9468  1.7966  0.2898
10485TIP3    H252871   2.000   1.202  14.564 -0.1372 -1.2079  0.5012
10486TIP3   OH252872   2.642   4.461  12.165 -0.1081 -0.1452  0.4605
10486TIP3    H152873   2.714   4.401  12.182 -1.4263 -1.6018  1.1729
10486TIP3    H252874   2.635   4.513  12.244  0.9528  0.9094 -0.1074
10487TIP3   OH252875   5.655   1.704   4.214 -0.0750  0.3450  0.6333
10487TIP3    H152876   5.613   1.710   4.128 -1.5454  1.2345  1.3813
10487TIP3    H252877   5.672   1.795   4.239 -0.2550  0.1387  1.5495
10488TIP3   OH252878   0.971   1.933  12.930  0.5337  0.3648  0.7704
10488TIP3    H152879   0.911   1.979  12.871  1.3111  0.1026 -0.2591
10488TIP3    H252880   0.939   1.843  12.933 -0.0788  0.5996  1.5460
10489TIP3   OH252881   5.484   3.170  15.105 -0.0991  0.1513  0.3336
10489TIP3    H152882   5.468   3.263  15.086  1.6260  0.9731  2.5062
10489TIP3    H252883   5.550   3.144  15.040 -0.3725  0.5273 -0.1030
10490TIP3   OH252884   4.322   6.422   3.255 -0.5939  0.0580  0.1986
10490TIP3    H152885   4.335   6.460   3.342  0.5171 -0.3866  0.2477
10490TIP3    H252886   4.274   6.341   3.271  0.6286 -0.6207  0.5469
10491TIP3   OH252887   0.788   6.508   0.984  0.4105  0.5768  0.0694
10491TIP3    H152888   0.844   6.436   0.954 -0.1165 -0.4352  1.4176
10491TIP3    H252889   0.728   6.467   1.047 -1.5533  1.7045 -0.9493
10492TIP3   OH252890   0.601   4.139   1.240  0.3347 -0.3153 -0.3931
10492TIP3    H152891   0.633   4.201   1.305 -1.7680 -0.9748  1.3858
10492TIP3    H252892   0.638   4.169   1.157  1.8850  1.4420  0.8702
10493TIP3   OH252893   0.457   6.256   5.542 -0.4892 -0.1168 -0.0521
10493TIP3    H152894   0.393   6.316   5.506 -0.8950 -0.4916  0.0339
10493TIP3    H252895   0.426   6.238   5.631 -0.0686 -0.0194  0.1201
10494TIP3   OH252896   5.647   5.870  14.350  0.7946 -0.1434  0.4157
10494TIP3    H152897   5.742   5.872  14.353  0.7633  0.3331  1.6030
10494TIP3    H252898   5.621   5.816  14.425  0.1383 -0.9364 -0.3552
10495TIP3   OH252899   4.761   5.424  16.311 -0.3313 -0.1321 -0.3868
10495TIP3    H152900   4.751   5.332  16.287 -1.0168 -0.1375 -0.1114
10495TIP3    H252901   4.846   5.449  16.276 -0.7249 -0.4906 -1.6699
10496TIP3   OH252902   5.115   5.165  14.001  0.1171  0.2285 -0.1063
10496TIP3    H152903   5.101   5.216  14.080 -0.5852  0.9779 -0.6994
10496TIP3    H252904   5.181   5.213  13.952  0.9158 -0.4981  0.2433
10497TIP3   OH252905   5.987   4.023  13.586  0.1994  0.3771  0.3208
10497TIP3    H152906   5.993   4.045  13.679 -0.0928  0.1436  0.3975
10497TIP3    H252907   5.963   3.930  13.585  1.6567 -0.0213  0.0156
10498TIP3   OH252908   5.883   5.246  16.176 -0.5418  0.2452 -0.0751
10498TIP3    H152909   5.911   5.154  16.179 -0.7266  0.1803 -0.3339
10498TIP3    H252910   5.965   5.295  16.166  0.0592  0.4104  4.0225
10499TIP3   OH252911   2.890   0.064   6.162  0.2388  0.5685  0.2812
10499TIP3    H152912   2.809   0.113   6.149  0.0721 -0.0570 -1.3847
10499TIP3    H252913   2.935   0.071   6.078  0.0571 -2.2991 -0.1592
10500TIP3   OH252914   2.732   4.143   1.825  0.6063 -0.8368 -0.9943
10500TIP3    H152915   2.798   4.211   1.834 -0.7603  0.2923  1.2047
10500TIP3    H252916   2.774   4.076   1.770  2.8286  0.6811 -1.2704
10501TIP3   OH252917   4.407   0.205   2.545 -0.6920 -0.4363  0.2266
10501TIP3    H152918   4.456   0.255   2.611  0.9064 -1.0838 -0.4083
10501TIP3    H252919   4.323   0.186   2.587 -0.3943  0.6769  1.3918
10502TIP3   OH252920   4.012   5.331  12.224  0.0481 -0.2005 -0.4713
10502TIP3    H152921   4.015   5.317  12.319 -0.0267  1.4437 -0.1917
10502TIP3    H252922   4.046   5.419  12.212 -1.4902  0.2635 -1.8205
10503TIP3   OH252923   0.785   4.215   1.028 -0.4112 -0.3115 -0.1150
10503TIP3    H152924   0.698   4.221   0.988  0.3104  0.5908 -1.6291
10503TIP3    H252925   0.843   4.256   0.964  1.0161 -0.1346  1.2574
10504TIP3   OH252926   3.047   6.514  17.103  0.0410  0.2754 -0.0014
10504TIP3    H152927   3.093   6.440  17.064 -0.0929  0.8274 -1.2711
10504TIP3    H252928   3.069   6.589  17.046 -1.0107  0.8990  0.3720
10505TIP3   OH252929   1.877   2.252   3.109  0.2687  0.2619  0.2142
10505TIP3    H152930   1.815   2.324   3.119  2.0999  2.0870 -0.5661
10505TIP3    H252931   1.909   2.235   3.197  1.3350  1.9384  0.2044
10506TIP3   OH252932   1.457   5.325  16.957 -0.3751  0.9235 -0.2774
10506TIP3    H152933   1.470   5.324  16.862 -1.2390  3.4778 -0.4974
10506TIP3    H252934   1.367   5.358  16.968 -1.3681 -1.9907  1.4336
10507TIP3   OH252935   1.557   1.995   4.393  0.4256  0.3566  0.0565
10507TIP3    H152936   1.615   1.995   4.469  1.7572 -0.4992 -0.9251
10507TIP3    H252937   1.605   2.043   4.325  0.8887 -1.9606 -1.3794
10508TIP3   OH252938   2.317   3.542  16.505 -0.2931  0.2657 -0.1305
10508TIP3    H152939   2.387   3.608  16.505  1.6078 -1.5752 -1.9995
10508TIP3    H252940   2.306   3.519  16.597  1.6431  0.5868  0.2298
10509TIP3   OH252941   2.485   0.493  14.402  0.0092  0.1247 -0.4802
10509TIP3    H152942   2.499   0.469  14.311  2.1648  0.0476 -0.1844
10509TIP3    H252943   2.461   0.411  14.445 -0.9332  0.1463 -0.9436
10510TIP3   OH252944   3.801   5.852  15.832 -0.2415 -0.2812  0.1470
10510TIP3    H152945   3.863   5.803  15.886  0.7414 -0.5494 -1.1640
10510TIP3    H252946   3.856   5.906  15.775 -1.2209 -0.1199 -0.6843
10511TIP3   OH252947   0.457   4.445   4.404 -0.1475 -0.2143  0.2910
10511TIP3    H152948   0.499   4.382   4.347 -3.0381 -2.2150  0.1781
10511TIP3    H252949   0.436   4.519   4.347 -0.4981 -0.9937 -0.6168
10512TIP3   OH252950   3.642   4.751   4.391  0.4735 -0.2806 -0.1677
10512TIP3    H152951   3.566   4.711   4.350 -0.4311 -1.3161  2.3104
10512TIP3    H252952   3.707   4.682   4.394 -0.0231 -0.7300  1.4172
10513TIP3   OH252953   1.618   0.475  11.528 -0.0027  0.4911 -0.2610
10513TIP3    H152954   1.705   0.462  11.566 -0.1859 -0.2474 -0.0755
10513TIP3    H252955   1.584   0.387  11.516 -0.5544  0.7640 -0.7470
10514TIP3   OH252956   2.653   3.440   0.995  0.0786 -0.7091  0.5687
10514TIP3    H152957   2.617   3.527   1.013  2.4319 -0.0551  2.6476
10514TIP3    H252958   2.577   3.382   0.997 -1.2678  0.9806  1.4303
10515TIP3   OH252959   5.997   1.729   5.095 -0.0376  0.3923 -0.2825
10515TIP3    H152960   5.926   1.748   5.156  0.4932  2.1166 -0.1343
10515TIP3    H252961   5.968   1.651   5.048 -0.8484 -0.4654  1.5433
10516TIP3   OH252962   2.697   1.050   3.912 -0.2214  0.0713 -0.0124
10516TIP3    H152963   2.624   1.054   3.973  0.4935  2.4085  0.8058
10516TIP3    H252964   2.731   0.961   3.922 -2.0906 -0.6244  0.5857
10517TIP3   OH252965   1.959   3.927  17.035 -0.9421 -0.6779  0.5544
10517TIP3    H152966   2.025   3.857  17.031  0.4127  0.5742  0.2237
10517TIP3    H252967   1.877   3.881  17.055  0.2690 -2.1314  2.5653
10518TIP3   OH252968   2.112   0.269   5.132 -0.2000 -0.6243  0.0465
10518TIP3    H152969   2.144   0.296   5.218 -0.9120 -0.8594  0.3908
10518TIP3    H252970   2.134   0.342   5.075 -1.3317  0.3528  0.7935
10519TIP3   OH252971   1.141   5.692   0.361 -0.4373  0.3635 -0.5144
10519TIP3    H152972   1.158   5.601   0.339  0.4987  0.6494 -1.0630
10519TIP3    H252973   1.076   5.689   0.431  2.3498 -0.9405  2.2954
10520TIP3   OH252974   1.490   1.236   3.730 -1.2591 -0.5450  0.1175
10520TIP3    H152975   1.495   1.203   3.820 -1.4277 -1.3566 -0.1630
10520TIP3    H252976   1.464   1.327   3.739 -0.2871 -0.3441  0.9385
10521TIP3   OH252977   4.182   0.021  16.263  0.0457  0.1331 -0.3378
10521TIP3    H152978   4.108  -0.025  16.304 -0.0249 -1.0305 -1.6755
10521TIP3    H252979   4.144   0.100  16.226 -0.0658  0.7117  0.9601
10522TIP3   OH252980   2.671   3.351  13.085  0.1568 -0.3683 -0.3431
10522TIP3    H152981   2.735   3.376  13.019 -0.0417 -0.7786 -0.6957
10522TIP3    H252982   2.718   3.355  13.168  0.4072  0.1499 -0.5073
10523TIP3   OH252983   3.412   0.928   3.350 -0.4430  0.0217 -0.3089
10523TIP3    H152984   3.318   0.923   3.367 -0.2498  0.6624  1.1937
10523TIP3    H252985   3.446   0.978   3.424  0.8817  1.1121 -1.5940
10524TIP3   OH252986   2.662   4.312   5.194 -0.0383  0.4579 -0.3638
10524TIP3    H152987   2.570   4.287   5.198 -0.2816  1.3047 -0.4903
10524TIP3    H252988   2.710   4.229   5.194 -0.6456 -0.0411  3.0636
10525TIP3   OH252989   0.051   4.555  15.999  0.2784 -0.1279 -0.5632
10525TIP3    H152990   0.064   4.498  16.075  0.2584  1.2411  0.4938
10525TIP3    H252991   0.124   4.617  16.001 -0.2770  0.5630 -1.0783
10526TIP3   OH252992   2.275   5.891  11.860  0.2148 -0.3068 -0.4367
10526TIP3    H152993   2.325   5.971  11.873 -0.2585  0.0083 -0.5480
10526TIP3    H252994   2.332   5.821  11.893 -0.4794  0.3205  2.4197
10527TIP3   OH252995   1.960   6.549   3.397  0.0985  0.6199  0.0331
10527TIP3    H152996   1.919   6.590   3.321 -0.1488  0.6189  0.1633
10527TIP3    H252997   1.891   6.495   3.436 -0.0932  1.4096  0.8397
10528TIP3   OH252998   6.555   2.692   0.654 -0.1605  0.2056  0.3136
10528TIP3    H152999   6.641   2.651   0.643 -0.6280 -1.3149  1.9275
10528TIP3    H253000   6.509   2.636   0.716 -1.7066  1.9385  0.8235
10529TIP3   OH253001   2.700   2.537  14.133  0.2780 -0.2255 -0.1451
10529TIP3    H153002   2.682   2.550  14.226  2.8682 -0.7041  0.5027
10529TIP3    H253003   2.688   2.624  14.095 -1.6149 -0.1915  0.4429
10530TIP3   OH253004   1.382   5.163  13.227 -0.1176 -0.6235  0.4973
10530TIP3    H153005   1.358   5.130  13.140 -1.4821  0.6709  0.3461
10530TIP3    H253006   1.440   5.096  13.262  2.5579 -0.0661 -2.3720
10531TIP3   OH253007   5.150   0.977  16.595  0.2821  0.1954  0.1769
10531TIP3    H153008   5.231   0.965  16.546 -0.0708  0.4805 -0.4862
10531TIP3    H253009   5.115   0.888  16.604  0.5024  0.1080  0.1863
10532TIP3   OH253010   2.959   2.480   2.090 -0.1749 -0.1265  0.1266
10532TIP3    H153011   2.969   2.530   2.009  1.1087 -0.5580 -0.0001
10532TIP3    H253012   2.962   2.545   2.160 -1.8097  0.3064 -0.1681
10533TIP3   OH253013   5.618   6.655  11.282 -0.3925 -0.0774  0.7778
10533TIP3    H153014   5.626   6.715  11.208 -1.2424  0.7787  1.3553
10533TIP3    H253015   5.615   6.568  11.242  1.4314  0.1936 -0.0384
10534TIP3   OH253016   0.598   4.988  12.757 -0.4978 -0.2700  0.0718
10534TIP3    H153017   0.631   5.059  12.812 -1.5603  0.2007  0.1170
10534TIP3    H253018   0.552   4.930  12.818  1.1174 -1.5189  0.1938
10535TIP3   OH253019   3.070   1.405  12.252 -0.2647  0.0929 -0.1835
10535TIP3    H153020   3.061   1.348  12.328  0.8800 -2.2586 -1.6913
10535TIP3    H253021   3.016   1.364  12.184 -0.4141  1.5269 -0.9856
10536TIP3   OH253022   3.328   3.451   0.274 -0.0109  0.0206  0.2340
10536TIP3    H153023   3.311   3.358   0.258 -1.3583  0.0989  1.0860
10536TIP3    H253024   3.352   3.486   0.188  2.2144 -1.4276  0.1850
10537TIP3   OH253025   3.940   3.268   1.835  0.0341  0.2826 -0.3412
10537TIP3    H153026   3.955   3.296   1.925  1.1553  0.6364 -0.6132
10537TIP3    H253027   3.931   3.351   1.786  1.4369  0.1608 -0.8514
10538TIP3   OH253028   2.616   5.269  11.737 -0.0545 -0.2094 -0.1291
10538TIP3    H153029   2.710   5.258  11.746 -0.2777 -1.2977  1.1053
10538TIP3    H253030   2.580   5.243  11.822 -1.5575 -1.0733 -0.9783
10539TIP3   OH253031   3.443   2.030  16.165  0.3309  0.2563 -0.3162
10539TIP3    H153032   3.465   2.062  16.078 -0.1710 -0.9444 -0.9099
10539TIP3    H253033   3.349   2.045  16.173  0.4770  0.9009  0.2619
10540TIP3   OH253034   4.969   5.478  14.952 -0.4525  0.2055 -0.0340
10540TIP3    H153035   4.982   5.427  15.032 -0.3068  0.7645  0.3084
10540TIP3    H253036   4.895   5.436  14.908 -0.8652  0.1979  0.6520
10541TIP3   OH253037   1.995   5.453   3.709  0.1810  0.0801  0.6430
10541TIP3    H153038   1.915   5.452   3.761  0.9870  0.6287  1.9426
10541TIP3    H253039   1.997   5.541   3.671  0.9659  0.6544  1.9488
10542TIP3   OH253040   5.292   2.796  12.385  0.1949 -0.1795  0.1052
10542TIP3    H153041   5.211   2.753  12.409  0.2839  0.0472  0.8341
10542TIP3    H253042   5.359   2.727  12.389 -0.1359 -0.6650 -1.7248
10543TIP3   OH253043   1.176   5.697  17.051  0.6804 -0.4271 -0.4455
10543TIP3    H153044   1.088   5.733  17.054  0.8877  0.2029 -1.5442
10543TIP3    H253045   1.192   5.666  17.140 -0.5558 -0.3398 -0.1815
10544TIP3   OH253046   2.448   6.594   3.942  0.1869  0.2377  0.8526
10544TIP3    H153047   2.496   6.536   4.001 -0.3136 -0.2043  0.8383
10544TIP3    H253048   2.356   6.578   3.963 -0.0002  0.0685 -0.0568
10545TIP3   OH253049   1.526   5.859  15.705  0.1101  0.9102 -0.0057
10545TIP3    H153050   1.585   5.859  15.630  0.5902  2.0369  0.3430
10545TIP3    H253051   1.582   5.835  15.779 -0.3695 -0.2434  0.0027
10546TIP3   OH253052   0.670   2.971  13.482  0.0737  0.2366 -0.6843
10546TIP3    H153053   0.591   2.922  13.460 -0.5832  0.7219  0.4609
10546TIP3    H253054   0.742   2.911  13.466 -0.7975 -2.1373  3.1163
10547TIP3   OH253055   5.954   3.105  11.880  0.0131 -0.9162 -0.4116
10547TIP3    H153056   5.879   3.067  11.925  0.9572 -0.6219  1.5239
10547TIP3    H253057   6.017   3.034  11.873  1.0091 -0.2644  1.4340
10548TIP3   OH253058   0.451   5.399   2.903 -0.4828 -0.6547  0.0688
10548TIP3    H153059   0.446   5.492   2.883  0.4502 -0.3583  1.0756
10548TIP3    H253060   0.378   5.360   2.856 -0.1782  0.4011 -1.3436
10549TIP3   OH253061   2.957   5.099  12.211  0.3680  0.1972  0.3528
10549TIP3    H153062   2.962   5.192  12.234 -0.6551 -0.1724  2.2822
10549TIP3    H253063   2.866   5.076  12.228  0.3155 -0.9031 -1.2605
10550TIP3   OH253064   5.375   6.007   5.719  0.7242  0.0395 -0.5748
10550TIP3    H153065   5.415   6.091   5.739 -0.5082  0.2366  1.3010
10550TIP3    H253066   5.423   5.944   5.774  1.3143 -0.4385 -1.5994
10551TIP3   OH253067   2.951   5.301   4.937  0.1932  0.7740  0.1054
10551TIP3    H153068   2.953   5.361   5.012 -0.7886  0.4001  0.4413
10551TIP3    H253069   3.022   5.331   4.881  0.8452  1.1518  1.1141
10552TIP3   OH253070   3.718   2.423   6.701 -0.6010  0.7693 -0.6368
10552TIP3    H153071   3.624   2.414   6.682 -0.6002  1.4964 -1.0335
10552TIP3    H253072   3.745   2.499   6.650  0.0168  1.0821  0.1433
10553TIP3   OH253073   5.702   3.232  16.451  0.4769 -0.0402  0.3027
10553TIP3    H153074   5.721   3.307  16.394  1.3764  0.3309  1.0705
10553TIP3    H253075   5.697   3.269  16.539 -2.1667 -0.4063  0.3648
10554TIP3   OH253076   4.409   2.496   6.153  0.6978  0.0322  0.7099
10554TIP3    H153077   4.331   2.551   6.159  2.0085  1.8945  1.5352
10554TIP3    H253078   4.441   2.489   6.243  0.6096 -2.1062  0.6283
10555TIP3   OH253079   0.346   5.670   0.481 -0.2134 -0.0166 -0.5528
10555TIP3    H153080   0.425   5.690   0.532 -0.1425  0.2186 -0.7510
10555TIP3    H253081   0.373   5.598   0.424 -0.3621 -0.4399 -0.0956
10556TIP3   OH253082   5.649   5.427   1.621 -0.4903 -0.1163  0.1697
10556TIP3    H153083   5.572   5.418   1.677 -0.0805 -0.6220  0.6709
10556TIP3    H253084   5.617   5.468   1.541 -1.3509 -0.6585  0.2279
10557TIP3   OH253085   2.592   6.758  12.480  0.0321  0.0941 -1.0341
10557TIP3    H153086   2.501   6.730  12.485  0.1223 -0.1173 -0.4279
10557TIP3    H253087   2.640   6.680  12.453  0.2158 -0.2184  0.1288
10558TIP3   OH253088   4.854   2.636   3.796  0.7250 -0.1728 -0.8508
10558TIP3    H153089   4.931   2.692   3.801  0.5224  0.1249 -0.9952
10558TIP3    H253090   4.817   2.655   3.710 -0.7260  1.3125  0.0436
10559TIP3   OH253091   0.171   5.474   0.565 -0.7246  0.8116 -0.4065
10559TIP3    H153092   0.156   5.419   0.488 -2.2173  1.7207 -0.7943
10559TIP3    H253093   0.230   5.543   0.535  1.0843 -0.4490  0.0589
10560TIP3   OH253094   3.636   1.231  15.185 -0.6675 -0.0093 -0.0400
10560TIP3    H153095   3.561   1.216  15.243  0.6668 -2.1851  1.2510
10560TIP3    H253096   3.713   1.223  15.242  0.7433 -2.8093 -2.1090
10561TIP3   OH253097   2.754   6.608   3.223 -0.0025 -0.7405 -0.2736
10561TIP3    H153098   2.842   6.574   3.209  0.7037  0.4376  1.0209
10561TIP3    H253099   2.711   6.540   3.275 -0.0804 -1.5999 -1.4398
10562TIP3   OH253100   5.987   2.729  16.611 -0.3124 -1.5007 -0.1085
10562TIP3    H153101   5.990   2.804  16.551 -2.2789 -2.0127 -0.9355
10562TIP3    H253102   5.983   2.653  16.553 -0.9558 -2.0786  0.6702
10563TIP3   OH253103   1.377   4.392  16.349  0.2548 -0.0892 -0.5780
10563TIP3    H153104   1.363   4.347  16.432  0.0395  1.4108  0.2395
10563TIP3    H253105   1.386   4.484  16.373  0.2509  0.3733 -2.2208
10564TIP3   OH253106   6.588   4.344   3.994 -0.5493 -0.1804 -0.9590
10564TIP3    H153107   6.558   4.283   4.062 -1.2877 -0.4302 -1.4978
10564TIP3    H253108   6.680   4.358   4.014 -1.3887  2.1354  1.9496
10565TIP3   OH253109   3.018   3.549  14.898  0.0545 -0.4592 -0.2562
10565TIP3    H153110   3.003   3.532  14.991 -1.3110 -0.9731 -0.5512
10565TIP3    H253111   3.013   3.462  14.857 -1.0002 -0.0512 -1.0152
10566TIP3   OH253112   6.286   4.183   5.869 -0.5665 -0.8898  0.4034
10566TIP3    H153113   6.378   4.182   5.894 -0.6514  0.1012  0.8042
10566TIP3    H253114   6.240   4.143   5.943 -0.4173 -2.0166 -0.0830
10567TIP3   OH253115   3.669   0.160  11.224  0.1811  0.2035  0.0876
10567TIP3    H153116   3.748   0.211  11.243  0.6418  0.2910 -1.8952
10567TIP3    H253117   3.636   0.196  11.142 -1.7575 -0.0692  0.6815
10568TIP3   OH253118   0.146   0.608   2.455 -0.3702 -0.0815  0.3896
10568TIP3    H153119   0.178   0.586   2.543 -0.3358  1.1205  0.6891
10568TIP3    H253120   0.076   0.672   2.470 -0.1048  0.4219 -0.4788
10569TIP3   OH253121   4.574   4.325  14.603 -0.6365 -0.2459 -0.0454
10569TIP3    H153122   4.539   4.256  14.659 -1.9659  0.8897  0.5823
10569TIP3    H253123   4.605   4.392  14.664 -0.1766  0.1029 -0.6502
10570TIP3   OH253124   4.183   6.381   1.371  0.7305  0.2664 -0.0853
10570TIP3    H153125   4.213   6.451   1.430 -0.7385  0.2337  0.7357
10570TIP3    H253126   4.113   6.338   1.419  2.0623 -2.2709 -0.2573
10571TIP3   OH253127   2.353   0.326  13.085  0.1451  0.0286  0.0906
10571TIP3    H153128   2.355   0.289  12.997 -0.2070  0.9254 -0.3125
10571TIP3    H253129   2.402   0.408  13.078  0.5797 -0.1441  0.8679
10572TIP3   OH253130   0.225   4.227  13.200 -0.2680 -0.1890  0.2187
10572TIP3    H153131   0.248   4.254  13.111 -1.4840  0.6430  0.1271
10572TIP3    H253132   0.154   4.287  13.225  1.4016  0.9756  2.5272
10573TIP3   OH253133   1.946   2.097  11.796 -0.5398  0.1195  0.3476
10573TIP3    H153134   1.995   2.043  11.858  0.4249  0.5279 -0.0508
10573TIP3    H253135   1.869   2.125  11.845 -0.4977 -0.7043  0.9127
10574TIP3   OH253136   4.017   0.911  14.944  0.0613  0.0516 -0.1763
10574TIP3    H153137   4.087   0.856  14.907 -1.0401 -2.1628  0.8543
10574TIP3    H253138   3.965   0.851  14.998  0.0546  2.5349  2.9011
10575TIP3   OH253139   4.800   4.904  14.299  0.8748 -0.4828 -0.2690
10575TIP3    H153140   4.839   4.911  14.211  1.9247  1.2594  0.2702
10575TIP3    H253141   4.754   4.820  14.299  1.0916 -0.6509 -2.3831
10576TIP3   OH253142   6.101   5.873  16.856  0.2626 -0.5350  0.6223
10576TIP3    H153143   6.124   5.802  16.796  2.0806 -0.3546  1.0250
10576TIP3    H253144   6.177   5.932  16.853 -0.1940  0.1668  2.0530
10577TIP3   OH253145   5.088   3.117   0.263 -0.0581  0.2172 -0.3771
10577TIP3    H153146   5.012   3.064   0.240 -0.7890  0.8076  0.5944
10577TIP3    H253147   5.053   3.185   0.321  0.9783  1.2974 -0.9759
10578TIP3   OH253148   6.045   3.649  13.791  0.0007 -0.2494  0.2559
10578TIP3    H153149   6.041   3.557  13.816  0.5191 -0.9526 -2.0436
10578TIP3    H253150   6.138   3.672  13.797 -0.3198  0.7157  2.5735
10579TIP3   OH253151   3.607   2.554   1.020  0.2903  0.1353  0.3861
10579TIP3    H153152   3.527   2.604   1.036  0.6520  0.3645  1.5830
10579TIP3    H253153   3.649   2.597   0.945  0.8988  2.0323  1.7515
10580TIP3   OH253154   1.191   3.280  11.664  0.3143 -0.1386  0.0479
10580TIP3    H153155   1.221   3.224  11.593  0.6285 -1.4085  1.1519
10580TIP3    H253156   1.271   3.318  11.700  0.1608  0.4464 -0.2111
10581TIP3   OH253157   6.626   2.813  14.107  0.4157  0.3067  0.2444
10581TIP3    H153158   6.651   2.806  14.199  2.1208  0.4393 -0.1818
10581TIP3    H253159   6.556   2.877  14.106  0.8944  0.8692  1.3703
10582TIP3   OH253160   2.311   2.190  13.447 -0.0675  0.2785  0.0263
10582TIP3    H153161   2.240   2.244  13.482 -1.6948 -0.5743 -1.7877
10582TIP3    H253162   2.354   2.247  13.383  0.3628  0.5102  0.5139
10583TIP3   OH253163   6.126   1.442   2.943 -0.7088  0.3325  0.1582
10583TIP3    H153164   6.176   1.497   3.005 -2.5427  0.9582  1.1482
10583TIP3    H253165   6.091   1.504   2.879  1.7779 -0.3813 -2.0843
10584TIP3   OH253166   2.200   5.333  14.871 -0.0960 -0.1900 -0.6283
10584TIP3    H153167   2.162   5.391  14.937 -0.7029 -1.5537  0.2638
10584TIP3    H253168   2.147   5.350  14.792  0.6515  1.4616 -0.8260
10585TIP3   OH253169   2.653   1.442   3.954 -0.7300  0.2271  0.5705
10585TIP3    H153170   2.575   1.444   4.009 -0.3389  2.2659  1.1145
10585TIP3    H253171   2.624   1.478   3.870 -0.5232  0.4161  0.5791
10586TIP3   OH253172   5.252   0.530   0.942 -0.4419  1.1119 -0.0102
10586TIP3    H153173   5.164   0.552   0.973  0.0972  2.7815  0.4239
10586TIP3    H253174   5.287   0.473   1.010 -0.7441  1.4354  0.4227
10587TIP3   OH253175   0.306   5.781   5.644  0.3029 -0.2407  0.1300
10587TIP3    H153176   0.233   5.829   5.684 -0.9718 -0.0406 -2.2162
10587TIP3    H253177   0.266   5.700   5.612  1.8543 -1.6734  1.6059
10588TIP3   OH253178   4.472   0.788  11.662  0.0189 -0.3136  0.2893
10588TIP3    H153179   4.507   0.779  11.751 -0.5811  0.0315  0.5654
10588TIP3    H253180   4.508   0.713  11.615  2.4497  0.8754  0.0986
10589TIP3   OH253181   4.209   4.970   2.817  0.0383 -0.0494  0.2426
10589TIP3    H153182   4.220   5.023   2.896 -0.1957 -0.3923  0.5056
10589TIP3    H253183   4.116   4.979   2.795 -0.0792 -0.6427  0.4953
10590TIP3   OH253184   5.147   6.440  17.174  0.1995 -0.2120 -0.4885
10590TIP3    H153185   5.140   6.516  17.116 -1.0118  0.1502  0.0991
10590TIP3    H253186   5.060   6.432  17.213  1.4226  0.7319  2.7359
10591TIP3   OH253187   5.578   1.064   1.298  0.4335  0.4754  0.1601
10591TIP3    H153188   5.566   1.078   1.204 -0.8505 -0.7652  0.0984
10591TIP3    H253189   5.510   1.001   1.322  1.8572 -0.6424  1.5604
10592TIP3   OH253190   2.299   6.335  12.189 -0.1944  0.1755 -0.1211
10592TIP3    H153191   2.247   6.329  12.108  1.1292  1.7523 -1.1632
10592TIP3    H253192   2.241   6.380  12.251 -0.4187  1.0994 -0.9725
10593TIP3   OH253193   3.183   3.986  15.618 -0.5125  0.2763 -0.0604
10593TIP3    H153194   3.274   3.959  15.621  0.1807  2.1652 -2.0122
10593TIP3    H253195   3.136   3.917  15.665  2.1230  0.4424  3.1952
10594TIP3   OH253196   2.205   5.872   5.702  0.0587  0.5338  0.0423
10594TIP3    H153197   2.146   5.810   5.744 -0.8308  1.5018  0.2664
10594TIP3    H253198   2.272   5.889   5.767 -0.2504  0.5629  0.3569
10595TIP3   OH253199   5.211   6.269   2.811 -0.2899  0.1666 -0.3724
10595TIP3    H153200   5.193   6.262   2.717  0.8970 -1.9555 -0.5053
10595TIP3    H253201   5.126   6.284   2.851 -1.1330 -1.0278 -1.6348
10596TIP3   OH253202   4.419   0.565  14.254 -0.1508 -0.6423 -0.0505
10596TIP3    H153203   4.430   0.601  14.166  1.2475 -2.3987 -0.6836
10596TIP3    H253204   4.416   0.641  14.311  0.0857  0.5238 -1.5164
10597TIP3   OH253205   1.141   0.096  14.536 -0.1353 -0.2851  0.2755
10597TIP3    H153206   1.045   0.100  14.536 -0.1098  0.4751  0.2254
10597TIP3    H253207   1.165   0.110  14.628 -0.1052 -1.8162  0.5267
10598TIP3   OH253208   5.356   4.483   3.861 -0.2558  0.2708 -0.3434
10598TIP3    H153209   5.429   4.540   3.835 -1.4852  0.9266 -2.7395
10598TIP3    H253210   5.278   4.531   3.833 -1.5149 -1.2744  0.3495
10599TIP3   OH253211   0.967   3.245   1.096  0.2663 -0.3267 -0.1402
10599TIP3    H153212   0.988   3.270   1.186  1.3118  0.2765 -0.5288
10599TIP3    H253213   0.968   3.327   1.048 -0.8960 -0.5716 -0.6020
10600TIP3   OH253214   4.650   0.242  16.251 -0.2620 -0.5511  0.4120
10600TIP3    H153215   4.623   0.256  16.341 -0.8502  2.5062 -0.1386
10600TIP3    H253216   4.742   0.268  16.249  0.3231 -2.4741  0.4675
10601TIP3   OH253217   3.449   4.951  15.108 -0.0823  0.6338  0.0649
10601TIP3    H153218   3.444   5.046  15.099  0.7747  0.8653  1.6667
10601TIP3    H253219   3.375   4.927  15.164 -0.1998  0.3586 -0.1980
10602TIP3   OH253220   1.886   1.697  10.706  0.4279 -0.2581  0.2884
10602TIP3    H153221   1.793   1.699  10.686  0.3503  1.6799  0.6292
10602TIP3    H253222   1.930   1.707  10.621  0.2207  1.5366  0.3357
10603TIP3   OH253223   0.987   3.758  14.115  0.3323  0.1176  0.2475
10603TIP3    H153224   0.969   3.677  14.068 -1.1547  1.2008 -1.1656
10603TIP3    H253225   1.009   3.822  14.046  2.5464  0.7133  1.3877
10604TIP3   OH253226   1.103   1.615  12.205  0.3506  0.0211  0.1409
10604TIP3    H153227   1.033   1.550  12.202 -0.4579  0.8606  0.2994
10604TIP3    H253228   1.100   1.658  12.119 -0.2066  0.9472  0.6141
10605TIP3   OH253229   1.633   3.296  11.588 -0.8155 -0.1498  0.0818
10605TIP3    H153230   1.647   3.231  11.657  0.7767 -0.3417 -0.3825
10605TIP3    H253231   1.594   3.371  11.633  1.3300  0.2188  1.4870
10606TIP3   OH253232   5.110   5.096  13.649  0.0117 -0.2311 -0.3440
10606TIP3    H153233   5.061   5.022  13.613 -1.3735  0.2923  0.3845
10606TIP3    H253234   5.124   5.154  13.574 -0.3070 -0.4812 -0.6022
10607TIP3   OH253235   5.712   3.703   5.504 -0.1327  0.3173  0.1135
10607TIP3    H153236   5.659   3.685   5.582  1.5168 -3.0395  0.6355
10607TIP3    H253237   5.668   3.656   5.433 -0.1082  1.0097 -0.3684
10608TIP3   OH253238   0.656   2.897   1.357 -0.1602 -0.1892  0.1639
10608TIP3    H153239   0.594   2.831   1.387 -0.5952  0.3246  0.4022
10608TIP3    H253240   0.634   2.976   1.406 -1.1303  0.7886 -1.7418
10609TIP3   OH253241   1.607   2.050  14.986  0.1055 -0.3145 -0.1884
10609TIP3    H153242   1.626   2.135  14.948 -0.9298  1.0585  2.1746
10609TIP3    H253243   1.512   2.048  14.996  0.0220 -2.0981 -0.8924
10610TIP3   OH253244   3.127   0.113  13.350  0.1622 -0.2646  0.2612
10610TIP3    H153245   3.061   0.114  13.420 -1.1476  1.4315 -0.9127
10610TIP3    H253246   3.161   0.202  13.348  0.7090 -0.4851 -0.7923
10611TIP3   OH253247   1.118   6.625  14.337  0.1539  0.1800  0.2224
10611TIP3    H153248   1.210   6.622  14.362  0.3739  0.4740 -0.5383
10611TIP3    H253249   1.072   6.640  14.420  0.5209 -2.9350  1.1361
10612TIP3   OH253250   3.930   5.052  16.699  0.5380  0.5808 -0.2109
10612TIP3    H153251   3.929   5.147  16.685  1.2923  0.9105  1.6917
10612TIP3    H253252   4.009   5.022  16.655  1.5873  1.2171  1.1888
10613TIP3   OH253253   6.688   1.444   1.813 -0.7658 -0.2122  0.0571
10613TIP3    H153254   6.720   1.519   1.863 -1.8903 -1.2327  2.4451
10613TIP3    H253255   6.739   1.370   1.846 -0.6911 -0.7502 -1.2198
10614TIP3   OH253256   4.837   3.636  12.454 -0.5273  0.2899 -0.1791
10614TIP3    H153257   4.856   3.610  12.364 -2.5401 -0.9133 -0.3348
10614TIP3    H253258   4.921   3.664  12.490  0.0664  2.3852 -2.8844
10615TIP3   OH253259   5.452   6.187  11.806 -0.1993  0.6914 -0.2571
10615TIP3    H153260   5.397   6.223  11.876  0.1825  0.7991 -0.0113
10615TIP3    H253261   5.390   6.147  11.745 -0.6298  1.5708 -0.4246
10616TIP3   OH253262   0.878   3.069   3.325  0.0274 -0.6772 -0.5105
10616TIP3    H153263   0.827   2.992   3.299 -1.2205  0.5138 -1.7149
10616TIP3    H253264   0.965   3.053   3.289 -0.7470 -0.6684 -2.4894
10617TIP3   OH253265   5.525   3.813   2.298  0.1591  0.3854 -0.3412
10617TIP3    H153266   5.558   3.859   2.375  0.9988  1.3740 -1.2776
10617TIP3    H253267   5.569   3.853   2.224  0.0151 -1.1216 -1.2998
10618TIP3   OH253268   6.309   2.671  15.912 -0.0816  0.4247 -0.5043
10618TIP3    H153269   6.225   2.716  15.921 -0.3342 -0.2002  0.3942
10618TIP3    H253270   6.347   2.674  15.999  0.1794 -0.5381 -0.5749
10619TIP3   OH253271   2.684   4.707   3.781  0.2512  0.0805  0.3804
10619TIP3    H153272   2.618   4.768   3.747  0.4228 -0.1958 -0.4686
10619TIP3    H253273   2.681   4.719   3.876  0.1873  1.3189  0.2395
10620TIP3   OH253274   3.873   5.525  16.181 -0.8082  0.7524 -0.9615
10620TIP3    H153275   3.854   5.472  16.104  0.1827  0.0834 -0.7650
10620TIP3    H253276   3.815   5.491  16.249  0.6615 -0.9611 -0.4895
10621TIP3   OH253277   1.506   3.222  13.894 -0.0102  0.0239  0.1992
10621TIP3    H153278   1.436   3.194  13.953  0.4245 -0.7814  0.3493
10621TIP3    H253279   1.581   3.168  13.918  0.2102 -0.2404 -1.0221
10622TIP3   OH253280   3.584   1.422   5.120  0.4154  0.5508 -0.4813
10622TIP3    H153281   3.591   1.463   5.206 -0.0693 -0.7683  0.2248
10622TIP3    H253282   3.539   1.486   5.066 -1.4148  0.5416  0.9088
10623TIP3   OH253283   1.093   4.212  16.568 -0.3535  0.7741 -0.0743
10623TIP3    H153284   1.034   4.243  16.499 -0.5996  1.3843  0.4072
10623TIP3    H253285   1.049   4.134  16.603 -1.1729  1.5307  0.6536
10624TIP3   OH253286   4.106   0.592   4.805  0.0970 -0.2630 -0.5832
10624TIP3    H153287   4.156   0.673   4.808 -0.9329  0.4416 -1.6200
10624TIP3    H253288   4.171   0.524   4.786  1.2440  0.0161  1.9452
10625TIP3   OH253289   1.611   5.668   3.538 -0.1055 -0.1525 -0.1438
10625TIP3    H153290   1.561   5.627   3.608  1.1016 -0.3536  0.6201
10625TIP3    H253291   1.551   5.735   3.503 -1.1335 -0.8083  0.3119
10626TIP3   OH253292   6.379   5.941  10.854  0.0613  0.1230  0.1239
10626TIP3    H153293   6.396   5.849  10.834  0.1437  0.2591 -0.4549
10626TIP3    H253294   6.433   5.959  10.931 -0.9495 -0.6582  1.0549
10627TIP3   OH253295   5.617   3.562  15.478 -0.2638  0.5531 -0.2426
10627TIP3    H153296   5.585   3.520  15.398  1.3824 -0.4173 -0.4460
10627TIP3    H253297   5.546   3.551  15.541 -0.3658 -1.5907 -0.6328
10628TIP3   OH253298   2.301   5.771  14.431 -0.4210  0.7214 -0.0024
10628TIP3    H153299   2.251   5.851  14.449 -0.7921  0.4690  0.0988
10628TIP3    H253300   2.365   5.797  14.364 -0.0169  1.2970  0.5935
10629TIP3   OH253301   1.465   0.059  16.288 -0.1681 -1.0453 -0.6927
10629TIP3    H153302   1.417  -0.019  16.315  0.3266 -0.6921  1.3717
10629TIP3    H253303   1.550   0.027  16.259  0.1654 -1.2745  0.4907
10630TIP3   OH253304   6.604   0.645  12.742 -0.5227 -0.5052 -0.2401
10630TIP3    H153305   6.593   0.740  12.739  0.6144 -0.3488  0.1592
10630TIP3    H253306   6.639   0.628  12.829  0.4273 -1.1498 -0.7328
10631TIP3   OH253307   1.947   0.085  13.048  0.0113 -0.4407 -0.4371
10631TIP3    H153308   1.961   0.166  13.095  0.0152 -0.3253 -0.6350
10631TIP3    H253309   2.025   0.074  12.994 -0.5413  0.0829 -1.3647
10632TIP3   OH253310   3.550   2.599   0.047 -0.1028 -0.3796 -0.2823
10632TIP3    H153311   3.520   2.522   0.095  0.4185 -0.6572 -0.3899
10632TIP3    H253312   3.548   2.572  -0.045 -1.0600  0.1350 -0.4312
10633TIP3   OH253313   3.196   1.183   1.830  0.3957 -0.0403 -0.8926
10633TIP3    H153314   3.185   1.277   1.816 -0.2531 -0.1146 -0.9362
10633TIP3    H253315   3.135   1.142   1.768 -0.5526 -0.4396  0.2388
10634TIP3   OH253316   0.225   1.748   2.065 -0.2960  0.7028  0.5809
10634TIP3    H153317   0.195   1.766   1.976  1.6342  0.8121 -0.0968
10634TIP3    H253318   0.210   1.829   2.113 -2.0570  0.4013  0.5868
10635TIP3   OH253319   6.520   3.746   6.130 -0.1816  0.5020 -0.1355
10635TIP3    H153320   6.494   3.668   6.179  0.5507 -0.1602 -0.7639
10635TIP3    H253321   6.605   3.770   6.165 -1.4567  2.5816  1.8184
10636TIP3   OH253322   0.366   1.986   0.970  0.1810 -0.5034  0.0738
10636TIP3    H153323   0.304   2.020   1.035 -1.0237  0.1431 -1.3499
10636TIP3    H253324   0.442   2.043   0.977 -0.2155 -0.0117  0.4541
10637TIP3   OH253325   2.934   2.387  16.348  0.0848  0.1971  0.2052
10637TIP3    H153326   2.998   2.318  16.367  0.4943 -0.0767 -1.8894
10637TIP3    H253327   2.858   2.340  16.313 -0.9154  0.6059  1.7124
10638TIP3   OH253328   1.538   2.183  11.322  0.0993 -0.1586 -0.3783
10638TIP3    H153329   1.504   2.249  11.262  0.4569  1.0713  0.7335
10638TIP3    H253330   1.609   2.141  11.273 -1.1617 -0.8427 -1.6812
10639TIP3   OH253331   5.068   1.795   1.466 -0.1058 -0.0159  0.1179
10639TIP3    H153332   5.014   1.756   1.398  0.9389  0.2405 -0.8902
10639TIP3    H253333   5.142   1.834   1.419 -0.3598  1.9072  1.2016
10640TIP3   OH253334   5.808   0.016  12.470 -0.2060 -0.2299 -0.2084
10640TIP3    H153335   5.808  -0.003  12.376  3.3672  1.5365 -0.7611
10640TIP3    H253336   5.807   0.112  12.474  0.4355 -0.2645  1.4683
10641TIP3   OH253337   4.018   1.099  17.095 -0.4194 -0.0516  0.0312
10641TIP3    H153338   4.027   1.166  17.028  0.7295  0.0056  0.2295
10641TIP3    H253339   4.031   1.147  17.178 -3.4462  0.2196  0.4797
10642TIP3   OH253340   4.290   4.922  11.571  0.0730  0.5478 -0.5713
10642TIP3    H153341   4.268   4.835  11.605 -1.3006  1.9557  2.5585
10642TIP3    H253342   4.352   4.905  11.500  0.9235 -2.9231  0.7726
10643TIP3   OH253343   4.738   0.933   5.713  0.0223  0.0386 -0.1980
10643TIP3    H153344   4.662   0.978   5.678  0.3528  1.5642  0.9338
10643TIP3    H253345   4.770   0.991   5.783  1.0202 -1.5296  0.6990
10644TIP3   OH253346   4.806   0.177  11.517 -0.3226 -0.1294 -0.3289
10644TIP3    H153347   4.742   0.120  11.559 -0.0613 -0.8634 -0.9095
10644TIP3    H253348   4.879   0.181  11.579  0.3788 -1.8117 -1.0015
10645TIP3   OH253349   3.331   1.070   4.039  0.1792  0.0808 -0.9119
10645TIP3    H153350   3.253   1.037   4.085  0.2915  1.2543  0.1759
10645TIP3    H253351   3.391   1.096   4.109  0.7977  0.9092 -1.7245
10646TIP3   OH253352   0.281   6.123   6.578 -0.0904  0.0974  0.0522
10646TIP3    H153353   0.281   6.066   6.501 -1.2430  0.7287 -0.4349
10646TIP3    H253354   0.227   6.077   6.642 -1.1608  0.6899 -0.4005
10647TIP3   OH253355   0.525   4.972   2.398 -0.2337 -0.1336 -0.6305
10647TIP3    H153356   0.473   4.893   2.385 -0.8009  0.1545 -0.1372
10647TIP3    H253357   0.461   5.043   2.405  0.1671  0.0970  1.0007
10648TIP3   OH253358   3.378   4.887   2.915 -0.5721  0.1856  0.4694
10648TIP3    H153359   3.434   4.893   2.993  1.3718 -0.6989 -0.7638
10648TIP3    H253360   3.392   4.971   2.870 -1.4711  0.5810  0.9109
10649TIP3   OH253361   4.432   0.076   1.631 -0.2094 -0.0870  0.2121
10649TIP3    H153362   4.518   0.104   1.600 -0.3176  2.4918  1.9385
10649TIP3    H253363   4.393   0.033   1.556  1.9213  0.2249 -1.1704
10650TIP3   OH253364   0.530   3.316  14.753  0.1228 -0.1809 -0.0039
10650TIP3    H153365   0.602   3.264  14.719 -0.2595 -0.9205  0.2966
10650TIP3    H253366   0.572   3.381  14.810  0.5311 -0.8115  0.4289
10651TIP3   OH253367   2.661   2.167   6.375 -0.3485 -0.3352 -0.1284
10651TIP3    H153368   2.724   2.162   6.304 -3.1524 -1.9459 -2.7863
10651TIP3    H253369   2.608   2.244   6.356 -0.8772 -0.5363  0.4633
10652TIP3   OH253370   2.270   4.763  15.591 -0.2573  0.2951  0.1534
10652TIP3    H153371   2.319   4.748  15.672  0.6907 -0.7232 -0.5686
10652TIP3    H253372   2.230   4.849  15.602  2.0197  1.3759  0.6473
10653TIP3   OH253373   3.216   3.298   5.116 -0.1847  0.1498  0.2319
10653TIP3    H153374   3.232   3.342   5.200 -0.5927  0.5149  0.1205
10653TIP3    H253375   3.195   3.208   5.140 -1.6804  0.5767  0.6282
10654TIP3   OH253376   0.245   3.356   6.274 -0.3127 -0.2784  0.5474
10654TIP3    H153377   0.288   3.363   6.189 -1.6058 -2.1189 -0.3275
10654TIP3    H253378   0.293   3.287   6.320 -0.6507 -0.4419  0.6541
10655TIP3   OH253379   2.677   1.809  17.111 -0.0881 -0.2509 -0.0952
10655TIP3    H153380   2.765   1.791  17.078 -0.4058 -0.2062 -0.9843
10655TIP3    H253381   2.692   1.856  17.193  0.7494  1.5806 -1.2262
10656TIP3   OH253382   6.248   6.646   4.921  0.4506  0.1699  0.2555
10656TIP3    H153383   6.190   6.585   4.875  1.0613 -1.3171  1.3840
10656TIP3    H253384   6.193   6.686   4.988  0.5841 -0.9355  1.0580
10657TIP3   OH253385   2.767   1.759   2.174  0.1284  0.2458 -0.4235
10657TIP3    H153386   2.859   1.755   2.147 -0.6052 -1.5745 -2.9818
10657TIP3    H253387   2.725   1.685   2.129 -2.5501  0.8390  0.8995
10658TIP3   OH253388   4.307   5.021   1.028  0.5498 -0.1046 -0.1132
10658TIP3    H153389   4.278   5.050   1.114  0.1203 -0.7784 -0.0264
10658TIP3    H253390   4.320   4.927   1.038  1.0942 -0.0885 -0.6226
10659TIP3   OH253391   3.830   6.338  17.117  0.0351 -0.0221 -0.2547
10659TIP3    H153392   3.755   6.327  17.175  0.3897  2.4497  0.8314
10659TIP3    H253393   3.892   6.271  17.144  0.6889  1.7717  3.2318
10660TIP3   OH253394   4.495   0.383   1.901  0.3314  0.1404 -0.4105
10660TIP3    H153395   4.523   0.329   1.975 -0.3068  2.2574  1.4438
10660TIP3    H253396   4.565   0.448   1.891  0.9450 -0.7322 -2.4313
10661TIP3   OH253397   0.834   0.854  11.480  0.4760 -0.1208  0.6165
10661TIP3    H153398   0.914   0.812  11.513  0.2694 -1.3347 -0.3473
10661TIP3    H253399   0.767   0.831  11.545  0.0194 -2.7011 -0.6224
10662TIP3   OH253400   2.001   6.400  13.286 -0.1800 -0.0732  0.4081
10662TIP3    H153401   2.019   6.323  13.231  0.9344 -0.2801  1.0509
10662TIP3    H253402   2.035   6.474  13.235 -0.7768 -0.0513  0.0267
10663TIP3   OH253403   0.093   0.721   2.164  0.3693  0.0703 -1.0335
10663TIP3    H153404   0.124   0.806   2.195  0.8218 -0.3921 -0.1822
10663TIP3    H253405   0.118   0.660   2.233 -0.1824 -0.7179 -1.5169
10664TIP3   OH253406   2.164   0.934   3.006 -0.0715 -0.4233  0.6035
10664TIP3    H153407   2.221   0.997   2.961  0.6393 -2.5464 -1.7159
10664TIP3    H253408   2.076   0.954   2.974 -0.2956  1.0699  2.0211
10665TIP3   OH253409   5.502   3.099  13.589 -0.1803 -0.0728  0.0835
10665TIP3    H153410   5.471   3.013  13.562 -2.3948  1.2664 -2.0685
10665TIP3    H253411   5.543   3.136  13.511 -0.3994  1.2961  0.5826
10666TIP3   OH253412   6.273   1.514   4.960 -0.4445 -0.0796  0.2980
10666TIP3    H153413   6.188   1.477   4.983 -1.1683  2.0203  1.2725
10666TIP3    H253414   6.315   1.531   5.045  0.6979 -0.4969 -0.1626
10667TIP3   OH253415   3.397   1.656   1.812  0.1732  0.2175  0.4914
10667TIP3    H153416   3.451   1.735   1.816 -0.5646  0.6990  1.2205
10667TIP3    H253417   3.374   1.647   1.719  2.1371 -0.4589  0.0233
10668TIP3   OH253418   3.261   6.587  16.889 -0.1005  0.3482  0.2907
10668TIP3    H153419   3.243   6.495  16.906  1.0002  0.0573 -0.0390
10668TIP3    H253420   3.342   6.605  16.937 -0.2116  1.1026  0.2092
10669TIP3   OH253421   4.849   4.756  15.505 -0.2811 -0.0692 -0.2817
10669TIP3    H153422   4.878   4.717  15.422 -0.8515 -2.0303  0.4089
10669TIP3    H253423   4.926   4.751  15.562  0.2354  1.6394 -0.7526
10670TIP3   OH253424   5.534   0.237   0.646 -0.2769 -0.4485 -0.0052
10670TIP3    H153425   5.577   0.274   0.569 -2.0289  2.0605  0.0732
10670TIP3    H253426   5.535   0.308   0.710 -3.7405 -0.4369  0.2316
10671TIP3   OH253427   2.337   4.025  12.040 -0.1816 -0.1072  0.0701
10671TIP3    H153428   2.257   4.055  11.997 -0.3809 -1.2504 -0.3812
10671TIP3    H253429   2.359   4.096  12.100  0.4064  1.8291 -2.2392
10672TIP3   OH253430   1.991   0.792  14.614 -0.3194 -0.0637  0.0410
10672TIP3    H153431   1.940   0.715  14.643  0.2716 -0.2616  0.5942
10672TIP3    H253432   1.944   0.867  14.651  0.3951 -0.3117  1.5473
10673TIP3   OH253433   1.725   3.394   5.718  0.1264 -0.0155  0.0104
10673TIP3    H153434   1.667   3.454   5.766  0.2006  0.7771 -0.8554
10673TIP3    H253435   1.788   3.452   5.675  0.8169 -0.7976 -0.0437
10674TIP3   OH253436   4.281   2.228  16.502 -0.6243  0.1156 -0.1163
10674TIP3    H153437   4.230   2.256  16.578 -0.4315 -1.0291  0.4664
10674TIP3    H253438   4.219   2.181  16.447 -0.8952  1.4236 -0.9780
10675TIP3   OH253439   0.773   3.933  11.489  0.0136  0.3558  0.0137
10675TIP3    H153440   0.743   3.847  11.457  0.7149 -0.4859  1.4968
10675TIP3    H253441   0.751   3.933  11.582  2.4161  0.6370  0.6607
10676TIP3   OH253442   3.296   3.494   3.692 -0.0812  0.6096 -0.2414
10676TIP3    H153443   3.342   3.556   3.636  0.8408  0.8012  0.6816
10676TIP3    H253444   3.365   3.453   3.744 -0.6756 -1.1543 -0.7703
10677TIP3   OH253445   1.556   3.859   3.983  0.1652 -0.0370 -0.0908
10677TIP3    H153446   1.485   3.923   3.988  1.3632  1.5040 -1.4988
10677TIP3    H253447   1.582   3.844   4.074 -1.8216 -0.5263  0.4363
10678TIP3   OH253448   2.883   4.101   5.958 -0.1372 -0.1987 -0.8008
10678TIP3    H153449   2.864   4.043   5.885  1.3915  0.4371 -1.7628
10678TIP3    H253450   2.828   4.178   5.942  0.7877  0.2968 -1.8054
10679TIP3   OH253451   0.862   5.485  11.678  0.3297  0.3130  0.0110
10679TIP3    H153452   0.810   5.564  11.691 -0.5603 -0.1213 -0.8032
10679TIP3    H253453   0.834   5.426  11.748 -1.8710 -0.7083 -1.6413
10680TIP3   OH253454   6.029   2.585  14.174 -0.3870  0.1354 -0.0672
10680TIP3    H153455   6.006   2.492  14.180 -2.2776  0.6086  1.0772
10680TIP3    H253456   6.080   2.601  14.254 -0.4336  0.1672 -0.0447
10681TIP3   OH253457   2.869   2.983   2.009  0.2209 -0.2859  0.1909
10681TIP3    H153458   2.928   2.915   1.978  0.5262 -0.7545  1.7212
10681TIP3    H253459   2.863   3.044   1.935  1.5586 -0.9085 -0.4785
10682TIP3   OH253460   5.391   6.543   3.221  0.8502  0.2731  0.4105
10682TIP3    H153461   5.319   6.605   3.229  2.0566  1.8587 -0.3548
10682TIP3    H253462   5.437   6.549   3.305  0.4936 -0.2277  0.6459
10683TIP3   OH253463   6.524   2.142   5.247  0.6255 -0.0474 -0.1893
10683TIP3    H153464   6.440   2.188   5.250 -0.0317 -1.0787 -1.4820
10683TIP3    H253465   6.548   2.129   5.339 -0.1628  1.0698  0.1971
10684TIP3   OH253466   0.924   0.819  16.587  0.6545 -0.1822  0.2481
10684TIP3    H153467   0.893   0.776  16.666  0.4759 -0.4173  0.0518
10684TIP3    H253468   1.007   0.858  16.612  1.5901 -1.9234  0.0417
10685TIP3   OH253469   3.598   4.402  11.741 -0.8187  0.6902  0.1307
10685TIP3    H153470   3.564   4.490  11.758  0.3506  1.1782  0.0339
10685TIP3    H253471   3.527   4.357  11.696 -2.4963  0.6608  2.6253
10686TIP3   OH253472   2.433   0.400  12.116 -0.0511 -0.2360  0.0423
10686TIP3    H153473   2.407   0.471  12.058 -0.1865 -0.7400 -0.5329
10686TIP3    H253474   2.459   0.443  12.198 -1.2857  0.3932  0.1295
10687TIP3   OH253475   1.196   4.658   5.998 -0.1667 -0.9919 -0.2391
10687TIP3    H153476   1.270   4.645   6.057 -0.5647  2.1283  1.1294
10687TIP3    H253477   1.187   4.753   5.991 -2.8587 -1.2675 -1.8947
10688TIP3   OH253478   3.774   2.760   4.268 -0.5740 -0.2209  0.1471
10688TIP3    H153479   3.801   2.670   4.286 -1.5469 -0.2160  1.8157
10688TIP3    H253480   3.844   2.796   4.212 -0.4420 -2.1501 -1.0226
10689TIP3   OH253481   1.437   5.734   0.412  0.1911 -0.1836  0.3093
10689TIP3    H153482   1.459   5.680   0.336  1.4322 -1.0375  1.2251
10689TIP3    H253483   1.342   5.726   0.420  0.1584 -0.8615 -0.5752
10690TIP3   OH253484   5.793   0.933  12.605  0.5792  0.3311  0.3411
10690TIP3    H153485   5.781   0.843  12.573  0.5776  0.6549 -0.6018
10690TIP3    H253486   5.881   0.957  12.576  0.5764  0.6346  0.5884
10691TIP3   OH253487   1.618   1.327   0.875 -0.2442  0.6234 -0.1731
10691TIP3    H153488   1.661   1.354   0.956  1.1120  1.1029 -1.0161
10691TIP3    H253489   1.557   1.259   0.902 -0.8147  1.7065  1.4389
10692TIP3   OH253490   0.771   4.554  14.182 -0.6469  0.0016 -0.0205
10692TIP3    H153491   0.745   4.464  14.163 -0.3421 -0.2931  0.8750
10692TIP3    H253492   0.706   4.584  14.246  0.0132 -0.0514  0.6914
10693TIP3   OH253493   3.230   1.759  11.671 -0.1331  0.5345  0.4010
10693TIP3    H153494   3.239   1.692  11.739 -0.0533 -0.9022 -0.9574
10693TIP3    H253495   3.257   1.714  11.590  0.2890  2.3389 -0.4973
10694TIP3   OH253496   0.086   3.603  13.022  0.3526 -0.0094  0.2002
10694TIP3    H153497   0.023   3.668  12.992  0.7817  1.0634  1.5404
10694TIP3    H253498   0.037   3.549  13.085  0.2516 -0.4077 -0.2149
10695TIP3   OH253499   5.541   0.020   3.118  0.3685  0.3694  0.1780
10695TIP3    H153500   5.612   0.049   3.176  1.0035 -1.4340  0.3540
10695TIP3    H253501   5.521  -0.069   3.146 -0.2450 -0.0660 -1.4948
10696TIP3   OH253502   0.690   3.563   0.502 -0.2183  0.3292  0.1255
10696TIP3    H153503   0.660   3.529   0.418 -0.1887  1.5320 -0.4007
10696TIP3    H253504   0.612   3.604   0.540  0.3309  2.0085 -0.4871
10697TIP3   OH253505   3.461   6.108   6.195 -0.3109 -0.3066 -0.2713
10697TIP3    H153506   3.380   6.155   6.219 -0.3476 -0.7414  0.4826
10697TIP3    H253507   3.447   6.019   6.228  0.7798 -0.1923  0.5320
10698TIP3   OH253508   2.079   6.150   0.572  0.1458  0.1979 -0.2255
10698TIP3    H153509   1.993   6.144   0.613  0.4686  0.0530  0.4433
10698TIP3    H253510   2.060   6.159   0.479 -0.5981  0.4824 -0.0550
10699TIP3   OH253511   0.347   3.609  11.279  0.1513 -0.1281 -0.3242
10699TIP3    H153512   0.434   3.649  11.268  0.2243 -0.6190 -1.7730
10699TIP3    H253513   0.290   3.660  11.221 -0.0888 -1.0872 -0.9577
10700TIP3   OH253514   1.673   4.765  12.166 -1.0844 -0.3958  0.1798
10700TIP3    H153515   1.718   4.681  12.162 -1.7005 -0.8330  1.5905
10700TIP3    H253516   1.691   4.797  12.254 -1.7835  0.4098  0.0419
10701TIP3   OH253517   1.698   1.370   4.310  0.0762 -0.3398  0.3597
10701TIP3    H153518   1.608   1.376   4.344 -1.1468  1.5334 -2.7640
10701TIP3    H253519   1.717   1.276   4.309 -2.3755 -0.9016 -0.0073
10702TIP3   OH253520   1.564   1.998  14.408  0.3569  0.3978 -0.2554
10702TIP3    H153521   1.641   2.050  14.432  2.7119 -1.7609 -2.4628
10702TIP3    H253522   1.534   2.039  14.326  1.5742 -0.9309 -1.4275
10703TIP3   OH253523   4.927   0.236  16.886 -0.4334 -0.3700 -0.1501
10703TIP3    H153524   4.990   0.269  16.822 -1.0633 -0.6494 -0.9326
10703TIP3    H253525   4.964   0.153  16.916  0.1527  0.0503  0.2920
10704TIP3   OH253526   2.005   5.762  14.310 -0.0940  0.1593 -0.3661
10704TIP3    H153527   2.061   5.685  14.301 -2.1755 -1.2804 -1.9166
10704TIP3    H253528   1.994   5.795  14.221 -0.5681  1.2916  0.0878
10705TIP3   OH253529   5.841   4.943   0.481 -0.2796  0.0802 -0.0386
10705TIP3    H153530   5.766   4.887   0.501  0.1449 -0.4180  0.1800
10705TIP3    H253531   5.818   4.985   0.398 -0.6400 -0.3564 -0.1649
10706TIP3   OH253532   1.247   2.840  17.170  0.5151 -0.4953  0.1680
10706TIP3    H153533   1.273   2.748  17.168 -0.9975 -0.9619  0.4906
10706TIP3    H253534   1.299   2.878  17.241  0.8793 -1.1917  0.2810
10707TIP3   OH253535   5.722   3.547  13.272 -0.0675  0.4998  0.2314
10707TIP3    H153536   5.647   3.598  13.242 -0.5514 -0.9881 -1.2239
10707TIP3    H253537   5.797   3.605  13.258 -0.6757  1.0832 -0.7378
10708TIP3   OH253538   2.494   1.763   4.039 -0.2514 -0.3514 -0.1158
10708TIP3    H153539   2.507   1.828   4.108 -1.6398 -0.5155  0.3267
10708TIP3    H253540   2.567   1.777   3.978  0.5155  0.3540  0.9440
10709TIP3   OH253541   1.342   3.180  16.257  0.2287 -0.3450 -0.2588
10709TIP3    H153542   1.427   3.215  16.284  0.7220 -0.1959 -1.8770
10709TIP3    H253543   1.283   3.199  16.330  1.3013  0.7226  0.3541
10710TIP3   OH253544   6.326   3.514   1.193 -0.1257  0.2662 -0.3419
10710TIP3    H153545   6.397   3.568   1.160  1.4317 -1.8466 -0.6623
10710TIP3    H253546   6.364   3.468   1.267 -1.3751 -0.4126 -0.1007
10711TIP3   OH253547   2.513   3.707   0.144 -0.3616  0.1845 -0.3335
10711TIP3    H153548   2.497   3.613   0.152 -2.6640  0.2988 -2.2971
10711TIP3    H253549   2.563   3.729   0.222 -0.3998 -2.5238  0.5879
10712TIP3   OH253550   3.185   1.607   3.346  0.1829 -0.0283 -0.1796
10712TIP3    H153551   3.266   1.557   3.354  1.1863  1.6714  0.7127
10712TIP3    H253552   3.209   1.697   3.366 -1.9469  0.5300  0.1772
10713TIP3   OH253553   4.275   2.086   1.445 -0.0521  0.0697 -0.0513
10713TIP3    H153554   4.358   2.060   1.486 -0.2185  0.0210  0.2561
10713TIP3    H253555   4.243   2.007   1.403 -0.5708 -0.2479  0.9060
10714TIP3   OH253556   0.280   1.459   1.332  0.0528 -0.1176  0.8888
10714TIP3    H153557   0.287   1.370   1.299  1.6669 -0.3726  1.8331
10714TIP3    H253558   0.347   1.465   1.400 -0.1471  1.7687  0.9689
10715TIP3   OH253559   4.562   6.585  15.045 -0.4578  0.0662 -0.3057
10715TIP3    H153560   4.514   6.664  15.070 -0.3631 -0.2212  0.8424
10715TIP3    H253561   4.506   6.513  15.073  1.2434 -0.2951  2.4733
10716TIP3   OH253562   4.718   6.346  15.326 -0.2961 -0.0917  0.1926
10716TIP3    H153563   4.756   6.265  15.291 -0.9014  0.0731 -0.8780
10716TIP3    H253564   4.794   6.397  15.355  0.1035 -0.9778  0.7646
10717TIP3   OH253565   2.208   6.758   3.844  0.1913  0.7990 -0.3754
10717TIP3    H153566   2.223   6.729   3.754  1.5255 -1.3930  0.4701
10717TIP3    H253567   2.285   6.811   3.865  0.9823 -0.4931  0.1188
10718TIP3   OH253568   2.639   3.255   1.951 -0.3668  0.4817 -0.2323
10718TIP3    H153569   2.733   3.269   1.962 -0.7401  1.5992  2.6172
10718TIP3    H253570   2.602   3.343   1.958 -1.6870 -0.0484 -0.3918
10719TIP3   OH253571   3.952   5.743  14.804 -0.0344  0.7775 -0.1542
10719TIP3    H153572   3.866   5.784  14.792 -0.1779  0.7182  0.6455
10719TIP3    H253573   3.933   5.650  14.816  0.3617  0.2044 -3.1633
10720TIP3   OH253574   2.756   0.877   4.429 -0.3887  0.2281 -0.6030
10720TIP3    H153575   2.833   0.900   4.480 -1.1485  0.7278  0.3645
10720TIP3    H253576   2.701   0.826   4.489 -1.6728  1.5175 -0.6054
10721TIP3   OH253577   1.239   1.729   0.133 -0.4563 -0.0383 -0.1895
10721TIP3    H153578   1.247   1.824   0.143 -1.1910  0.0396 -0.2956
10721TIP3    H253579   1.145   1.712   0.145 -0.2289 -0.8282  0.5217
10722TIP3   OH253580   2.695   4.819   0.327  0.2634 -0.3293  0.1124
10722TIP3    H153581   2.698   4.752   0.258  1.3487  0.0192 -0.2030
10722TIP3    H253582   2.778   4.809   0.373  0.2469  0.5057  0.3379
10723TIP3   OH253583   3.512   5.096   2.825  0.1362 -0.4565 -0.2675
10723TIP3    H153584   3.530   5.173   2.879  0.9886  0.4067 -1.6822
10723TIP3    H253585   3.490   5.133   2.739 -1.2150 -1.7677 -0.5115
10724TIP3   OH253586   1.518   6.015  12.772 -0.0039  0.1802 -0.2067
10724TIP3    H153587   1.449   6.078  12.752  1.4823  1.4676 -1.5148
10724TIP3    H253588   1.475   5.949  12.828 -1.8410  1.8275  0.4313
10725TIP3   OH253589   3.669   2.874  13.109 -0.7285  0.7471 -0.5399
10725TIP3    H153590   3.755   2.849  13.075  0.5499  2.0392  1.5385
10725TIP3    H253591   3.639   2.797  13.157  0.1969  0.9212  0.3598
10726TIP3   OH253592   4.582   0.919  12.437  0.1311  0.2112 -0.1555
10726TIP3    H153593   4.636   0.869  12.376  0.6827  1.4110 -0.6896
10726TIP3    H253594   4.549   0.993  12.385 -0.0308  0.8206  0.7882
10727TIP3   OH253595   6.306   1.181  14.814  0.3257 -0.1159  0.0556
10727TIP3    H153596   6.360   1.144  14.883  0.1965  2.0437  1.3994
10727TIP3    H253597   6.277   1.105  14.763  2.4332 -1.5526  0.8524
10728TIP3   OH253598   3.675   4.557   1.563  0.4403 -0.1842  0.1982
10728TIP3    H153599   3.619   4.530   1.490 -2.4655  1.1234  1.7629
10728TIP3    H253600   3.695   4.477   1.611 -1.5782 -0.5300  0.5170
10729TIP3   OH253601   2.678   3.721  12.630  0.1145  0.0297  0.6143
10729TIP3    H153602   2.629   3.801  12.613  0.2108  0.3291  1.6595
10729TIP3    H253603   2.765   3.738  12.596 -0.9493 -1.2836 -3.2427
10730TIP3   OH253604   2.451   4.517  15.560 -0.2777 -0.9801 -0.1073
10730TIP3    H153605   2.475   4.516  15.652 -1.5533 -0.1130  0.2763
10730TIP3    H253606   2.395   4.595  15.551  1.0927 -0.1330 -1.9586
10731TIP3   OH253607   3.052   4.153  17.011  0.0582 -0.8433  0.1891
10731TIP3    H153608   3.084   4.068  17.039  0.2555 -1.2035 -1.0606
10731TIP3    H253609   3.013   4.192  17.089 -0.0645 -2.0915  0.7610
10732TIP3   OH253610   3.141   5.861   6.362 -0.7982 -0.2046 -0.1466
10732TIP3    H153611   3.234   5.855   6.341 -0.7584 -1.9475  0.3819
10732TIP3    H253612   3.105   5.777   6.335 -2.4028  0.7360 -1.0900
10733TIP3   OH253613   0.532   6.293  11.387 -0.1999  0.0994 -0.2176
10733TIP3    H153614   0.560   6.252  11.305  2.5295  2.0008 -0.3529
10733TIP3    H253615   0.482   6.370  11.360 -0.4363  0.0075 -0.0486
10734TIP3   OH253616   5.353   2.236   2.443 -0.3886  0.4441  0.0754
10734TIP3    H153617   5.354   2.160   2.386  0.1625  0.6594 -0.2102
10734TIP3    H253618   5.375   2.309   2.386  0.2728  0.6500  0.5770
10735TIP3   OH253619   2.658   2.629  12.081 -0.4922 -0.0933  0.2837
10735TIP3    H153620   2.732   2.670  12.037  0.4868 -1.2914  0.7615
10735TIP3    H253621   2.617   2.575  12.014 -0.3374 -0.2008  0.2766
10736TIP3   OH253622   2.330   1.756   5.447 -0.1827  0.7431  0.2663
10736TIP3    H153623   2.268   1.683   5.454  1.3491 -0.8645 -1.5354
10736TIP3    H253624   2.410   1.723   5.488  0.4120  1.5815 -0.1968
10737TIP3   OH253625   4.471   6.742  16.429  0.3706 -0.1059  0.0128
10737TIP3    H153626   4.519   6.769  16.350 -1.4278 -0.2590 -1.2028
10737TIP3    H253627   4.389   6.705  16.395 -0.7863  0.5126  1.9921
10738TIP3   OH253628   2.967   4.483  13.601  0.0536 -0.0744  0.0077
10738TIP3    H153629   2.904   4.440  13.659  0.0606  0.7676  0.6625
10738TIP3    H253630   3.051   4.471  13.644  0.0230  0.7920  0.3366
10739TIP3   OH253631   2.863   5.533  11.648  0.3342 -0.0379 -0.3913
10739TIP3    H153632   2.955   5.552  11.633  0.5773 -1.6302 -1.0947
10739TIP3    H253633   2.845   5.456  11.594 -1.4340  0.2904 -0.3297
10740TIP3   OH253634   0.341   6.447  10.914 -0.0569  0.2099  0.2644
10740TIP3    H153635   0.337   6.421  10.822 -3.0198 -0.3690  0.4500
10740TIP3    H253636   0.434   6.463  10.931  0.7821 -1.3498 -2.3369
10741TIP3   OH253637   0.057   6.603  10.999  0.0896 -0.1096  0.8416
10741TIP3    H153638   0.135   6.554  10.972  0.3324  0.9380 -0.5016
10741TIP3    H253639   0.092   6.680  11.044 -0.2948 -1.3245  3.3498
10742TIP3   OH253640   1.531   1.010   4.377  0.2769  0.1902  0.3130
10742TIP3    H153641   1.469   0.996   4.448  0.4238 -0.3202  0.3459
10742TIP3    H253642   1.491   0.964   4.302  0.6352 -0.1845  0.3494
10743TIP3   OH253643   5.964   4.447  12.100 -0.1180 -0.0064  0.0959
10743TIP3    H153644   5.996   4.370  12.053  0.6128 -0.4064  1.2032
10743TIP3    H253645   5.891   4.479  12.047  0.9714 -0.1380 -1.5446
10744TIP3   OH253646   1.112   0.497   4.481 -0.0709  0.5341  0.1666
10744TIP3    H153647   1.054   0.460   4.547 -0.3964 -0.4354 -0.6304
10744TIP3    H253648   1.064   0.486   4.399  1.7800 -1.6985 -0.7437
10745TIP3   OH253649   5.964   4.232  16.549  0.2615 -0.0932 -0.0877
10745TIP3    H153650   6.039   4.184  16.513 -0.0638  1.0153 -2.4433
10745TIP3    H253651   5.891   4.172  16.542  0.2031  0.0988 -1.4110
10746TIP3   OH253652   4.989   5.735  14.645 -0.3263 -0.0091  0.4092
10746TIP3    H153653   4.984   5.639  14.642 -2.7723  0.0792 -0.8907
10746TIP3    H253654   4.900   5.763  14.666  0.3769  2.0169  0.9327
10747TIP3   OH253655   5.900   3.337   1.774 -0.0978 -0.1875 -0.1048
10747TIP3    H153656   5.950   3.277   1.719  0.7139 -0.9147  1.3629
10747TIP3    H253657   5.897   3.295   1.859  0.3756  1.7911  0.9594
10748TIP3   OH253658   6.085   4.874   5.658 -0.1867 -0.6141  0.0024
10748TIP3    H153659   6.035   4.873   5.739 -0.1839  0.0718  0.0257
10748TIP3    H253660   6.152   4.941   5.672 -0.3051 -0.3496 -0.6308
10749TIP3   OH253661   4.117   2.735   5.260  0.5303 -0.3588  0.0369
10749TIP3    H153662   4.165   2.788   5.197  0.1711 -2.4171 -2.1097
10749TIP3    H253663   4.182   2.674   5.295  0.4606 -0.0249  0.7710
10750TIP3   OH253664   3.334   5.483   1.533 -0.0966 -0.3822 -0.3804
10750TIP3    H153665   3.288   5.504   1.614 -0.4755  2.1402 -1.1547
10750TIP3    H253666   3.346   5.388   1.536 -0.7731 -0.4676  2.2399
10751TIP3   OH253667   0.039   2.240  13.278  0.2100  0.1554 -0.0934
10751TIP3    H153668  -0.017   2.215  13.352 -0.2406 -0.5641 -0.6635
10751TIP3    H253669   0.029   2.335  13.271  0.2373  0.2285  0.7466
10752TIP3   OH253670   6.761   1.789   3.406  0.3368 -0.2700  0.2537
10752TIP3    H153671   6.735   1.850   3.337  0.8068 -1.2865 -0.8472
10752TIP3    H253672   6.691   1.725   3.409  0.4749 -0.4118  0.5013
10753TIP3   OH253673   3.618   5.186  11.213  0.0042  0.2632 -0.7119
10753TIP3    H153674   3.644   5.182  11.122 -0.0624 -0.4541 -0.7015
10753TIP3    H253675   3.596   5.096  11.237  1.0102  0.2641  0.3038
10754TIP3   OH253676   3.209   6.116   1.013  0.5992 -0.3298  0.5096
10754TIP3    H153677   3.297   6.114   1.051  0.9468  1.8848 -0.0792
10754TIP3    H253678   3.218   6.169   0.935 -0.8245 -1.9787 -0.8513
10755TIP3   OH253679   4.013   5.710  14.147  0.4779  0.8486  0.6217
10755TIP3    H153680   3.981   5.693  14.059 -0.8274  1.1098  1.0159
10755TIP3    H253681   3.965   5.648  14.203  0.8297  1.0952  1.2112
10756TIP3   OH253682   0.314   1.409   5.872  0.0693 -0.2736  0.1167
10756TIP3    H153683   0.393   1.382   5.826  0.1998  0.4057 -0.0718
10756TIP3    H253684   0.275   1.327   5.903  0.6287 -0.6438 -0.1372
10757TIP3   OH253685   2.300   5.028   4.931  0.0601  0.0837  0.4933
10757TIP3    H153686   2.249   5.072   5.000  1.2789 -0.9648  2.1453
10757TIP3    H253687   2.384   5.010   4.972  1.3421  0.6130 -1.7493
10758TIP3   OH253688   2.533   0.231   2.450 -0.7250 -0.0228 -0.5047
10758TIP3    H153689   2.453   0.277   2.476 -0.0095  0.8315  0.2840
10758TIP3    H253690   2.526   0.145   2.491 -0.8949  0.3221  0.2107
10759TIP3   OH253691   2.994   5.703   3.278  0.6581 -0.5640 -0.0390
10759TIP3    H153692   2.934   5.777   3.271  1.8307  0.3851 -0.2932
10759TIP3    H253693   2.943   5.628   3.246 -0.5398  0.1186  0.2125
10760TIP3   OH253694   5.705   2.983   4.843 -0.0726  0.0830  0.6166
10760TIP3    H153695   5.622   2.950   4.811  0.1400  0.1906 -0.0718
10760TIP3    H253696   5.683   3.062   4.892 -0.2249  1.2323 -1.2095
10761TIP3   OH253697   1.113   1.975   3.134 -0.3407  0.2241 -0.5496
10761TIP3    H153698   1.183   1.956   3.071 -0.7546  0.2023 -1.0060
10761TIP3    H253699   1.141   2.057   3.176  1.6214 -1.4263  1.6561
10762TIP3   OH253700   3.007   0.399   0.909  0.0895  0.5868  0.3398
10762TIP3    H153701   3.067   0.469   0.883  2.3373 -1.2630  0.1810
10762TIP3    H253702   2.977   0.424   0.997  1.2423  1.5121  0.4942
10763TIP3   OH253703   1.054   6.517   0.854 -0.3495 -0.3210 -0.0414
10763TIP3    H153704   1.147   6.492   0.858 -0.6414 -1.2945  1.6897
10763TIP3    H253705   1.050   6.600   0.902 -0.4247 -0.4403  0.1574
10764TIP3   OH253706   0.852   2.432   0.860 -0.1962  0.3311 -0.4953
10764TIP3    H153707   0.852   2.444   0.955 -0.6101  1.0020 -0.5712
10764TIP3    H253708   0.764   2.402   0.840 -0.4702  1.2858 -0.7824
10765TIP3   OH253709   1.295   3.992  12.410  0.2163  0.1033  0.0914
10765TIP3    H153710   1.351   3.956  12.478  1.3706  0.6152 -0.5551
10765TIP3    H253711   1.276   3.918  12.352 -0.2231 -0.1872  0.6013
10766TIP3   OH253712   6.649   4.980  15.525 -0.5025 -0.6781  0.2381
10766TIP3    H153713   6.693   4.895  15.516  0.3217 -0.1127 -1.5098
10766TIP3    H253714   6.625   5.004  15.435 -1.6601  0.4656  0.8266
10767TIP3   OH253715   2.574   0.810  16.741  0.4049 -0.1336 -0.1829
10767TIP3    H153716   2.519   0.868  16.794 -0.7244 -0.8457 -0.5626
10767TIP3    H253717   2.544   0.825  16.651  0.9990 -0.3575 -0.4211
10768TIP3   OH253718   0.492   2.186  17.033 -0.3093  0.4658  0.0320
10768TIP3    H153719   0.458   2.130  17.102  1.5236  0.4719  1.0132
10768TIP3    H253720   0.449   2.270  17.046 -2.3641 -0.3857 -0.8656
10769TIP3   OH253721   5.951   5.102  15.377  0.2024 -0.0391 -0.6100
10769TIP3    H153722   6.039   5.098  15.414  0.5941 -1.4318 -1.6028
10769TIP3    H253723   5.964   5.093  15.283 -1.0499 -1.3101 -0.6893
10770TIP3   OH253724   0.134   3.328   4.224 -0.5485  0.0408  0.5083
10770TIP3    H153725   0.130   3.324   4.128 -2.5165 -0.4327  0.5556
10770TIP3    H253726   0.227   3.317   4.245 -0.2345 -1.3773 -1.2994
10771TIP3   OH253727   3.437   3.885   3.026  0.5547 -0.2879 -0.0334
10771TIP3    H153728   3.494   3.961   3.014  0.2070  0.1638  1.0465
10771TIP3    H253729   3.356   3.908   2.980 -0.0370  0.5819  1.3792
10772TIP3   OH253730   5.158   3.668  12.529  0.1097 -0.0654 -0.7621
10772TIP3    H153731   5.094   3.736  12.547 -0.3197 -0.5849 -0.2698
10772TIP3    H253732   5.173   3.626  12.613  0.6067 -0.3752 -0.9981
10773TIP3   OH253733   1.379   6.667  11.427  0.3105 -0.3120  0.5164
10773TIP3    H153734   1.368   6.713  11.344 -0.8241 -1.2880  0.0852
10773TIP3    H253735   1.369   6.734  11.494 -0.2102  0.2476 -0.1096
10774TIP3   OH253736   3.810   1.854   5.271  0.0271 -0.2823  0.4866
10774TIP3    H153737   3.748   1.917   5.308  0.9154  0.2211  1.1614
10774TIP3    H253738   3.786   1.770   5.312  0.5956  0.1503  1.7460
10775TIP3   OH253739   6.530   5.294  14.390  0.1663  0.1665  0.2494
10775TIP3    H153740   6.514   5.206  14.423 -2.0222 -0.3096 -1.7655
10775TIP3    H253741   6.484   5.352  14.451 -2.3317 -0.5395 -0.8400
10776TIP3   OH253742   3.744   5.879  13.749  0.1361 -0.0298 -0.8581
10776TIP3    H153743   3.830   5.916  13.733 -0.6715  2.0971 -0.5609
10776TIP3    H253744   3.687   5.921  13.685 -0.8801 -0.5537 -0.3229
10777TIP3   OH253745   0.707   6.584  14.824 -0.7986 -0.4036 -0.0464
10777TIP3    H153746   0.784   6.638  14.807 -1.6053  1.1362  0.9607
10777TIP3    H253747   0.684   6.548  14.738 -0.6098  1.4166 -0.9018
10778TIP3   OH253748   0.794   1.482  13.974 -0.5463 -0.5856 -0.6555
10778TIP3    H153749   0.733   1.555  13.982 -1.7968 -1.5875 -0.8847
10778TIP3    H253750   0.828   1.470  14.063 -0.1751  0.3843 -0.6519
10779TIP3   OH253751   5.429   4.080   5.753  0.5669  0.4316  0.6203
10779TIP3    H153752   5.481   4.036   5.821 -1.9199 -0.4359  2.1003
10779TIP3    H253753   5.339   4.051   5.769 -0.3616  1.5198 -2.0679
10780TIP3   OH253754   5.359   0.593   2.765 -0.4144 -0.1013 -1.1077
10780TIP3    H153755   5.334   0.683   2.785 -0.9104 -0.1618 -1.4522
10780TIP3    H253756   5.341   0.544   2.845  0.9891  0.3197 -0.5079
10781TIP3   OH253757   6.548   5.375   3.557 -0.2433 -0.5397 -0.7765
10781TIP3    H153758   6.559   5.305   3.621  0.3687 -0.0832 -0.3746
10781TIP3    H253759   6.508   5.447   3.606  1.3947  0.2722 -0.5690
10782TIP3   OH253760   3.384   3.367   4.737  0.2243 -0.4140 -0.4510
10782TIP3    H153761   3.432   3.384   4.656 -0.2569 -1.8266 -1.0549
10782TIP3    H253762   3.395   3.447   4.788  0.4291  0.5585 -1.9586
10783TIP3   OH253763   4.329   5.536   5.094  0.3830 -0.1117  0.5166
10783TIP3    H153764   4.254   5.499   5.141  1.6984 -1.5739  1.5845
10783TIP3    H253765   4.403   5.525   5.154  1.6131  0.5580 -0.7990
10784TIP3   OH253766   0.370   1.605  13.678 -0.7664  0.1842  0.3030
10784TIP3    H153767   0.394   1.682  13.729 -0.4590 -0.5744  1.3360
10784TIP3    H253768   0.408   1.620  13.591 -0.3767  1.0047  0.6072
10785TIP3   OH253769   2.073   2.468  16.800 -0.3960 -0.4832 -0.2916
10785TIP3    H153770   2.054   2.557  16.769  0.4296 -0.1526  0.1202
10785TIP3    H253771   1.987   2.431  16.821 -0.8074 -0.0390 -1.1448
10786TIP3   OH253772   5.740   0.973   5.523 -0.2436 -0.1088 -0.1144
10786TIP3    H153773   5.777   1.060   5.510  0.5673 -0.8312 -3.4878
10786TIP3    H253774   5.806   0.927   5.575 -0.0373  0.8498  0.4975
10787TIP3   OH253775   6.326   6.434  12.310 -0.1887 -0.3036  0.0044
10787TIP3    H153776   6.375   6.367  12.261 -0.1207 -0.1503 -0.1387
10787TIP3    H253777   6.304   6.500  12.244  2.6888  1.5419  0.7089
10788TIP3   OH253778   4.481   1.960   4.660  0.2521 -0.1412 -0.6292
10788TIP3    H153779   4.411   1.938   4.600 -0.9261 -0.9246  0.9540
10788TIP3    H253780   4.444   2.028   4.717  1.2148  0.3545 -0.5747
10789TIP3   OH253781   4.411   3.238   5.676  0.0910 -0.2812 -0.5820
10789TIP3    H153782   4.472   3.257   5.747 -1.1381 -1.4672  0.8385
10789TIP3    H253783   4.459   3.177   5.620  1.0446  0.6215 -0.8053
10790TIP3   OH253784   0.162   6.101   4.395  0.1116  0.1128 -0.5794
10790TIP3    H153785   0.069   6.086   4.413 -0.2227 -1.0861 -2.8565
10790TIP3    H253786   0.207   6.030   4.441 -0.0207  0.9485  0.8888
10791TIP3   OH253787   3.481   6.663  17.024  0.3477  0.0983  0.7975
10791TIP3    H153788   3.442   6.750  17.017  3.0384  1.3995  0.6319
10791TIP3    H253789   3.502   6.653  17.116 -0.0028 -0.4339  0.8263
10792TIP3   OH253790   3.002   2.450  15.957 -0.1338  0.0631  0.2747
10792TIP3    H153791   3.082   2.501  15.943 -0.1143  0.2737  1.0874
10792TIP3    H253792   2.935   2.515  15.979  0.0904 -0.2853  2.1918
10793TIP3   OH253793   0.084   1.545   3.828  0.5035  0.4926 -0.2808
10793TIP3    H153794  -0.001   1.581   3.852 -0.1906  0.4540 -2.4565
10793TIP3    H253795   0.098   1.473   3.889 -0.5765  1.0911  0.7072
10794TIP3   OH253796   3.868   5.534  15.105 -0.2199 -0.0251 -0.2625
10794TIP3    H153797   3.865   5.440  15.089 -0.5757  0.0875 -0.8713
10794TIP3    H253798   3.961   5.552  15.121 -0.1743 -0.5058  0.0605
10795TIP3   OH253799   0.747   6.138  12.046  0.2786 -0.1546  0.4793
10795TIP3    H153800   0.826   6.120  11.995  0.5047  0.6233  0.5427
10795TIP3    H253801   0.675   6.117  11.987  0.5247 -0.8610  0.4179
10796TIP3   OH253802   2.421   3.203  13.429 -0.2433  0.7062  0.0690
10796TIP3    H153803   2.498   3.156  13.398 -0.9561  0.5110 -1.4855
10796TIP3    H253804   2.355   3.135  13.440 -0.3244  0.9223  1.0417
10797TIP3   OH253805   6.668   3.740  14.021 -0.0724  0.0284  0.0518
10797TIP3    H153806   6.721   3.809  14.061 -1.1462  0.9077 -0.0025
10797TIP3    H253807   6.644   3.776  13.935  0.8279 -1.1541 -0.7319
10798TIP3   OH253808   0.401   5.270  11.247 -0.1633  0.3038 -0.1364
10798TIP3    H153809   0.407   5.175  11.231 -1.2021 -0.3422  2.7244
10798TIP3    H253810   0.493   5.299  11.248  0.1720 -0.6245 -1.0679
10799TIP3   OH253811   2.224   4.546  12.751 -0.3235  0.4582 -0.1777
10799TIP3    H153812   2.258   4.459  12.734  2.6787  1.8703 -2.2022
10799TIP3    H253813   2.129   4.538  12.737 -0.3699 -2.6599  1.0798
10800TIP3   OH253814   0.559   4.774   6.018  0.9122 -0.0444 -0.1287
10800TIP3    H153815   0.543   4.680   6.029  0.9834 -0.0492 -0.0625
10800TIP3    H253816   0.559   4.808   6.108  1.3585 -0.0578 -0.1221
10801TIP3   OH253817   4.111   2.744  17.028  0.0401  0.0758  0.5139
10801TIP3    H153818   4.043   2.685  16.995  0.0529  0.9094 -1.1569
10801TIP3    H253819   4.076   2.778  17.110 -0.5718 -1.1772  0.7927
10802TIP3   OH253820   5.385   3.367   4.448  0.2258  0.5418  0.5882
10802TIP3    H153821   5.471   3.354   4.489 -0.3699 -0.4288  1.5896
10802TIP3    H253822   5.370   3.287   4.397  0.5313  1.3312 -0.7753
10803TIP3   OH253823   0.461   4.471   4.789 -0.0185  0.1148 -0.0108
10803TIP3    H153824   0.491   4.428   4.869 -2.6159  0.5945  1.3137
10803TIP3    H253825   0.444   4.562   4.815 -1.9369  0.0272 -0.7578
10804TIP3   OH253826   4.875   3.628  13.238 -0.6971 -0.0834  0.4454
10804TIP3    H153827   4.944   3.673  13.189 -1.3757 -0.8291 -1.2484
10804TIP3    H253828   4.895   3.648  13.330  0.5926  1.3781 -0.1037
10805TIP3   OH253829   5.909   2.434   4.843  0.1242 -0.6408 -0.4475
10805TIP3    H153830   5.855   2.423   4.765  0.3285  0.4888 -0.7705
10805TIP3    H253831   5.849   2.466   4.910  0.4025  0.9272 -0.8954
10806TIP3   OH253832   3.319   0.223   5.037  0.2050 -0.2121  0.5137
10806TIP3    H153833   3.243   0.269   5.072 -0.6216 -0.8018 -0.4588
10806TIP3    H253834   3.327   0.145   5.092  0.2724 -0.0125  0.7878
10807TIP3   OH253835   4.082   2.834  16.107  0.8290  0.1451  0.0796
10807TIP3    H153836   4.010   2.776  16.080  0.5278  0.5356  0.0283
10807TIP3    H253837   4.093   2.817  16.200  1.0571 -0.3350 -0.0369
10808TIP3   OH253838   6.026   4.885   3.618 -0.2677  0.0594 -0.3267
10808TIP3    H153839   6.064   4.970   3.642  0.9177 -0.2802 -0.9090
10808TIP3    H253840   6.098   4.823   3.629 -0.6761 -0.6313 -1.3849
10809TIP3   OH253841   2.808   4.568  15.198 -0.0637 -0.7385 -0.4611
10809TIP3    H153842   2.752   4.494  15.218  1.1963 -1.6148 -0.0014
10809TIP3    H253843   2.774   4.604  15.116  0.3753 -2.9544 -1.6742
10810TIP3   OH253844   1.965   5.660  11.190  0.1802 -0.0646  0.1974
10810TIP3    H153845   1.943   5.628  11.102  0.1745 -0.1841  0.2414
10810TIP3    H253846   1.992   5.751  11.176 -0.2918  0.0656  0.1384
10811TIP3   OH253847   0.619   1.342   3.787  0.0031 -0.4154 -0.7480
10811TIP3    H153848   0.574   1.408   3.733 -1.6094  0.1022  1.1090
10811TIP3    H253849   0.661   1.393   3.856 -0.2739 -1.2340  0.0444
10812TIP3   OH253850   1.248   0.337   6.375  0.8175 -0.0409  0.4217
10812TIP3    H153851   1.175   0.318   6.316  1.3896  1.4475 -0.8329
10812TIP3    H253852   1.213   0.321   6.463 -1.4746  1.9116 -0.0455
10813TIP3   OH253853   5.562   1.746   5.934 -0.5899 -0.1694  0.2554
10813TIP3    H153854   5.530   1.809   5.999  0.0962 -0.7308  1.1726
10813TIP3    H253855   5.550   1.660   5.976  0.0439 -0.5328 -0.2746
10814TIP3   OH253856   3.771   0.431  14.900 -0.0371  0.3638  0.0271
10814TIP3    H153857   3.678   0.449  14.908 -0.4193 -1.7612  1.1776
10814TIP3    H253858   3.776   0.350  14.849  1.2180  0.7889 -0.5584
10815TIP3   OH253859   5.602   1.570   1.612 -0.3078  0.3522 -0.2236
10815TIP3    H153860   5.543   1.495   1.628  0.8296 -0.2785  1.3315
10815TIP3    H253861   5.635   1.556   1.523  0.2415 -1.2907  0.1992
10816TIP3   OH253862   5.373   5.590   6.224 -0.5508 -0.1717 -0.4648
10816TIP3    H153863   5.447   5.529   6.229  0.1118  0.6071 -0.5079
10816TIP3    H253864   5.330   5.584   6.310 -0.2591 -0.4154 -0.3355
10817TIP3   OH253865   1.591   2.707   1.582 -0.0895  0.8219  0.4980
10817TIP3    H153866   1.498   2.705   1.558  0.5369 -2.1614 -2.5709
10817TIP3    H253867   1.608   2.619   1.616  1.4034  1.7677  2.3736
10818TIP3   OH253868   5.453   1.853  13.274  0.5391 -0.0003 -0.0180
10818TIP3    H153869   5.426   1.774  13.320 -0.8865  0.9957  0.9423
10818TIP3    H253870   5.525   1.824  13.217 -0.2469 -2.0649 -0.0537
10819TIP3   OH253871   6.124   3.852  12.991 -0.0735  0.7008  0.3782
10819TIP3    H153872   6.178   3.887  13.062  1.4276 -0.0728 -0.3168
10819TIP3    H253873   6.180   3.858  12.914 -0.2504 -1.8472 -0.0479
10820TIP3   OH253874   2.168   2.297   3.204 -0.1721  0.1301 -0.2232
10820TIP3    H153875   2.129   2.224   3.252  0.4790 -0.9001 -1.2302
10820TIP3    H253876   2.166   2.271   3.112  2.7692  0.0337 -0.3578
10821TIP3   OH253877   4.970   0.597  14.834  0.2704  0.2295  0.0416
10821TIP3    H153878   4.991   0.676  14.784 -2.2626  0.4426 -0.8297
10821TIP3    H253879   4.920   0.542  14.773 -0.2540 -0.8859  1.4093
10822TIP3   OH253880   6.587   3.094  11.237  0.6478  0.0239 -0.6233
10822TIP3    H153881   6.644   3.170  11.247  1.7444 -0.3102 -3.5466
10822TIP3    H253882   6.636   3.034  11.181 -1.3925 -1.5549 -0.8187
10823TIP3   OH253883   2.115   4.900  12.447 -0.1652  0.1932 -0.2241
10823TIP3    H153884   2.049   4.856  12.501  1.4160 -1.4042  0.4823
10823TIP3    H253885   2.084   4.991  12.441 -1.0330  0.1400  2.3483
10824TIP3   OH253886   6.361   0.595  12.650  0.4649 -0.0512 -0.6079
10824TIP3    H153887   6.329   0.659  12.586 -1.2844  0.8501  1.0767
10824TIP3    H253888   6.453   0.619  12.663  0.1899  1.3060 -0.9827
10825TIP3   OH253889   3.570   0.923  11.514  0.3130  0.3907 -0.1342
10825TIP3    H153890   3.542   0.908  11.423  1.5588  0.6622 -0.5839
10825TIP3    H253891   3.661   0.895  11.516  0.5664  1.2102  0.8066
10826TIP3   OH253892   1.845   3.379  13.398  0.2937 -0.0677 -0.2019
10826TIP3    H153893   1.918   3.441  13.405 -0.7639  1.2100  0.0485
10826TIP3    H253894   1.780   3.425  13.345 -0.7970 -0.6852  0.5496
10827TIP3   OH253895   1.927   6.303   4.480  0.1096 -0.1271 -0.5613
10827TIP3    H153896   1.984   6.378   4.491  1.7353 -1.3074 -0.6409
10827TIP3    H253897   1.865   6.308   4.553  2.2887 -0.5139  1.4196
10828TIP3   OH253898   5.550   3.777   1.452 -0.0823 -0.3986 -0.1760
10828TIP3    H153899   5.527   3.684   1.464  0.0756 -0.5539 -1.0035
10828TIP3    H253900   5.506   3.802   1.371  1.0647 -0.1544 -0.7406
10829TIP3   OH253901   4.456   0.282  14.204 -0.3827 -0.1211  0.4422
10829TIP3    H153902   4.551   0.270  14.203 -0.3712 -0.0066  0.1536
10829TIP3    H253903   4.442   0.371  14.172 -0.6156 -0.3374 -0.0826
10830TIP3   OH253904   0.651   1.119   0.013 -0.5333 -0.0277  0.4681
10830TIP3    H153905   0.746   1.132   0.013 -0.5590  0.3599  1.9143
10830TIP3    H253906   0.636   1.050   0.076 -1.2779  0.5771  0.9709
10831TIP3   OH253907   4.143   4.359  14.337 -0.6065 -0.3754  0.2589
10831TIP3    H153908   4.086   4.427  14.373 -2.1432 -0.5207 -1.7260
10831TIP3    H253909   4.231   4.387  14.360 -1.3820  0.3262  2.6698
10832TIP3   OH253910   0.257   4.207  16.797 -0.2136 -0.6050  0.4812
10832TIP3    H153911   0.165   4.204  16.771 -0.8622 -1.9052  2.6425
10832TIP3    H253912   0.287   4.117  16.788  1.0226 -0.1206 -0.6084
10833TIP3   OH253913   1.227   3.715  12.563  0.0449  0.2940  0.0148
10833TIP3    H153914   1.290   3.777  12.597  0.8760 -0.3098 -0.4005
10833TIP3    H253915   1.214   3.741  12.472  0.2902 -0.0515 -0.1205
10834TIP3   OH253916   5.620   5.094  16.019 -0.2725 -0.4365  0.4097
10834TIP3    H153917   5.712   5.080  16.039  0.1014  1.0252 -0.1680
10834TIP3    H253918   5.590   5.009  15.986  1.4194 -0.4258 -1.3696
10835TIP3   OH253919   0.129   0.109   4.921  0.4216  0.2656  0.4295
10835TIP3    H153920   0.074   0.095   4.844  1.4593  1.0508 -0.4894
10835TIP3    H253921   0.101   0.194   4.955 -0.2152 -0.2002  1.0877
10836TIP3   OH253922   5.913   5.931   5.933  0.1989 -0.5030  0.3189
10836TIP3    H153923   5.828   5.974   5.925  0.0163 -0.4025  2.3574
10836TIP3    H253924   5.977   6.002   5.921 -0.0103 -0.3988 -0.2107
10837TIP3   OH253925   5.808   3.506  13.553 -0.0619  0.1199 -0.2990
10837TIP3    H153926   5.719   3.541  13.545  0.0351  0.1805 -1.2975
10837TIP3    H253927   5.818   3.449  13.476  0.1253 -1.3555  0.7826
10838TIP3   OH253928   4.917   0.211  14.699 -0.5767  0.1911 -0.0665
10838TIP3    H153929   4.952   0.300  14.696  0.9102 -0.3489  0.3524
10838TIP3    H253930   4.831   0.218  14.657 -0.7042  1.9078  0.3818
10839TIP3   OH253931   5.663   3.779  12.050  0.0743  0.2045 -0.9856
10839TIP3    H153932   5.697   3.865  12.025  2.0262 -0.5716 -1.2320
10839TIP3    H253933   5.696   3.766  12.139 -0.3982 -0.1961 -0.8696
10840TIP3   OH253934   1.120   3.864   2.406 -0.3438 -0.3256 -0.2718
10840TIP3    H153935   1.045   3.805   2.414 -1.0713  0.4676 -1.0371
10840TIP3    H253936   1.085   3.942   2.362  0.7030  0.4883  0.2879
10841TIP3   OH253937   1.158   5.118   4.309 -0.6410  0.0568  0.3083
10841TIP3    H153938   1.153   5.106   4.215  0.9687  0.4581  0.1461
10841TIP3    H253939   1.249   5.144   4.326 -0.8772 -0.0570  1.9703
10842TIP3   OH253940   0.577   1.776   3.059  0.4161 -0.3848  0.3525
10842TIP3    H153941   0.669   1.771   3.082  0.5021  1.5273  0.5086
10842TIP3    H253942   0.555   1.686   3.032  1.6696 -1.4627  2.5951
10843TIP3   OH253943   3.321   2.588  15.423 -0.2549  0.0075  0.2845
10843TIP3    H153944   3.359   2.608  15.509  0.5770  2.4879 -0.5864
10843TIP3    H253945   3.234   2.553  15.443 -0.3293  1.1179  2.1409
10844TIP3   OH253946   5.783   4.433  12.410  0.4231  0.0360  0.0566
10844TIP3    H153947   5.724   4.470  12.344  0.9286  0.3956 -0.2015
10844TIP3    H253948   5.840   4.374  12.360  0.8161  0.3210  0.1627
10845TIP3   OH253949   6.321   4.289  13.263  0.3855 -0.2512  0.1668
10845TIP3    H153950   6.402   4.335  13.245  0.8475 -0.3704  1.7977
10845TIP3    H253951   6.349   4.201  13.291 -0.3017 -0.3639  0.5312
10846TIP3   OH253952   3.716   3.441   4.172  0.4440 -0.9297 -0.5465
10846TIP3    H153953   3.629   3.467   4.203  1.0370  0.6220 -0.1316
10846TIP3    H253954   3.701   3.356   4.129 -1.4095 -0.3492 -1.1541
10847TIP3   OH253955   2.104   0.120  16.476  0.7673 -0.2333  0.4459
10847TIP3    H153956   2.010   0.103  16.473  0.6906  0.3008 -2.2610
10847TIP3    H253957   2.118   0.161  16.562 -1.5230  0.0581  0.7401
10848TIP3   OH253958   3.531   5.697  12.535 -0.0995 -0.1371  0.3747
10848TIP3    H153959   3.517   5.769  12.474  3.0385 -0.3708 -0.8289
10848TIP3    H253960   3.505   5.619  12.485  0.7307 -0.1687 -0.0312
10849TIP3   OH253961   5.313   1.498  11.139  0.4195 -0.6402  0.1650
10849TIP3    H153962   5.250   1.427  11.152  0.7165 -0.9441 -0.0367
10849TIP3    H253963   5.259   1.577  11.129  0.1108 -0.7185  1.1091
10850TIP3   OH253964   2.165   0.239   0.818  0.4126  0.1443  0.3301
10850TIP3    H153965   2.148   0.282   0.902 -0.1670 -0.9167  0.7763
10850TIP3    H253966   2.082   0.244   0.771  0.7129  0.6647 -0.1622
10851TIP3   OH253967   1.545   2.831  11.584  0.0673 -0.1069  0.4211
10851TIP3    H153968   1.522   2.747  11.545  1.7202  0.0082 -0.9520
10851TIP3    H253969   1.469   2.887  11.568  0.5196 -0.1530 -2.5331
10852TIP3   OH253970   1.002   6.563   6.143  0.2500  0.0444 -0.1715
10852TIP3    H153971   0.915   6.525   6.151  0.9583 -1.5772  0.3140
10852TIP3    H253972   1.030   6.579   6.233  0.1084  1.4171 -0.3605
10853TIP3   OH253973   6.727   1.693   4.102  0.1303 -0.6158 -0.1042
10853TIP3    H153974   6.674   1.756   4.054 -2.3908 -2.1240  0.5379
10853TIP3    H253975   6.769   1.745   4.171 -1.7684  0.4227  0.3290
10854TIP3   OH253976   1.300   1.923   4.345 -0.2566 -0.0082 -0.0764
10854TIP3    H153977   1.386   1.922   4.387 -0.4293  0.5246  0.2999
10854TIP3    H253978   1.301   1.847   4.287  0.6734  0.3216 -0.5036
10855TIP3   OH253979   0.126   1.968  15.464 -0.4288 -0.2144  0.4735
10855TIP3    H153980   0.122   1.910  15.388  2.6082 -2.0207  1.4777
10855TIP3    H253981   0.067   1.928  15.528 -0.8771 -0.2852  0.0186
10856TIP3   OH253982   4.409   3.201  13.111  0.3162 -0.1240  0.7950
10856TIP3    H153983   4.329   3.236  13.073 -0.6581 -2.0205  0.9697
10856TIP3    H253984   4.479   3.256  13.075 -0.8499  0.1950 -1.1473
10857TIP3   OH253985   4.331   3.172  13.366  0.5265  0.6360 -0.5221
10857TIP3    H153986   4.358   3.145  13.278  0.1971 -1.1004 -0.1361
10857TIP3    H253987   4.266   3.240  13.351  1.0346  0.9151 -1.5955
10858TIP3   OH253988   0.966   0.041  16.157 -0.6223  0.0731 -0.3436
10858TIP3    H153989   1.008   0.118  16.194 -0.6148  0.6790 -1.5743
10858TIP3    H253990   1.009   0.028  16.072 -1.8004 -0.2444 -0.9180
10859TIP3   OH253991   6.361   2.649  11.930  0.1405  0.3018 -0.2000
10859TIP3    H153992   6.311   2.570  11.950 -1.5905  1.5899  0.8675
10859TIP3    H253993   6.389   2.637  11.839 -1.2157 -0.9590 -0.5020
10860TIP3   OH253994   2.040   1.698   0.319 -0.8410  0.3686 -0.5930
10860TIP3    H153995   2.042   1.749   0.238  1.4666  0.3905 -0.5730
10860TIP3    H253996   2.063   1.609   0.292  0.2422  0.4370  0.0566
10861TIP3   OH253997   4.626   4.379  11.038 -0.3071 -0.6579 -0.1316
10861TIP3    H153998   4.676   4.398  11.117  0.5089 -0.2879 -0.7089
10861TIP3    H253999   4.546   4.336  11.068 -0.2624 -0.0252  0.9188
10862TIP3   OH254000   1.530   0.362  12.420 -0.2709 -0.1748 -0.0271
10862TIP3    H154001   1.541   0.395  12.331  0.0266  0.0412  0.0872
10862TIP3    H254002   1.456   0.411  12.455  0.3044  0.5444  0.2170
10863TIP3   OH254003   1.661   2.482   0.555  0.5235 -0.3392  0.5230
10863TIP3    H154004   1.728   2.414   0.554 -1.2270 -2.1688  1.1839
10863TIP3    H254005   1.620   2.477   0.469  0.0455 -0.5070  0.7562
10864TIP3   OH254006   6.347   3.249   3.424 -0.5203  0.4927 -0.1438
10864TIP3    H154007   6.305   3.273   3.507 -0.4882  1.5405 -0.4108
10864TIP3    H254008   6.292   3.291   3.357 -1.2680 -1.3615 -0.7495
10865TIP3   OH254009   2.534   6.435   2.582  0.2414 -0.2144  0.1883
10865TIP3    H154010   2.496   6.469   2.501 -0.3896 -0.1685  0.4932
10865TIP3    H254011   2.500   6.346   2.589  0.5811 -0.3425  0.2204
10866TIP3   OH254012   0.428   6.376  12.141 -0.1157 -0.1652 -0.2426
10866TIP3    H154013   0.476   6.450  12.180 -1.0110  0.1400  0.3013
10866TIP3    H254014   0.487   6.301  12.153 -0.2869 -0.0468  1.5735
10867TIP3   OH254015   5.081   2.031   3.607 -0.4822  0.5881 -0.3364
10867TIP3    H154016   5.090   2.006   3.699 -2.4937 -0.2630 -0.3274
10867TIP3    H254017   5.152   1.986   3.562  0.1811  0.5731  0.7121
10868TIP3   OH254018   0.356   5.342   0.979  0.2263  0.7371  0.2069
10868TIP3    H154019   0.417   5.299   1.040  0.7691 -0.2751 -1.0055
10868TIP3    H254020   0.304   5.270   0.943  0.3263  1.2345 -0.9743
10869TIP3   OH254021   1.128   4.834  16.098  0.3509  0.0809  0.7410
10869TIP3    H154022   1.164   4.854  16.185  1.6530 -2.5133  0.8968
10869TIP3    H254023   1.054   4.776  16.116 -0.2216  0.6096  0.1357
10870TIP3   OH254024   1.553   3.734  10.660  0.3457 -0.4008  0.4092
10870TIP3    H154025   1.488   3.663  10.665  0.4429 -0.9805 -3.4312
10870TIP3    H254026   1.637   3.692  10.678  0.3064 -1.1490 -1.0284
10871TIP3   OH254027   1.557   0.009   4.625 -0.3846  0.3518  0.0089
10871TIP3    H154028   1.594   0.083   4.578 -0.4480 -0.2729 -1.0444
10871TIP3    H254029   1.513   0.049   4.701  1.6615  1.1793  0.8406
10872TIP3   OH254030   1.665   4.571   4.053 -0.5608  0.2133  0.0887
10872TIP3    H154031   1.695   4.637   4.116 -1.8834  0.2387  0.7309
10872TIP3    H254032   1.745   4.542   4.010  0.3180  0.6482  1.3398
10873TIP3   OH254033   3.553   1.635   4.914  0.4209 -0.0151 -0.7631
10873TIP3    H154034   3.470   1.667   4.878  0.4770  1.6812  0.4826
10873TIP3    H254035   3.613   1.634   4.839 -0.3177  0.2400 -1.3686
10874TIP3   OH254036   2.521   0.052  15.625  0.0822 -0.0242  1.1987
10874TIP3    H154037   2.442   0.032  15.574  0.3519  0.3505  0.6287
10874TIP3    H254038   2.545  -0.032  15.665  0.7876 -0.7377 -0.5853
10875TIP3   OH254039   3.012   2.842   0.452  0.2717  0.0642 -0.0811
10875TIP3    H154040   2.970   2.867   0.370 -0.5483  0.2828  0.3995
10875TIP3    H254041   3.083   2.906   0.462 -0.1020  0.5091 -0.2364
10876TIP3   OH254042   3.981   5.027   4.677 -0.1883 -0.1631  0.0858
10876TIP3    H154043   3.964   5.102   4.619  0.4439  0.6430  0.9078
10876TIP3    H254044   4.039   5.062   4.744 -0.8937 -1.0818  1.2092
10877TIP3   OH254045   1.424   6.451   2.980  0.0248 -0.2134 -0.2349
10877TIP3    H154046   1.470   6.438   3.063  0.4890 -1.0979 -0.6133
10877TIP3    H254047   1.452   6.538   2.951  3.3228 -1.5239 -1.5287
10878TIP3   OH254048   5.222   1.573   2.254 -0.1865  0.0540 -0.1137
10878TIP3    H154049   5.203   1.566   2.161  0.7958 -0.9196 -0.2714
10878TIP3    H254050   5.143   1.544   2.298 -0.5142  0.1323 -0.6507
10879TIP3   OH254051   6.743   0.173   2.836  0.5147 -0.0496  0.2349
10879TIP3    H154052   6.767   0.214   2.753  1.4011  1.8614  1.3930
10879TIP3    H254053   6.648   0.187   2.843  0.2863 -0.9216 -0.7855
10880TIP3   OH254054   2.332   2.296   2.752  0.1803 -0.1137 -0.3028
10880TIP3    H154055   2.307   2.245   2.829  1.8598 -0.6291 -0.0432
10880TIP3    H254056   2.257   2.353   2.735  0.1247  0.7345  2.3323
10881TIP3   OH254057   3.522   1.055   1.670 -0.0823 -0.2449  0.1272
10881TIP3    H154058   3.606   1.091   1.700 -0.1698 -0.4783  0.6674
10881TIP3    H254059   3.464   1.131   1.668 -0.0445 -0.2039  0.4522
10882TIP3   OH254060   0.768   0.674  14.133  0.7591 -0.1199 -0.4424
10882TIP3    H154061   0.774   0.754  14.185  0.7297 -0.6008  0.3306
10882TIP3    H254062   0.774   0.703  14.042  0.7331  0.7552 -0.1744
10883TIP3   OH254063   5.188   3.269  15.170 -0.1086  0.1098 -0.1221
10883TIP3    H154064   5.093   3.256  15.171 -0.1904  0.6063  1.9375
10883TIP3    H254065   5.223   3.186  15.137 -1.1220 -1.3293  2.2004
10884TIP3   OH254066   2.102   3.884  12.574 -0.0127  0.0037 -0.5026
10884TIP3    H154067   2.118   3.888  12.479 -0.7490  1.3802 -0.6007
10884TIP3    H254068   2.189   3.875  12.612  0.7608  3.0903 -1.1899
10885TIP3   OH254069   4.677   0.511  13.940 -0.5995  0.4020  0.3689
10885TIP3    H154070   4.689   0.506  14.035 -1.8200  0.7809  0.5615
10885TIP3    H254071   4.690   0.603  13.918 -1.3378  0.4979  0.3245
10886TIP3   OH254072   2.548   3.767   4.107  0.3947  0.1271 -0.0919
10886TIP3    H154073   2.499   3.759   4.189  1.2622 -0.8385  0.3544
10886TIP3    H254074   2.627   3.816   4.131  1.7622 -2.0667  0.2140
10887TIP3   OH254075   4.284   2.258  10.731 -0.2170 -0.3008 -0.2938
10887TIP3    H154076   4.249   2.337  10.774 -1.0253 -0.6478 -0.2997
10887TIP3    H254077   4.263   2.270  10.639 -1.6220 -1.1504 -0.1205
10888TIP3   OH254078   4.986   1.919   4.434  0.3544  0.1094  0.1184
10888TIP3    H154079   4.896   1.887   4.442  0.2894 -0.0540 -1.0279
10888TIP3    H254080   4.976   2.010   4.404  0.5579  0.7741  1.9882
10889TIP3   OH254081   3.543   3.711   5.519 -0.6549 -0.0459  0.2881
10889TIP3    H154082   3.499   3.724   5.435  1.0986  0.8568 -0.5532
10889TIP3    H254083   3.584   3.625   5.512 -2.0728 -0.8153  1.0085
10890TIP3   OH254084   1.704   6.557   4.606 -0.4764  0.5925  0.3908
10890TIP3    H154085   1.658   6.638   4.625 -0.7051  0.2472  1.3750
10890TIP3    H254086   1.705   6.552   4.510 -1.0724  1.3983  0.3313
10891TIP3   OH254087   0.099   3.801   4.719 -0.2111  0.6007  0.4264
10891TIP3    H154088   0.015   3.756   4.718 -0.1068  0.3978  0.8127
10891TIP3    H254089   0.086   3.876   4.777 -0.7527  1.7929 -1.1625
10892TIP3   OH254090   5.857   4.246   2.154  0.0547 -0.3453  0.4850
10892TIP3    H154091   5.880   4.312   2.220 -0.6883 -0.5158  0.9300
10892TIP3    H254092   5.941   4.213   2.122  0.5379  2.3485 -1.3363
10893TIP3   OH254093   2.865   3.941  15.272  0.7405 -0.8468  0.5311
10893TIP3    H154094   2.897   4.006  15.335 -0.8689 -0.3628  0.8802
10893TIP3    H254095   2.943   3.919  15.220  1.6091  0.3885  1.2401
10894TIP3   OH254096   2.355   0.785  11.460 -0.5160  0.0706 -0.0453
10894TIP3    H154097   2.309   0.791  11.544  1.4637  1.7074  1.0478
10894TIP3    H254098   2.342   0.872  11.421  0.1469 -0.0424 -0.5189
10895TIP3   OH254099   3.753   2.934  17.199 -0.2485  0.1690 -0.7658
10895TIP3    H154100   3.818   2.999  17.227 -0.7833  1.7257 -2.9166
10895TIP3    H254101   3.672   2.962  17.242  0.3977 -1.8803  2.0689
10896TIP3   OH254102   0.176   4.156   3.405 -0.0659 -0.2707  0.3704
10896TIP3    H154103   0.243   4.165   3.473 -0.2735  0.3601  0.4977
10896TIP3    H254104   0.137   4.243   3.398 -0.8309 -0.6088  0.2514
10897TIP3   OH254105   4.733   2.285  16.856 -0.1527 -0.3499  0.2477
10897TIP3    H154106   4.688   2.354  16.905 -0.2941 -0.0041 -0.3551
10897TIP3    H254107   4.670   2.213  16.851  0.3582 -0.9450  1.7600
10898TIP3   OH254108   5.797   0.441   2.175  0.1997  0.0786  0.3579
10898TIP3    H154109   5.779   0.520   2.226  1.0135 -0.2147  1.1201
10898TIP3    H254110   5.849   0.471   2.101 -0.2376  0.3754  0.1644
10899TIP3   OH254111   3.392   5.167  16.182  0.2754  0.5256  0.4112
10899TIP3    H154112   3.396   5.249  16.231  3.2167 -1.1689  3.3758
10899TIP3    H254113   3.483   5.149  16.158 -0.4054 -1.4511 -0.9535
10900TIP3   OH254114   0.701   2.529  14.918  0.5729 -0.2700 -0.3412
10900TIP3    H154115   0.764   2.503  14.851  0.5160  0.5033 -0.7049
10900TIP3    H254116   0.751   2.583  14.979  0.1285  1.0189 -1.0574
10901TIP3   OH254117   0.495   5.415   4.281 -0.2552  0.2251 -0.7183
10901TIP3    H154118   0.461   5.475   4.348  0.0555  0.9270 -1.1841
10901TIP3    H254119   0.585   5.397   4.309 -0.0387  0.7304 -1.0948
10902TIP3   OH254120   2.191   0.896   4.905  0.2345  0.4226 -0.3774
10902TIP3    H154121   2.175   0.983   4.940  1.2770  0.4661  0.0184
10902TIP3    H254122   2.111   0.874   4.857 -1.1233  0.4582  1.7744
10903TIP3   OH254123   6.039   2.391  16.284 -0.1797 -0.5477 -0.4587
10903TIP3    H154124   6.005   2.408  16.372  0.2039 -2.0220  0.0065
10903TIP3    H254125   6.110   2.454  16.274 -0.0071 -0.5809  0.4342
10904TIP3   OH254126   6.048   6.636  13.897  0.6561 -0.4558  0.1349
10904TIP3    H154127   6.040   6.709  13.835  1.1165 -1.5509 -1.2534
10904TIP3    H254128   6.041   6.678  13.983  2.5716  1.5016 -0.5407
10905TIP3   OH254129   2.913   1.549   1.507  0.3029  0.7787 -0.3700
10905TIP3    H154130   2.968   1.589   1.574  0.2011  1.6317 -0.7797
10905TIP3    H254131   2.973   1.523   1.438  0.3906  0.0443 -0.0168
10906TIP3   OH254132   1.858   5.013   2.737 -0.0231  0.0567  0.3006
10906TIP3    H154133   1.788   5.078   2.733  0.4256  0.4754 -1.3375
10906TIP3    H254134   1.929   5.056   2.785  0.2000  0.7327 -0.6079
10907TIP3   OH254135   4.113   4.807   5.100 -0.6815 -0.1699  0.0269
10907TIP3    H154136   4.206   4.805   5.121  0.0875 -0.1473 -2.8610
10907TIP3    H254137   4.081   4.720   5.121  0.0245 -0.2354  0.8718
10908TIP3   OH254138   2.191   3.265   5.832 -0.2008  0.1517 -0.1028
10908TIP3    H154139   2.205   3.293   5.923 -0.9699 -1.5039  0.5813
10908TIP3    H254140   2.231   3.178   5.828  0.4482  0.5025 -1.5671
10909TIP3   OH254141   3.443   2.330  15.056  0.0679 -0.9996  0.0630
10909TIP3    H154142   3.432   2.410  15.004 -2.5825 -1.8344 -0.8172
10909TIP3    H254143   3.414   2.354  15.144  1.6337 -0.4032  0.4558
10910TIP3   OH254144   0.298   6.547   3.018  0.7344  0.1740 -0.4270
10910TIP3    H154145   0.250   6.612   2.967  2.3795  1.0247 -0.9639
10910TIP3    H254146   0.271   6.563   3.109  0.8457  1.3822 -0.5881
10911TIP3   OH254147   4.289   0.743  16.907 -0.5467 -0.3770  0.2342
10911TIP3    H154148   4.262   0.790  16.986  0.9794 -1.4008  1.4264
10911TIP3    H254149   4.220   0.679  16.892 -0.8264 -0.2065  0.7700
10912TIP3   OH254150   1.957   1.075   2.848 -0.1246 -0.0002  0.1925
10912TIP3    H154151   1.970   1.131   2.772  1.9146 -2.2491 -1.2680
10912TIP3    H254152   1.944   1.136   2.921  2.0260  2.3723 -1.2457
10913TIP3   OH254153   0.605   4.977   0.680 -0.5802 -0.2885 -0.4262
10913TIP3    H154154   0.623   5.034   0.605 -1.6225 -0.8293 -1.1157
10913TIP3    H254155   0.519   5.006   0.712  0.3450  0.7168  1.3386
10914TIP3   OH254156   4.389   5.995   5.451  0.6043 -0.3567 -0.2965
10914TIP3    H154157   4.451   6.055   5.408  0.9460 -0.3080  0.2498
10914TIP3    H254158   4.369   6.038   5.534  0.1314 -0.5599 -0.3078
10915TIP3   OH254159   4.564   4.055  14.746  0.1519 -0.6000 -0.1051
10915TIP3    H154160   4.558   4.056  14.841 -1.2291  0.9929 -0.1669
10915TIP3    H254161   4.474   4.048  14.716  0.4832 -0.0448 -1.2928
10916TIP3   OH254162   0.537   1.629   5.884  0.0042 -0.0343 -0.3564
10916TIP3    H154163   0.447   1.649   5.909 -0.4042 -0.6061 -1.2839
10916TIP3    H254164   0.537   1.534   5.871  0.8465 -0.0877  0.0180
10917TIP3   OH254165   0.409   0.254  14.977 -0.0429  0.7447  0.2668
10917TIP3    H154166   0.454   0.251  14.892 -1.0282  2.4115 -0.3601
10917TIP3    H254167   0.462   0.199  15.034  0.1077 -1.2461 -1.6749
10918TIP3   OH254168   5.128   6.199   0.586  0.3190 -0.5762 -0.7678
10918TIP3    H154169   5.036   6.194   0.560  0.5273  1.2062 -2.0067
10918TIP3    H254170   5.171   6.246   0.515  2.2938 -1.7006 -0.4147
10919TIP3   OH254171   5.833   6.739   5.341  0.2563  0.7579 -0.1840
10919TIP3    H154172   5.841   6.820   5.292 -0.5068  0.5807 -0.6073
10919TIP3    H254173   5.748   6.744   5.385  0.1747  0.1645 -0.2585
10920TIP3   OH254174   5.246   5.588   1.405 -0.7472 -0.5483 -0.0071
10920TIP3    H154175   5.200   5.640   1.471  0.7428 -1.4029  1.8188
10920TIP3    H254176   5.203   5.503   1.408  1.1271 -1.5479  2.1470
10921TIP3   OH254177   0.628   5.953   2.532  0.2551 -0.2040  0.3901
10921TIP3    H154178   0.696   5.897   2.496  0.8505  0.2094  0.8303
10921TIP3    H254179   0.600   6.007   2.458  0.6284 -0.1687  0.2688
10922TIP3   OH254180   1.681   3.955  14.791 -0.2529 -0.3486 -0.3392
10922TIP3    H154181   1.602   3.902  14.803 -0.2726 -0.0921  0.8030
10922TIP3    H254182   1.651   4.032  14.743 -0.7176 -0.2351  0.1217
10923TIP3   OH254183   6.533   3.482  15.653  0.3536  0.2081 -0.1750
10923TIP3    H154184   6.531   3.536  15.732 -0.9129 -0.4527  0.2616
10923TIP3    H254185   6.626   3.462  15.640  0.7166  1.4130  0.3798
10924TIP3   OH254186   2.905   6.068   6.164 -0.8007 -0.3780  0.0292
10924TIP3    H154187   2.884   6.004   6.096  1.6807  1.0801 -2.3276
10924TIP3    H254188   2.878   6.152   6.128  2.3008  0.6685 -0.1329
10925TIP3   OH254189   2.558   4.432   0.333  0.3873  0.0986  0.0360
10925TIP3    H154190   2.488   4.379   0.369 -0.5025 -0.3312 -2.1388
10925TIP3    H254191   2.515   4.512   0.303  0.3140 -0.9584 -3.0856
10926TIP3   OH254192   5.973   5.281   1.973  0.2747  0.1878  0.3236
10926TIP3    H154193   5.945   5.192   1.991  0.2292  0.0619 -0.3630
10926TIP3    H254194   6.063   5.286   2.006  0.8044 -0.5502 -0.9614
10927TIP3   OH254195   0.628   2.740  11.495 -0.4676  0.6145 -0.3046
10927TIP3    H154196   0.583   2.658  11.517 -1.4483  1.1748 -0.1958
10927TIP3    H254197   0.634   2.739  11.400  1.0246 -0.3575 -0.2323
10928TIP3   OH254198   6.169   3.711   2.249  0.2198 -0.3427 -0.5586
10928TIP3    H154199   6.190   3.787   2.304 -2.5046  0.4716 -0.5301
10928TIP3    H254200   6.225   3.641   2.283  2.5491  1.4813 -0.3273
10929TIP3   OH254201   1.533   1.746   2.243  0.0677 -0.0484  0.2920
10929TIP3    H154202   1.511   1.833   2.276 -0.4427  0.0962 -0.4229
10929TIP3    H254203   1.463   1.724   2.182  1.3235 -0.0329 -1.2128
10930TIP3   OH254204   0.506   3.389   4.800  0.6695 -0.2044 -0.1897
10930TIP3    H154205   0.553   3.436   4.868  1.3844 -1.1395 -0.0189
10930TIP3    H254206   0.431   3.349   4.844 -1.9358  3.3817 -0.8921
10931TIP3   OH254207   2.711   2.881  14.915 -0.4707 -0.1329  0.4749
10931TIP3    H154208   2.621   2.885  14.948  0.0642  0.6078  1.8985
10931TIP3    H254209   2.743   2.795  14.942 -0.2388  0.2280  1.3636
10932TIP3   OH254210   0.504   3.579   3.113  0.1199 -0.4124 -0.0260
10932TIP3    H154211   0.446   3.655   3.119 -0.5638 -0.8836 -0.6056
10932TIP3    H254212   0.551   3.591   3.030  1.3949  0.3334  0.7700
10933TIP3   OH254213   3.503   2.218   4.282  0.1286  0.0099  0.0904
10933TIP3    H154214   3.466   2.274   4.213  1.8327  2.1217  0.7843
10933TIP3    H254215   3.597   2.220   4.267  0.3965 -0.8703  1.4993
10934TIP3   OH254216   2.544   3.788  16.726 -0.3519 -0.1051 -0.0842
10934TIP3    H154217   2.551   3.761  16.634 -0.6066 -1.0124  0.1554
10934TIP3    H254218   2.460   3.833  16.732  1.4989  3.9337 -1.2498
10935TIP3   OH254219   1.654   1.870  12.273 -0.2531 -0.4209 -0.4249
10935TIP3    H154220   1.591   1.941  12.286  0.5622  0.1030  0.8493
10935TIP3    H254221   1.606   1.791  12.297 -0.4472 -0.0288  0.5183
10936TIP3   OH254222   5.193   3.029  15.392  0.5017 -0.8721  0.0854
10936TIP3    H154223   5.112   3.079  15.402  1.1576  0.0060  1.3038
10936TIP3    H254224   5.207   2.990  15.478  2.8587  1.3633  0.8345
10937TIP3   OH254225   4.230   5.697  14.670 -0.3448  0.3332  0.3999
10937TIP3    H154226   4.242   5.620  14.725 -0.2771  0.4140  0.4987
10937TIP3    H254227   4.135   5.710  14.667 -0.3097  0.9699  1.3962
10938TIP3   OH254228   0.350   6.314   1.990 -0.0786 -0.1407  0.1218
10938TIP3    H154229   0.314   6.249   2.050 -1.6501  2.2836  1.9858
10938TIP3    H254230   0.436   6.280   1.966 -0.1361 -2.0738  2.3476
10939TIP3   OH254231   4.155   3.135  10.430 -0.7600 -0.0651 -0.3184
10939TIP3    H154232   4.076   3.081  10.440 -0.3288 -1.2634 -2.6028
10939TIP3    H254233   4.227   3.078  10.456 -0.4877  0.3437 -0.1619
10940TIP3   OH254234   5.876   1.766   4.763 -0.3573 -0.1171 -0.2786
10940TIP3    H154235   5.851   1.712   4.688  0.4397 -1.4634  0.3823
10940TIP3    H254236   5.815   1.741   4.832  1.2749 -1.7707  0.6589
10941TIP3   OH254237   0.650   3.700   3.302  0.3108  1.1607 -0.1847
10941TIP3    H154238   0.660   3.786   3.262  1.1773  0.1939 -2.1472
10941TIP3    H254239   0.611   3.646   3.234  3.6841 -1.0851 -0.5676
10942TIP3   OH254240   4.804   0.256  13.706  0.4449 -0.0194  0.1354
10942TIP3    H154241   4.742   0.328  13.722  2.7239  1.8045  1.2461
10942TIP3    H254242   4.804   0.206  13.788  2.1783  1.4589  1.1183
10943TIP3   OH254243   2.873   4.494  14.088 -0.4387 -0.0687 -0.0165
10943TIP3    H154244   2.820   4.519  14.013  0.4888  0.7707 -0.4272
10943TIP3    H254245   2.963   4.516  14.062  0.1781 -1.8741  0.4685
10944TIP3   OH254246   3.771   0.546   3.672  0.1515 -0.5961 -0.0554
10944TIP3    H154247   3.852   0.508   3.707  0.6615 -0.8727 -1.4750
10944TIP3    H254248   3.790   0.563   3.580 -0.8132  1.0658  0.0129
10945TIP3   OH254249   2.289   2.605  16.373  0.0093  0.4557  0.2471
10945TIP3    H154250   2.234   2.552  16.315 -0.9875  0.5288  1.0921
10945TIP3    H254251   2.363   2.630  16.319 -0.0589 -0.8551 -0.5096
10946TIP3   OH254252   1.329   2.821  13.165 -0.3815  0.1150  0.2843
10946TIP3    H154253   1.280   2.756  13.114  3.9638 -2.4602 -1.1847
10946TIP3    H254254   1.323   2.901  13.112 -0.4450 -0.9872 -1.4787
10947TIP3   OH254255   5.994   5.145   1.136  0.2294 -0.4881  0.1339
10947TIP3    H154256   6.089   5.133   1.142  0.7452  2.3093 -1.0912
10947TIP3    H254257   5.970   5.192   1.216  0.1477  0.1493 -0.2592
10948TIP3   OH254258   5.986   6.722  16.225 -0.3262  0.2508  0.7219
10948TIP3    H154259   5.925   6.776  16.274 -0.0915 -0.2890  1.6349
10948TIP3    H254260   6.032   6.783  16.167 -0.2343  0.9908  1.5564
10949TIP3   OH254261   0.862   0.391   4.538 -0.3388 -0.0948 -0.0704
10949TIP3    H154262   0.853   0.319   4.476  0.9042 -0.9634  0.7260
10949TIP3    H254263   0.798   0.456   4.509 -2.3586 -1.9967 -0.1138
10950TIP3   OH254264   0.379   2.444  17.048  0.4796 -0.6165 -0.4965
10950TIP3    H154265   0.302   2.485  17.009 -1.8549 -4.0297  0.0762
10950TIP3    H254266   0.378   2.473  17.139  0.4184  0.0747 -0.7129
10951TIP3   OH254267   6.468   4.078   5.649  0.0461  0.7015 -0.5643
10951TIP3    H154268   6.502   3.991   5.667 -1.7507 -0.2942 -1.6933
10951TIP3    H254269   6.406   4.095   5.720 -1.7202 -0.2135 -1.7973
10952TIP3   OH254270   6.393   5.515   4.256 -0.3082  0.0051 -0.4180
10952TIP3    H154271   6.406   5.420   4.254 -1.3051 -0.1243 -1.7307
10952TIP3    H254272   6.301   5.525   4.281 -0.0857  0.6543  0.1680
10953TIP3   OH254273   6.260   3.819  10.894  0.9812 -0.3004  0.0231
10953TIP3    H154274   6.280   3.763  10.819  3.8119 -2.2842  2.0151
10953TIP3    H254275   6.223   3.759  10.959  0.1742  1.0107  0.8224
10954TIP3   OH254276   5.542   2.506  13.591  0.0259  0.0737  0.0953
10954TIP3    H154277   5.575   2.502  13.501  1.4926 -0.3194  0.6276
10954TIP3    H254278   5.496   2.423  13.604 -0.9798  0.5009 -0.5537
10955TIP3   OH254279   0.681   5.797   5.274  0.0429  0.2127  0.5586
10955TIP3    H154280   0.638   5.721   5.315  2.9618 -0.9979  1.6199
10955TIP3    H254281   0.688   5.862   5.345  2.3032 -0.6899  1.2689
10956TIP3   OH254282   2.692   2.136   2.503  0.0596  0.1980 -0.3892
10956TIP3    H154283   2.721   2.174   2.420  1.5213  1.0230  0.4531
10956TIP3    H254284   2.770   2.093   2.539 -0.2913  0.6222  0.9575
10957TIP3   OH254285   1.790   3.585  11.155  0.8190  0.0725  0.0386
10957TIP3    H154286   1.798   3.621  11.244  1.7377 -1.4335  0.6048
10957TIP3    H254287   1.860   3.520  11.149  3.3008  2.6800 -3.1020
10958TIP3   OH254288   3.090   0.513  12.793  0.0610 -0.7817  0.1381
10958TIP3    H154289   3.160   0.469  12.745  0.1305 -1.0246  0.4579
10958TIP3    H254290   3.017   0.452  12.790 -0.7484  0.2127 -1.7268
10959TIP3   OH254291   1.235   4.455   2.810 -0.0995  0.0450 -0.2907
10959TIP3    H154292   1.302   4.523   2.815  0.8689 -0.9110  0.1203
10959TIP3    H254293   1.225   4.438   2.716  0.2038  0.2348 -0.3594
10960TIP3   OH254294   5.819   4.788   1.046  0.4398  0.6687  0.2301
10960TIP3    H154295   5.855   4.716   0.994  0.6069  1.6394 -1.0700
10960TIP3    H254296   5.851   4.772   1.135  2.5571  0.4781 -0.5108
10961TIP3   OH254297   1.908   5.326  13.604 -0.7462  0.2850  0.3753
10961TIP3    H154298   1.967   5.401  13.598  1.3204 -1.2093  0.8249
10961TIP3    H254299   1.904   5.291  13.515 -0.5288  0.0778  0.4469
10962TIP3   OH254300   3.202   0.741  16.814  0.1674  0.5796 -0.1388
10962TIP3    H154301   3.284   0.692  16.809  0.1384  0.4750  0.3042
10962TIP3    H254302   3.156   0.702  16.889  0.4228  1.7060  0.6413
10963TIP3   OH254303   1.368   1.221  17.279  0.0479 -0.0843 -0.3517
10963TIP3    H154304   1.305   1.290  17.257  0.6190  0.4255 -0.4212
10963TIP3    H254305   1.323   1.140  17.259 -0.9323  0.2406  0.4825
10964TIP3   OH254306   5.155   2.587   2.265 -0.0813  0.2024 -0.0854
10964TIP3    H154307   5.118   2.665   2.224  0.4109  2.0293  2.6426
10964TIP3    H254308   5.235   2.618   2.308 -0.2434 -1.6050  1.6817
10965TIP3   OH254309   0.100   1.383   4.530 -0.2208  0.3153 -0.5760
10965TIP3    H154310   0.061   1.316   4.585  0.2995 -0.6095 -1.3057
10965TIP3    H254311   0.152   1.437   4.590 -0.3832 -0.1274 -0.0360
10966TIP3   OH254312   4.844   3.228   4.975 -0.1653 -0.1556  0.3199
10966TIP3    H154313   4.854   3.164   5.045  1.1695  2.3128  2.5604
10966TIP3    H254314   4.777   3.289   5.007  0.8405  1.3251 -0.2880
10967TIP3   OH254315   6.571   1.063   6.211 -0.0293  0.0285 -0.3105
10967TIP3    H154316   6.666   1.071   6.207 -0.1161  1.5101 -0.2794
10967TIP3    H254317   6.540   1.154   6.204 -1.4014 -0.3396  0.6520
10968TIP3   OH254318   2.563   0.456  15.102 -0.8334 -0.6185 -0.1105
10968TIP3    H154319   2.635   0.475  15.162  1.9506 -1.5402 -2.8901
10968TIP3    H254320   2.580   0.367  15.072 -1.9035 -0.1184 -2.4189
10969TIP3   OH254321   5.078   1.571   0.306 -0.0332  0.3505  0.3871
10969TIP3    H154322   5.085   1.524   0.389  0.3811 -0.9907 -0.3835
10969TIP3    H254323   4.990   1.608   0.307 -0.2516 -0.1667  1.1597
10970TIP3   OH254324   1.347   2.242   6.197  0.2163 -0.0627  0.1393
10970TIP3    H154325   1.269   2.194   6.222 -0.1478  0.2553 -0.3560
10970TIP3    H254326   1.413   2.218   6.262 -0.0432 -1.0044  0.0604
10971TIP3   OH254327   2.089   2.889   2.412 -0.4086  0.3610 -0.2444
10971TIP3    H154328   2.147   2.885   2.489  0.0310  1.3618 -0.5054
10971TIP3    H254329   2.143   2.855   2.340 -0.3891  0.6273 -0.3546
10972TIP3   OH254330   5.858   3.193   0.524  0.2171  0.4371  0.2731
10972TIP3    H154331   5.820   3.177   0.611 -0.2809  0.7668  0.1241
10972TIP3    H254332   5.835   3.284   0.505  2.2812  1.1106  0.7564
10973TIP3   OH254333   6.374   6.590  13.550 -0.4434 -0.6283  0.1169
10973TIP3    H154334   6.388   6.535  13.473  2.3928 -3.5102  2.4036
10973TIP3    H254335   6.339   6.531  13.616  0.4702  0.8641  2.0480
10974TIP3   OH254336   0.072   1.689  15.311 -0.1410  0.5855  0.1960
10974TIP3    H154337   0.098   1.656  15.397  0.7332 -0.7159 -0.5419
10974TIP3    H254338   0.140   1.659  15.252 -1.7744 -0.3539 -1.3029
10975TIP3   OH254339   4.161   2.300   1.658  0.2610 -0.5800  0.3160
10975TIP3    H154340   4.198   2.243   1.592  1.3724 -1.6307  1.7875
10975TIP3    H254341   4.169   2.251   1.740 -2.1096  0.1820  1.0974
10976TIP3   OH254342   1.107   3.495   5.031  0.5739  0.1234  0.5989
10976TIP3    H154343   1.032   3.552   5.014  1.4328  1.0419 -0.1682
10976TIP3    H254344   1.153   3.536   5.104 -0.5450 -1.3366  2.2069
10977TIP3   OH254345   0.566   6.559  14.510  0.4301 -0.0383  0.0248
10977TIP3    H154346   0.591   6.513  14.430  0.1261 -0.1905  0.0140
10977TIP3    H254347   0.514   6.495  14.559 -0.1300  0.3375 -0.0622
10978TIP3   OH254348   1.849   5.270   0.041  0.2070 -0.2399 -0.2487
10978TIP3    H154349   1.764   5.244   0.007  0.0877  0.6840 -0.6822
10978TIP3    H254350   1.839   5.270   0.136  0.0668 -1.2501 -0.2539
10979TIP3   OH254351   4.174   4.624   2.227 -0.2532  0.0712 -0.2514
10979TIP3    H154352   4.225   4.651   2.150 -2.1381 -1.7879 -2.2839
10979TIP3    H254353   4.088   4.663   2.214 -1.1397 -1.7219 -0.0803
10980TIP3   OH254354   0.200   0.332   0.379  0.5979 -0.1742  0.1618
10980TIP3    H154355   0.127   0.393   0.370 -1.3669 -2.4733 -0.5901
10980TIP3    H254356   0.239   0.353   0.464 -0.8210  1.2610  0.5006
10981TIP3   OH254357   6.334   6.443  13.315  0.9849  0.5163  0.6273
10981TIP3    H154358   6.276   6.518  13.302  0.0392 -0.3523 -0.5184
10981TIP3    H254359   6.404   6.454  13.251 -0.9035 -1.1440 -1.9250
10982TIP3   OH254360   3.985   3.639  11.078 -0.0854  0.2169 -0.1078
10982TIP3    H154361   4.056   3.680  11.127  0.0569 -0.0020 -0.1277
10982TIP3    H254362   4.020   3.632  10.989  0.6091 -1.6110  0.2680
10983TIP3   OH254363   1.758   2.034   5.822  0.3561  0.0115 -0.6440
10983TIP3    H154364   1.705   2.043   5.902  0.9314 -0.8250 -0.1482
10983TIP3    H254365   1.830   1.976   5.848  2.1100  1.9268 -1.0013
10984TIP3   OH254366   4.816   3.981   5.990  0.1361  0.2997 -0.4278
10984TIP3    H154367   4.753   3.910   5.983 -1.0218  1.1963  0.5607
10984TIP3    H254368   4.767   4.054   6.027  1.1296  1.8165 -1.9125
10985TIP3   OH254369   2.106   5.299   4.979  0.0495 -0.3048  0.4444
10985TIP3    H154370   2.033   5.254   4.935  1.5988 -0.7705 -1.8272
10985TIP3    H254371   2.130   5.369   4.918  2.0538 -0.7266  0.6740
10986TIP3   OH254372   1.642   6.226   1.417  0.6332 -0.1646  0.2817
10986TIP3    H154373   1.638   6.141   1.460  1.7904 -0.5187 -0.2537
10986TIP3    H254374   1.630   6.206   1.324  0.3484  0.3212  0.2119
10987TIP3   OH254375   0.009   1.411  13.185 -0.0820 -0.2060 -0.1407
10987TIP3    H154376   0.100   1.442  13.186 -0.5602  1.3043 -0.6810
10987TIP3    H254377  -0.022   1.425  13.275 -0.1713  0.5837 -0.2821
10988TIP3   OH254378   3.296   2.813   2.378 -0.1576  1.0592 -0.0028
10988TIP3    H154379   3.227   2.873   2.408  1.7306  2.7135  1.3108
10988TIP3    H254380   3.363   2.818   2.447  1.6909  0.2410 -1.6554
10989TIP3   OH254381   6.635   4.494   4.397  0.1014 -0.5460 -0.0629
10989TIP3    H154382   6.582   4.551   4.341  1.2207 -0.7666 -1.3903
10989TIP3    H254383   6.634   4.538   4.483 -2.1904 -0.5494 -0.0179
10990TIP3   OH254384   6.234   2.496  13.986  0.1243  0.2079 -0.0395
10990TIP3    H154385   6.174   2.507  14.060  0.6928 -1.9472  0.8126
10990TIP3    H254386   6.223   2.405  13.960  1.2282  0.4671 -1.4879
10991TIP3   OH254387   2.791   6.752   5.046 -0.5706 -0.1815  0.2493
10991TIP3    H154388   2.788   6.835   4.999 -0.3168 -0.8286 -0.9734
10991TIP3    H254389   2.853   6.767   5.118 -0.5532  0.6891  0.0606
10992TIP3   OH254390   2.593   1.001  12.637 -0.6141 -0.3010  0.7190
10992TIP3    H154391   2.616   0.909  12.640 -0.5708 -0.2855  0.8518
10992TIP3    H254392   2.553   1.019  12.722 -0.0836 -0.0572  0.9216
10993TIP3   OH254393   2.785   1.433  14.197  0.1580  0.1061 -0.1484
10993TIP3    H154394   2.760   1.394  14.113 -0.0887 -0.3075  0.1139
10993TIP3    H254395   2.778   1.527  14.182  0.0134  0.0334 -0.5644
10994TIP3   OH254396   3.129   2.873  12.122  0.0257  0.5532  0.0663
10994TIP3    H154397   3.128   2.802  12.187  2.6930 -0.2837 -0.6602
10994TIP3    H254398   3.071   2.842  12.052 -1.4346  0.6400  1.1863
10995TIP3   OH254399   4.824   1.957  12.219 -0.8967  0.9115 -0.4131
10995TIP3    H154400   4.818   1.883  12.159 -0.0819  0.2351  0.3145
10995TIP3    H254401   4.906   2.001  12.195 -0.2135  0.2419  0.6147
10996TIP3   OH254402   4.609   5.142  11.600 -0.0686 -1.0183  0.2907
10996TIP3    H154403   4.590   5.048  11.596 -2.1157 -0.7082  1.6020
10996TIP3    H254404   4.544   5.182  11.543 -0.7470 -0.2355  1.5686
10997TIP3   OH254405   6.577   2.663   1.080  0.1461  0.6254  0.7163
10997TIP3    H154406   6.581   2.756   1.101 -1.4295  0.8203  0.2731
10997TIP3    H254407   6.583   2.619   1.164 -1.0310  1.2164  1.1291
10998TIP3   OH254408   0.335   5.641  13.424 -0.1519 -0.1358  0.0524
10998TIP3    H154409   0.266   5.643  13.357 -0.3027 -3.4422 -0.0602
10998TIP3    H254410   0.410   5.685  13.383 -0.7345 -0.7240 -1.7297
10999TIP3   OH254411   5.733   1.115  14.128 -0.0976 -0.2461  0.7667
10999TIP3    H154412   5.738   1.207  14.102  0.1016 -0.4447  0.0647
10999TIP3    H254413   5.703   1.070  14.049 -0.2149 -0.7776  1.1127
11000TIP3   OH254414   3.523   5.781  11.295  0.1103 -0.0301 -0.0166
11000TIP3    H154415   3.616   5.788  11.316 -0.2597 -1.6666  2.6174
11000TIP3    H254416   3.520   5.782  11.199  2.8731 -0.3236 -0.1835
11001TIP3   OH254417   1.741   5.490   6.629  0.4932 -0.6555 -0.3033
11001TIP3    H154418   1.695   5.565   6.664  0.1919 -0.5359 -0.9425
11001TIP3    H254419   1.737   5.424   6.699 -0.3004 -0.5089 -0.1994
11002TIP3   OH254420   5.286   6.464  16.829  0.2832 -0.3866 -0.1720
11002TIP3    H154421   5.300   6.520  16.753  0.4364 -0.0358  0.1119
11002TIP3    H254422   5.316   6.378  16.801 -2.5731 -1.0456 -1.5911
11003TIP3   OH254423   2.004   3.513   1.912  0.2705  0.4494  0.1436
11003TIP3    H154424   1.915   3.508   1.878  0.0740  2.7683  0.1014
11003TIP3    H254425   2.005   3.455   1.988 -1.5144  0.9680  0.6041
11004TIP3   OH254426   5.494   3.653   0.424  0.1421 -0.2334  0.0213
11004TIP3    H154427   5.481   3.572   0.375 -1.3999 -1.0970  1.7249
11004TIP3    H254428   5.443   3.641   0.504 -0.5792  2.6606  0.1132
11005TIP3   OH254429   3.697   1.020   4.245  0.1468 -0.7501 -0.0377
11005TIP3    H154430   3.639   0.971   4.304 -1.9860 -0.6957 -1.9584
11005TIP3    H254431   3.670   1.111   4.253  1.3170 -0.4236  0.4599
11006TIP3   OH254432   4.810   3.315  11.399  0.0787  0.2943  0.6849
11006TIP3    H154433   4.887   3.303  11.344  0.3973 -2.2365  1.5630
11006TIP3    H254434   4.752   3.372  11.348  1.4260  0.1214 -1.1105
11007TIP3   OH254435   2.385   4.762   3.625  0.1524  0.1742 -0.2641
11007TIP3    H154436   2.445   4.687   3.614  2.2014  1.5328  0.9329
11007TIP3    H254437   2.387   4.780   3.719 -0.8354  1.3421 -0.4496
11008TIP3   OH254438   3.242   5.369  11.170 -0.5401 -0.0366 -0.6242
11008TIP3    H154439   3.211   5.403  11.254 -1.4165 -1.8001 -0.1706
11008TIP3    H254440   3.337   5.373  11.176 -0.5996  0.3985  0.2247
11009TIP3   OH254441   6.416   6.298   5.782  0.7545 -0.4073  0.5555
11009TIP3    H154442   6.373   6.347   5.711 -1.7163  2.6512  3.7809
11009TIP3    H254443   6.404   6.206   5.759 -2.9149  0.3897 -1.4395
11010TIP3   OH254444   3.698   6.632  11.861  0.2199 -0.4037  0.1603
11010TIP3    H154445   3.792   6.650  11.854  0.7709 -3.0750 -0.2177
11010TIP3    H254446   3.689   6.579  11.940 -0.5999 -2.0398 -0.9671
11011TIP3   OH254447   1.924   2.674  13.184  0.5950  0.1423  0.6665
11011TIP3    H154448   2.009   2.683  13.227  1.1099 -0.4231 -0.2036
11011TIP3    H254449   1.924   2.585  13.150  0.6851  0.8848 -1.4563
11012TIP3   OH254450   2.473   3.511  16.988 -0.2308 -0.5447 -0.2281
11012TIP3    H154451   2.516   3.592  17.015 -1.8040  0.2363  0.0164
11012TIP3    H254452   2.400   3.500  17.049 -1.6491 -0.7221 -1.8637
11013TIP3   OH254453   1.561   0.495  12.144  0.1009  0.3734  0.4161
11013TIP3    H154454   1.656   0.487  12.159  0.5069  0.3803 -1.8647
11013TIP3    H254455   1.541   0.586  12.167  0.9136  0.7472 -0.2887
11014TIP3   OH254456   4.909   1.677   2.058 -0.4907  0.2853  0.8182
11014TIP3    H154457   4.911   1.756   2.004  1.2667  1.1165  1.9954
11014TIP3    H254458   4.980   1.623   2.024  2.2893  1.8660  3.6144
11015TIP3   OH254459   3.976   5.971   1.553  0.3377  0.0529  0.2387
11015TIP3    H154460   4.069   5.955   1.538 -0.0605 -1.1392 -1.1411
11015TIP3    H254461   3.965   6.064   1.533  0.9605 -0.1539 -1.1691
11016TIP3   OH254462   3.332   4.151   0.772 -0.7294 -0.4507  0.6744
11016TIP3    H154463   3.406   4.170   0.830 -0.1218  0.7752 -0.4621
11016TIP3    H254464   3.316   4.058   0.784  2.6765 -1.3915 -0.9345
11017TIP3   OH254465   0.300   3.278  10.988 -0.1344  0.1304  0.1499
11017TIP3    H154466   0.328   3.226  10.913 -0.6888  1.0656 -0.7334
11017TIP3    H254467   0.281   3.365  10.952 -2.2055  0.1028  1.0088
11018TIP3   OH254468   3.129   0.118   0.894 -0.1712 -0.2214 -0.2158
11018TIP3    H154469   3.128   0.129   0.989 -1.1740  1.9716 -0.4186
11018TIP3    H254470   3.083   0.195   0.860 -0.2236 -1.1590 -2.4728
11019TIP3   OH254471   2.070   6.433  11.443 -0.2904 -0.1451 -0.1578
11019TIP3    H154472   2.009   6.499  11.410  0.4186  1.3958  1.4538
11019TIP3    H254473   2.133   6.483  11.496  0.3627 -2.1044  1.0020
11020TIP3   OH254474   0.138   1.520   0.784  0.6786 -0.5438  0.2050
11020TIP3    H154475   0.158   1.489   0.872 -0.3187  1.5818  1.2456
11020TIP3    H254476   0.094   1.447   0.742  1.0223 -1.5415  1.5241
11021TIP3   OH254477   4.798   5.526   4.452  0.2347  0.1075 -0.3076
11021TIP3    H154478   4.758   5.494   4.533  2.2780  0.3440  0.8531
11021TIP3    H254479   4.752   5.479   4.382 -0.6714 -1.0927  1.0529
11022TIP3   OH254480   4.192   5.000   4.915  0.0440  0.1272 -0.5493
11022TIP3    H154481   4.263   5.063   4.911  1.0133 -0.8697  0.2529
11022TIP3    H254482   4.200   4.960   5.002  0.8387 -2.5940 -1.7466
11023TIP3   OH254483   0.260   1.441  15.383 -0.0206 -0.2825  0.4652
11023TIP3    H154484   0.287   1.530  15.407  1.3716 -0.4121 -0.4805
11023TIP3    H254485   0.180   1.426  15.433  0.3645  1.0593  1.5660
11024TIP3   OH254486   5.634   5.307  13.347  0.1653  0.0343  0.5495
11024TIP3    H154487   5.644   5.387  13.295 -0.5603 -2.5301 -4.0207
11024TIP3    H254488   5.724   5.279  13.365  0.4831  0.1576 -0.7825
11025TIP3   OH254489   3.446   2.507   3.275 -0.0239  0.1357  0.5802
11025TIP3    H154490   3.459   2.413   3.264 -0.2405  0.0153  1.3564
11025TIP3    H254491   3.377   2.530   3.212  0.4557 -0.1079 -0.0428
11026TIP3   OH254492   3.852   3.697  17.166 -0.3379 -0.2930  0.1544
11026TIP3    H154493   3.928   3.740  17.206 -0.1509 -0.5544  0.0860
11026TIP3    H254494   3.872   3.693  17.073 -0.1636 -0.8976  0.2121
11027TIP3   OH254495   0.613   3.421  17.276 -0.2308 -0.0506  0.3542
11027TIP3    H154496   0.693   3.407  17.225 -0.6243  1.0117 -0.5977
11027TIP3    H254497   0.542   3.402  17.215 -0.7137  1.4203  0.4259
11028TIP3   OH254498   3.167   1.633  14.864  0.4981 -0.6094  0.1134
11028TIP3    H154499   3.081   1.592  14.851 -0.0557  0.5532 -0.0334
11028TIP3    H254500   3.148   1.726  14.875  1.7932 -0.2325 -0.5594
11029TIP3   OH254501   1.446   1.493  16.049  0.2514  0.3072 -0.2676
11029TIP3    H154502   1.389   1.529  16.117  0.4341  1.5983 -0.7657
11029TIP3    H254503   1.443   1.399  16.063  1.5610  0.5802  2.5642
11030TIP3   OH254504   6.558   4.063  16.242  0.0388  0.1182  0.4052
11030TIP3    H154505   6.555   4.039  16.149 -2.9204  1.6408 -0.0157
11030TIP3    H254506   6.609   3.993  16.283  0.5018 -1.1870 -2.1889
11031TIP3   OH254507   3.960   4.603   1.546  0.0199 -0.3839 -0.5864
11031TIP3    H154508   4.015   4.539   1.501  0.6581  1.1483 -2.0668
11031TIP3    H254509   3.870   4.571   1.531  0.3756 -1.8309  0.1729
11032TIP3   OH254510   6.720   2.547   0.327  0.6242 -0.6062 -0.1075
11032TIP3    H154511   6.651   2.527   0.263  1.1273 -0.5793 -0.6677
11032TIP3    H254512   6.685   2.619   0.379 -0.5728 -1.8518  0.8998
11033TIP3   OH254513   0.053   6.029  12.540 -0.5134  0.2838 -0.4164
11033TIP3    H154514   0.020   6.051  12.627 -0.1091 -0.1380 -0.1514
11033TIP3    H254515   0.147   6.049  12.545 -0.4781  0.1962 -0.7352
11034TIP3   OH254516   6.527   0.510  15.678 -0.4385 -0.7692  0.2101
11034TIP3    H154517   6.480   0.441  15.725 -3.0821  0.2468 -0.7704
11034TIP3    H254518   6.520   0.486  15.586  0.7972 -0.4474  0.0095
11035TIP3   OH254519   5.315   1.509  16.953 -0.2019 -0.3127  0.2599
11035TIP3    H154520   5.370   1.447  17.000 -1.5688 -0.2285  2.0657
11035TIP3    H254521   5.227   1.471  16.957 -0.5574  0.2914 -1.2223
11036TIP3   OH254522   3.947   1.222   2.781 -0.0519 -0.3172 -0.4502
11036TIP3    H154523   3.892   1.274   2.722 -1.9200  2.3886  3.2505
11036TIP3    H254524   3.966   1.281   2.855 -0.6341 -4.2004  3.1970
11037TIP3   OH254525   2.485   1.483  10.549  0.7585 -0.0200  0.2080
11037TIP3    H154526   2.520   1.551  10.491  2.2987 -0.7977  0.1765
11037TIP3    H254527   2.560   1.454  10.601 -0.4659  0.2755  2.2438
11038TIP3   OH254528   3.003   0.753  14.352 -0.0199 -0.0559 -0.2536
11038TIP3    H154529   2.965   0.669  14.323  1.9768 -1.1096 -0.0089
11038TIP3    H254530   3.076   0.768  14.291  0.7376  0.5893  0.7899
11039TIP3   OH254531   1.358   3.302   2.361  0.7352 -0.1417 -0.7603
11039TIP3    H154532   1.367   3.397   2.352 -2.1009  0.6936  2.7183
11039TIP3    H254533   1.264   3.286   2.349  1.3059 -2.8019 -2.5200
11040TIP3   OH254534   1.908   0.217   0.704 -0.6069  0.2304  0.4381
11040TIP3    H154535   1.933   0.189   0.616  0.9098  1.4178  0.4480
11040TIP3    H254536   1.834   0.276   0.690 -0.3110  0.4946 -0.0699
11041TIP3   OH254537   2.461   1.481  15.125  0.0829 -0.2548  0.3795
11041TIP3    H154538   2.557   1.478  15.120 -0.0072 -2.4397 -1.0861
11041TIP3    H254539   2.432   1.393  15.102 -2.3506  0.8975 -1.5457
11042TIP3   OH254540   6.511   3.034   1.522  0.2206  0.5687 -0.5321
11042TIP3    H154541   6.581   3.051   1.458  0.6936 -1.3412 -0.5708
11042TIP3    H254542   6.451   3.108   1.512  0.2175  0.2929 -3.2770
11043TIP3   OH254543   3.643   6.444  11.348 -0.1957 -0.4437  0.0674
11043TIP3    H154544   3.603   6.527  11.323 -1.1357 -0.8288  0.2468
11043TIP3    H254545   3.670   6.456  11.439 -1.2464 -0.6608  0.4147
11044TIP3   OH254546   2.353   5.414   4.348  0.1191  0.5059  0.2267
11044TIP3    H154547   2.444   5.435   4.368  0.5274 -0.6338 -0.3372
11044TIP3    H254548   2.303   5.487   4.384  1.2277  1.0004  0.8124
11045TIP3   OH254549   1.311   4.600  14.729 -0.2253  0.3135 -0.4436
11045TIP3    H154550   1.394   4.617  14.684  0.5227  1.0302  1.0913
11045TIP3    H254551   1.278   4.687  14.752  0.0003 -0.0321  1.3242
11046TIP3   OH254552   0.128   0.082   2.033 -0.1374  0.4156 -0.1548
11046TIP3    H154553   0.178   0.015   1.986 -1.4636 -0.9979  0.3508
11046TIP3    H254554   0.055   0.102   1.974 -0.1630  0.8448  0.0275
11047TIP3   OH254555   5.215   4.468  13.305  0.3714  0.1872  0.3067
11047TIP3    H154556   5.216   4.392  13.362 -1.6878  0.5816  0.9459
11047TIP3    H254557   5.193   4.541  13.362 -0.0313  0.8716 -0.6862
11048TIP3   OH254558   6.386   5.155  11.941 -0.4621  0.0797 -0.3934
11048TIP3    H154559   6.351   5.181  12.027 -1.6486  0.6958 -1.0338
11048TIP3    H254560   6.428   5.234  11.908  0.8136 -0.4188 -0.0033
11049TIP3   OH254561   3.571   2.198   6.422 -0.0359 -0.2248  0.1372
11049TIP3    H154562   3.483   2.231   6.403 -0.1398  0.2277  1.2869
11049TIP3    H254563   3.556   2.111   6.461 -0.1136  0.5566  1.9326
11050TIP3   OH254564   4.384   1.970  16.997  0.3366 -0.1846  0.1422
11050TIP3    H154565   4.375   1.992  17.089 -0.9349 -1.5871  0.3852
11050TIP3    H254566   4.390   2.054  16.952 -2.2578  0.6387  1.1901
11051TIP3   OH254567   5.824   5.325   2.956 -0.3561 -1.3287  1.1073
11051TIP3    H154568   5.845   5.377   2.879  1.8240 -2.6231  0.7275
11051TIP3    H254569   5.737   5.355   2.983 -0.9693 -0.4879 -1.5259
11052TIP3   OH254570   2.192   2.915  11.008 -0.5449  0.1970  0.1120
11052TIP3    H154571   2.191   2.867  10.925 -1.2907  1.2418 -0.5045
11052TIP3    H254572   2.269   2.972  11.001 -1.3544  1.2439 -0.4422
11053TIP3   OH254573   1.500   6.596   6.642  0.3766 -0.1767  0.5639
11053TIP3    H154574   1.521   6.549   6.561  0.8556  0.5322  0.2622
11053TIP3    H254575   1.559   6.559   6.707 -0.4003 -1.1436  0.7340
11054TIP3   OH254576   6.520   4.540   0.904 -0.1458  0.4361 -0.3133
11054TIP3    H154577   6.529   4.635   0.902  0.1305  0.4127 -0.1971
11054TIP3    H254578   6.438   4.525   0.952  0.0790  0.6000  0.1224
11055TIP3   OH254579   4.977   3.761  15.138 -0.2615 -0.2620 -0.2612
11055TIP3    H154580   5.053   3.812  15.166  0.4538 -1.6146  0.3634
11055TIP3    H254581   4.911   3.778  15.205  0.0192 -0.2522  0.0184
11056TIP3   OH254582   1.839   6.297   2.822  0.1651  0.7799  0.1312
11056TIP3    H154583   1.880   6.348   2.892  0.8901  0.2438  0.1058
11056TIP3    H254584   1.747   6.289   2.850 -0.1064  2.5437 -0.1389
11057TIP3   OH254585   0.586   3.242   0.527 -0.2214 -0.6803  0.5045
11057TIP3    H154586   0.635   3.162   0.545  0.2732 -0.8624 -1.4796
11057TIP3    H254587   0.643   3.312   0.560 -0.3785 -1.0743  1.6764
11058TIP3   OH254588   2.188   1.822   4.076  0.5063 -0.6059 -0.3025
11058TIP3    H154589   2.275   1.784   4.089  0.2412 -0.7592  1.1487
11058TIP3    H254590   2.169   1.805   3.984  1.7315 -1.1621 -0.4832
11059TIP3   OH254591   3.348   3.876  14.261 -0.0496 -0.2453  0.4285
11059TIP3    H154592   3.378   3.958  14.299 -0.3017  0.1803 -0.2737
11059TIP3    H254593   3.401   3.865  14.183 -1.4691  0.3675 -0.6624
11060TIP3   OH254594   5.539   5.905   6.255 -0.2391  0.5394 -0.1959
11060TIP3    H154595   5.445   5.898   6.273 -0.0543 -1.9063  0.1992
11060TIP3    H254596   5.581   5.878   6.337  0.8172  1.3598 -0.4502
11061TIP3   OH254597   5.636   1.913   2.959 -0.1958  0.1675 -0.0137
11061TIP3    H154598   5.682   1.884   3.038  1.5449  2.0025 -0.2557
11061TIP3    H254599   5.647   1.842   2.897 -0.0193 -0.5479  0.8184
11062TIP3   OH254600   3.663   2.981  15.658 -0.1086 -0.1189  0.0574
11062TIP3    H154601   3.689   3.072  15.646 -0.8147  0.0737 -0.0779
11062TIP3    H254602   3.733   2.942  15.710 -0.2047  0.7090  0.8280
11063TIP3   OH254603   1.572   4.565   4.656 -0.7509  0.2812  0.0582
11063TIP3    H154604   1.505   4.609   4.603 -0.9700 -0.9379 -0.7188
11063TIP3    H254605   1.588   4.482   4.610  1.8321  0.8334 -0.1802
11064TIP3   OH254606   1.983   2.620   3.544 -0.5087 -0.4756 -0.4018
11064TIP3    H154607   1.941   2.688   3.491 -0.5818 -1.0418 -1.0893
11064TIP3    H254608   1.936   2.540   3.520 -0.8057 -0.6908  0.8157
11065TIP3   OH254609   3.202   0.384   4.326 -0.1366  0.0218 -0.0893
11065TIP3    H154610   3.266   0.356   4.260 -0.7227  1.5401 -1.3825
11065TIP3    H254611   3.251   0.440   4.385 -0.2067  1.0905 -1.0103
11066TIP3   OH254612   4.008   4.222   0.947  0.1912 -0.2518 -0.4227
11066TIP3    H154613   3.986   4.149   0.889  0.2605 -0.4997 -0.1389
11066TIP3    H254614   4.103   4.233   0.937  0.2109 -0.3266 -0.3196
11067TIP3   OH254615   4.309   0.808   4.071  0.2473  0.0923 -0.9127
11067TIP3    H154616   4.292   0.745   4.141 -1.7434  0.4834 -0.9988
11067TIP3    H254617   4.400   0.791   4.046  1.2168  0.2940  2.0857
11068TIP3   OH254618   3.430   6.310   3.111 -0.9541  0.7244  0.1238
11068TIP3    H154619   3.389   6.351   3.188 -0.8402  0.4396  0.3373
11068TIP3    H254620   3.397   6.220   3.112 -2.0925  1.0947 -0.9747
11069TIP3   OH254621   1.119   4.899   5.155 -0.3144 -0.2354 -0.2565
11069TIP3    H154622   1.179   4.939   5.093 -0.2155  1.9270  1.1470
11069TIP3    H254623   1.157   4.813   5.173  2.0042  0.7676  0.0081
11070TIP3   OH254624   1.278   4.808  12.903 -0.3225  0.4154  0.4277
11070TIP3    H154625   1.254   4.816  12.811 -0.1857  0.3064  0.3816
11070TIP3    H254626   1.236   4.727  12.932  3.2303 -2.0716 -0.7114
11071TIP3   OH254627   5.016   1.497   6.044  0.3343  0.2525  0.0104
11071TIP3    H154628   5.018   1.463   5.955  1.2689 -1.7873  0.7493
11071TIP3    H254629   5.107   1.520   6.063  0.1047  0.8890  0.3765
11072TIP3   OH254630   0.085   1.400   0.328 -0.6495 -0.2994  0.1281
11072TIP3    H154631   0.063   1.356   0.246 -0.8088 -0.5163  0.2841
11072TIP3    H254632   0.124   1.331   0.383  2.7549  0.5509 -0.9815
11073TIP3   OH254633   2.060   6.344  13.867  0.1706 -0.5764 -0.3030
11073TIP3    H154634   2.123   6.300  13.924 -0.5643 -0.9824  0.2124
11073TIP3    H254635   2.084   6.315  13.779 -0.4198 -2.2216  0.0347
11074TIP3   OH254636   6.633   5.801   2.350  0.0232 -0.4076 -0.7322
11074TIP3    H154637   6.599   5.843   2.271  0.1505  1.7119  0.2863
11074TIP3    H254638   6.697   5.736   2.317 -1.4912 -1.1258 -2.4241
11075TIP3   OH254639   0.027   6.725   1.022  0.5223 -0.1830 -0.6059
11075TIP3    H154640   0.084   6.664   1.068  1.5594  1.2443  0.0858
11075TIP3    H254641  -0.042   6.745   1.085  0.4762 -0.2516 -0.6353
11076TIP3   OH254642   0.937   4.237  17.293  0.5666  0.2702 -0.6500
11076TIP3    H154643   0.975   4.319  17.326  1.1621  1.3577 -3.6471
11076TIP3    H254644   0.868   4.266  17.232 -1.6850 -1.5945  0.8581
11077TIP3   OH254645   5.331   6.216   4.552  0.7074  0.4587 -0.4638
11077TIP3    H154646   5.337   6.123   4.530 -3.0513 -0.2574  0.7938
11077TIP3    H254647   5.340   6.262   4.469 -1.2012 -1.3606 -1.7703
11078TIP3   OH254648   1.095   4.164   1.516  0.6253  0.5096 -0.0099
11078TIP3    H154649   1.147   4.090   1.483 -1.0159 -0.1659 -1.2068
11078TIP3    H254650   1.071   4.213   1.438 -0.5115  0.8200  0.5207
11079TIP3   OH254651   1.017   3.829  14.993  0.3793  0.4822  0.5960
11079TIP3    H154652   1.009   3.768  14.919  1.6694 -2.7318  2.8625
11079TIP3    H254653   0.930   3.868  15.001 -0.6434 -1.3268 -0.8457
11080TIP3   OH254654   2.478   2.659  14.377 -0.0359  0.1011 -0.0033
11080TIP3    H154655   2.555   2.671  14.432  2.1061  1.4572 -2.9926
11080TIP3    H254656   2.474   2.565  14.361  0.3634 -0.0969  1.0248
11081TIP3   OH254657   0.180   3.977   3.210 -0.2924 -0.1752 -0.0811
11081TIP3    H154658   0.179   4.027   3.291  0.0624 -0.4399  0.0928
11081TIP3    H254659   0.090   3.980   3.178 -0.4158 -0.0014  0.2794
11082TIP3   OH254660   0.552   4.482   1.854 -0.3246 -0.1161  0.1125
11082TIP3    H154661   0.567   4.440   1.769 -0.0604  1.7371 -0.8189
11082TIP3    H254662   0.473   4.441   1.888 -0.5919 -0.7099 -1.1778
11083TIP3   OH254663   2.331   1.846  15.191  0.1439 -0.2413 -0.0531
11083TIP3    H154664   2.253   1.819  15.240 -0.0612  1.5961  0.7420
11083TIP3    H254665   2.317   1.940  15.177  1.7644 -0.0888 -0.7701
11084TIP3   OH254666   2.149   6.082  10.607  0.3624 -0.4497 -0.2454
11084TIP3    H154667   2.162   5.987  10.606  2.7458 -0.2064  0.7716
11084TIP3    H254668   2.237   6.118  10.615 -0.4756  1.8783 -0.8000
11085TIP3   OH254669   1.140   1.635   1.980 -0.3644  0.5306  0.2619
11085TIP3    H154670   1.215   1.580   2.002  0.4671  1.7303  0.5728
11085TIP3    H254671   1.116   1.610   1.891 -1.2629 -1.6669  1.0488
11086TIP3   OH254672   2.699   6.497  13.553 -0.8715 -0.1657  0.2412
11086TIP3    H154673   2.716   6.546  13.472  0.4153 -0.8061  0.0969
11086TIP3    H254674   2.612   6.525  13.580 -0.6091  1.3704 -0.4237
11087TIP3   OH254675   0.774   2.835   0.323 -0.2519 -0.5924 -0.5302
11087TIP3    H154676   0.820   2.909   0.283  0.4011  0.4954  2.0598
11087TIP3    H254677   0.824   2.758   0.294 -0.2332  0.0321 -2.2987
11088TIP3   OH254678   3.225   0.367  13.068  0.1281 -0.0061 -0.1078
11088TIP3    H154679   3.262   0.442  13.023  1.9175 -0.0042  1.2504
11088TIP3    H254680   3.151   0.340  13.014  0.1030  2.0477 -1.1880
11089TIP3   OH254681   2.190   1.458  14.471  0.5576 -0.7334  0.1505
11089TIP3    H154682   2.215   1.367  14.456  0.0192 -0.9733  0.7049
11089TIP3    H254683   2.107   1.468  14.425  0.8108 -0.4027 -0.2476
11090TIP3   OH254684   4.469   0.342  16.586 -0.2492 -0.6030 -0.3389
11090TIP3    H154685   4.480   0.290  16.666 -1.5708 -2.4432 -1.2797
11090TIP3    H254686   4.382   0.319  16.554 -0.7239  1.9407 -1.0620
11091TIP3   OH254687   0.513   4.482   3.610  0.6267 -0.3417 -0.3486
11091TIP3    H154688   0.478   4.510   3.695  2.3051  0.0679  0.2401
11091TIP3    H254689   0.455   4.523   3.546 -1.0284 -1.1328  0.5725
11092TIP3   OH254690   5.179   0.766   2.296  0.0263  0.1262 -0.0414
11092TIP3    H154691   5.248   0.828   2.269 -2.0114  2.7887  0.4133
11092TIP3    H254692   5.164   0.786   2.388 -1.9733  0.2848 -0.3663
11093TIP3   OH254693   6.486   2.230  11.746  0.0403  0.4169 -0.4698
11093TIP3    H154694   6.457   2.229  11.837  0.5848 -3.6337 -0.1169
11093TIP3    H254695   6.406   2.231  11.695 -0.4370 -0.5649  0.2129
11094TIP3   OH254696   6.600   6.514   2.975  0.0945  0.4024  0.4545
11094TIP3    H154697   6.518   6.563   2.977 -0.5201 -0.6124  0.8590
11094TIP3    H254698   6.585   6.445   2.910  0.7264  0.3601  0.3425
11095TIP3   OH254699   2.941   0.716  12.530 -0.1040 -0.3242  0.2772
11095TIP3    H154700   2.913   0.757  12.611  1.6708 -1.7191  1.6821
11095TIP3    H254701   3.037   0.720  12.533  0.0161 -1.1264 -1.3657
11096TIP3   OH254702   0.236   4.094  13.444  0.2680  0.1831 -0.1626
11096TIP3    H154703   0.325   4.076  13.474 -0.0983 -1.0009  0.2891
11096TIP3    H254704   0.247   4.139  13.360  1.2876  0.7413  0.2586
11097TIP3   OH254705   4.458   6.166  11.546  0.1234 -0.2851  0.1313
11097TIP3    H154706   4.515   6.091  11.529 -0.5309 -0.6911 -0.3350
11097TIP3    H254707   4.398   6.136  11.614 -0.0634 -0.1421  0.0297
11098TIP3   OH254708   4.797   3.400  16.677  0.0209 -0.1121  0.2320
11098TIP3    H154709   4.777   3.314  16.640 -0.3697 -0.6668  1.6708
11098TIP3    H254710   4.828   3.451  16.602 -1.0558 -1.0666 -0.9160
11099TIP3   OH254711   3.838   5.498  14.270  0.0198  0.1094  0.1820
11099TIP3    H154712   3.878   5.475  14.354 -0.4423  1.3984  0.7771
11099TIP3    H254713   3.745   5.480  14.282 -0.0036 -0.0248 -0.1777
11100TIP3   OH254714   0.298   6.273   4.217  0.0095  0.0065 -0.0501
11100TIP3    H154715   0.382   6.229   4.229  0.4034  1.2091  2.3063
11100TIP3    H254716   0.241   6.232   4.282 -0.5681  0.6861 -0.1242
11101TIP3   OH254717   2.610   0.645  10.643  0.4386 -0.4559  0.4940
11101TIP3    H154718   2.685   0.646  10.703  0.1248 -1.0615  0.9003
11101TIP3    H254719   2.637   0.701  10.570  0.1255  1.8086  2.0274
11102TIP3   OH254720   6.444   1.042  17.232  0.5670  0.3941 -0.2398
11102TIP3    H154721   6.497   1.009  17.305  0.1184  0.8815  0.3102
11102TIP3    H254722   6.354   1.029  17.260  0.3241  3.3600  0.6145
11103TIP3   OH254723   6.426   0.203   2.722 -0.2458  0.0794  0.0655
11103TIP3    H154724   6.477   0.148   2.663  1.8331  0.6267  1.2504
11103TIP3    H254725   6.408   0.282   2.672 -0.8105 -0.5214 -0.6988
11104TIP3   OH254726   5.760   0.267  12.958  0.1783  0.0640 -0.1142
11104TIP3    H154727   5.793   0.330  13.022  2.8212 -0.3603 -0.9197
11104TIP3    H254728   5.752   0.317  12.877 -0.1291 -0.0843 -0.1766
11105TIP3   OH254729   3.762   0.848  11.087 -0.8339  0.0923  0.0032
11105TIP3    H154730   3.809   0.766  11.076 -0.8259  0.1005 -0.0237
11105TIP3    H254731   3.702   0.852  11.012  0.6382  1.1051 -1.1855
11106TIP3   OH254732   5.626   2.176   3.556 -0.4997  0.4416  0.3225
11106TIP3    H154733   5.626   2.255   3.502  2.0302  0.0578 -0.3670
11106TIP3    H254734   5.685   2.116   3.511 -2.3728 -1.9271  0.7945
11107TIP3   OH254735   5.316   4.438  11.554 -0.5718  0.1615 -0.0104
11107TIP3    H154736   5.297   4.373  11.486 -0.3472 -0.1111  0.1835
11107TIP3    H254737   5.384   4.397  11.608 -2.0754 -0.4630  1.5371
11108TIP3   OH254738   5.823   5.582  13.060 -0.1832  0.7376 -0.0435
11108TIP3    H154739   5.899   5.600  13.116  0.6386 -1.3504 -0.3874
11108TIP3    H254740   5.813   5.487  13.063 -0.6713  0.6135 -2.7008
11109TIP3   OH254741   0.883   3.666  13.857  0.1014 -0.2854 -0.2496
11109TIP3    H154742   0.928   3.750  13.865 -1.5849  0.5699  0.5468
11109TIP3    H254743   0.791   3.688  13.843 -0.5079 -1.9851  0.7390
11110TIP3   OH254744   0.460   0.019   2.120 -0.0553 -0.3440  0.0804
11110TIP3    H154745   0.469   0.088   2.186 -1.3390  1.3929 -1.4617
11110TIP3    H254746   0.475  -0.062   2.169  3.2374  1.0085  1.6523
11111TIP3   OH254747   3.017   2.828   0.121 -0.1818 -0.1172  0.6115
11111TIP3    H154748   2.950   2.894   0.109 -1.0403 -0.9561  0.6850
11111TIP3    H254749   2.983   2.750   0.077  0.6841 -0.6002  0.7603
11112TIP3   OH254750   6.745   3.195  12.759 -0.3807  1.0083 -0.4324
11112TIP3    H154751   6.710   3.131  12.697  0.1069  0.4607 -0.1466
11112TIP3    H254752   6.717   3.163  12.845  1.4711  0.0921 -0.1122
11113TIP3   OH254753   4.688   3.063  11.826  0.0887 -0.9965 -0.0880
11113TIP3    H154754   4.783   3.060  11.811 -0.2432 -0.9467 -2.7629
11113TIP3    H254755   4.658   2.975  11.804 -0.4821 -1.0767  0.9588
11114TIP3   OH254756   1.729   3.163  14.054 -0.1614 -0.8506 -0.1113
11114TIP3    H154757   1.691   3.169  14.142  1.2031  0.5190  0.4435
11114TIP3    H254758   1.755   3.253  14.034  0.7253 -1.3664 -1.3906
11115TIP3   OH254759   0.253   3.079   4.648 -0.1045  0.0237  0.3715
11115TIP3    H154760   0.220   2.989   4.644  2.1587 -1.0313  2.6087
11115TIP3    H254761   0.324   3.082   4.584 -1.2298  0.7723 -0.8826
11116TIP3   OH254762   1.324   3.906   4.980  0.1464  0.0119  0.2461
11116TIP3    H154763   1.295   3.815   4.974 -0.2499 -0.0698  2.5660
11116TIP3    H254764   1.404   3.903   5.033 -0.1528  1.0323  0.7832
11117TIP3   OH254765   4.680   6.314   4.481 -0.6798  0.0772  0.1959
11117TIP3    H154766   4.611   6.254   4.509 -0.6269  0.2206  0.6513
11117TIP3    H254767   4.692   6.373   4.556  1.3112 -1.1588  0.9328
11118TIP3   OH254768   0.513   4.796  13.571 -0.3772 -0.6913 -0.4447
11118TIP3    H154769   0.436   4.852  13.559 -0.2448 -0.2086  0.7977
11118TIP3    H254770   0.554   4.829  13.651  1.3722 -0.6677 -1.3151
11119TIP3   OH254771   2.976   1.197   5.382 -0.2448  0.2036 -0.0576
11119TIP3    H154772   2.899   1.212   5.436  1.6683  3.4582  2.1331
11119TIP3    H254773   3.050   1.219   5.439  2.1003  1.0487 -3.1354
11120TIP3   OH254774   0.451   2.427  10.691 -0.2468 -0.2621 -0.0591
11120TIP3    H154775   0.394   2.499  10.664  1.7751  0.3426 -3.2056
11120TIP3    H254776   0.404   2.348  10.664 -0.2754  0.1551 -1.2927
11121TIP3   OH254777   1.405   2.023   1.971  0.3697 -0.1831  0.5317
11121TIP3    H154778   1.412   2.116   1.950  1.4927  0.1687  2.2572
11121TIP3    H254779   1.488   2.002   2.015 -0.0557 -1.8864  0.6009
11122TIP3   OH254780   4.357   6.741   5.778 -0.1561  0.0268 -0.4077
11122TIP3    H154781   4.307   6.707   5.853  0.8146  0.9773  0.7115
11122TIP3    H254782   4.429   6.680   5.768  0.5565  0.6996  0.4279
11123TIP3   OH254783   2.946   6.360   4.739 -0.3400 -0.0251 -0.3435
11123TIP3    H154784   2.859   6.400   4.745  0.2411  1.1458  0.6250
11123TIP3    H254785   2.990   6.409   4.669  0.2631  0.8703  0.6306
11124TIP3   OH254786   1.639   5.723   1.687 -0.4805  0.1051 -0.2003
11124TIP3    H154787   1.552   5.682   1.675 -0.7450  0.5313  0.2409
11124TIP3    H254788   1.666   5.695   1.774 -0.5751  0.7042  0.0245
11125TIP3   OH254789   0.007   2.782   3.324 -1.4160 -0.5798  0.3726
11125TIP3    H154790  -0.029   2.694   3.335  0.1483 -1.6005 -1.8919
11125TIP3    H254791  -0.013   2.804   3.233 -3.1594  2.1485  1.2880
11126TIP3   OH254792   5.817   1.825  16.111 -0.1373 -0.7229  0.6232
11126TIP3    H154793   5.782   1.888  16.048  2.1516 -1.0072 -1.0478
11126TIP3    H254794   5.764   1.838  16.190 -1.0668  1.8372 -0.3265
11127TIP3   OH254795   2.649   3.257   3.909 -0.1363 -0.1777 -0.4924
11127TIP3    H154796   2.698   3.188   3.865 -0.0866 -1.6202  1.6682
11127TIP3    H254797   2.714   3.302   3.964 -0.7949 -0.8628  0.9177
11128TIP3   OH254798   2.435   0.275  13.790 -0.0191  0.4030  0.3135
11128TIP3    H154799   2.494   0.284  13.715 -0.5280  0.6153 -0.0672
11128TIP3    H254800   2.398   0.187  13.781 -0.5739  0.6685 -0.0556
11129TIP3   OH254801   3.811   5.545  16.963 -0.8347  0.4532 -0.1962
11129TIP3    H154802   3.750   5.606  16.921 -0.5061  1.3911  0.6575
11129TIP3    H254803   3.858   5.598  17.028 -0.8113 -0.7957  0.8484
11130TIP3   OH254804   1.256   3.937  10.469 -0.3231 -0.2576  0.0599
11130TIP3    H154805   1.337   3.900  10.431 -0.5785 -1.8783  0.9975
11130TIP3    H254806   1.272   4.031  10.472  2.1112 -0.6232  1.4665
11131TIP3   OH254807   2.198   3.312  16.081  0.1163 -0.3075  0.2256
11131TIP3    H154808   2.202   3.399  16.121  0.3908 -0.9011  1.5194
11131TIP3    H254809   2.289   3.282  16.079  0.1992 -0.0233 -1.4906
11132TIP3   OH254810   5.558   6.676   5.755  0.2585  0.1699 -0.1861
11132TIP3    H154811   5.593   6.592   5.725 -0.9431 -0.3352 -0.2699
11132TIP3    H254812   5.557   6.668   5.851 -1.9915 -0.8960 -0.2254
11133TIP3   OH254813   0.876   5.196   1.901  0.4030 -0.2679  0.0503
11133TIP3    H154814   0.813   5.140   1.854  1.8287 -0.3644 -1.8534
11133TIP3    H254815   0.943   5.135   1.933  2.0905  0.2515 -2.2391
11134TIP3   OH254816   1.471   4.789   4.539 -0.7799 -0.0280  0.0194
11134TIP3    H154817   1.463   4.834   4.624 -0.8784 -0.9161  0.4912
11134TIP3    H254818   1.382   4.758   4.520 -0.4230 -1.3749  0.4665
11135TIP3   OH254819   1.889   0.387  12.697  0.2056 -0.0017 -0.3536
11135TIP3    H154820   1.885   0.292  12.693  0.7483 -0.0216 -0.5523
11135TIP3    H254821   1.972   0.405  12.742 -0.8444  0.3496  1.5693
11136TIP3   OH254822   2.131   0.227  14.987  0.6868 -0.2840  0.0025
11136TIP3    H154823   2.151   0.163  15.056  2.1995  0.4351  0.2712
11136TIP3    H254824   2.138   0.312  15.030  0.3379  0.1329 -0.7462
11137TIP3   OH254825   0.497   3.125   0.125 -0.4226  0.4093 -0.7034
11137TIP3    H154826   0.589   3.132   0.151 -0.7959 -0.2286  0.9306
11137TIP3    H254827   0.489   3.037   0.088 -0.9709 -0.8577  2.1247
11138TIP3   OH254828   4.903   5.947   3.361  0.2534  0.4509  0.2525
11138TIP3    H154829   4.860   5.989   3.286  2.2061  0.4117 -0.9435
11138TIP3    H254830   4.850   5.868   3.376 -0.6270  0.8524 -0.5937
11139TIP3   OH254831   2.770   1.604  12.022 -0.1546  0.0813 -0.5766
11139TIP3    H154832   2.862   1.613  12.048  0.3216 -0.3803 -2.0314
11139TIP3    H254833   2.744   1.691  11.995 -0.2215  0.2590  0.0409
11140TIP3   OH254834   0.093   2.826   4.491  0.2561  0.5140 -0.2378
11140TIP3    H154835   0.020   2.885   4.470 -0.2861  0.3495  1.0422
11140TIP3    H254836   0.123   2.794   4.406 -1.7655 -0.1098 -0.7926
11141TIP3   OH254837   6.453   6.657   0.498  0.4547 -0.5528 -0.0127
11141TIP3    H154838   6.364   6.691   0.511  0.1372 -1.1057 -0.6640
11141TIP3    H254839   6.507   6.735   0.489  0.3333 -0.1626  2.0501
11142TIP3   OH254840   6.337   6.388   0.484 -0.1611  0.4125 -0.0454
11142TIP3    H154841   6.268   6.439   0.527  0.8695  1.4035  0.4575
11142TIP3    H254842   6.407   6.450   0.467  0.2901 -0.4092 -1.3269
11143TIP3   OH254843   4.745   6.740  10.465 -0.5817  0.2096 -0.7740
11143TIP3    H154844   4.741   6.827  10.426 -0.9841  0.7937  0.4976
11143TIP3    H254845   4.752   6.757  10.559  2.0319 -1.1006 -0.6420
11144TIP3   OH254846   2.305   2.829  16.862 -0.2228 -0.3236  0.4646
11144TIP3    H154847   2.245   2.783  16.921  0.9177 -0.8962  1.2188
11144TIP3    H254848   2.326   2.765  16.794 -0.4910 -0.1134  0.1829
11145TIP3   OH254849   2.328   1.898   2.094 -0.4373  0.4034  0.3116
11145TIP3    H154850   2.326   1.966   2.161 -0.1775  0.5744  0.1454
11145TIP3    H254851   2.421   1.879   2.082 -0.5258 -0.3573  0.7375
11146TIP3   OH254852   1.323   0.939  10.679  0.1815  0.4259  0.1893
11146TIP3    H154853   1.312   1.028  10.712  1.4277  0.7747 -0.2748
11146TIP3    H254854   1.412   0.915  10.705  1.2359  0.7229 -2.8476
11147TIP3   OH254855   2.730   1.919   6.437 -0.3525 -0.1066 -0.2499
11147TIP3    H154856   2.714   2.013   6.431  1.4467  0.1829 -1.0451
11147TIP3    H254857   2.654   1.880   6.393 -0.2676  1.0502 -1.4999
11148TIP3   OH254858   0.917   2.042  13.353 -0.1437  0.4908 -0.4805
11148TIP3    H154859   0.835   2.047  13.303 -0.4960  2.4978  0.2021
11148TIP3    H254860   0.983   2.079  13.294  0.3878 -1.4276 -1.1559
11149TIP3   OH254861   3.889   5.207  12.795 -0.3071 -0.0256  0.4232
11149TIP3    H154862   3.803   5.169  12.809 -0.6316  0.3685 -0.4516
11149TIP3    H254863   3.945   5.165  12.860 -1.0869 -0.5171  0.7824
11150TIP3   OH254864   3.345   4.215  17.190  0.0937  0.4910  0.0028
11150TIP3    H154865   3.282   4.176  17.252  1.2611  0.2020  1.0466
11150TIP3    H254866   3.416   4.151  17.186 -1.1833 -1.0122 -3.9978
11151TIP3   OH254867   1.194   2.395  15.210  0.4383 -0.2135 -0.1036
11151TIP3    H154868   1.201   2.478  15.257 -1.7450  0.2996 -0.6123
11151TIP3    H254869   1.230   2.330  15.271  0.3482  0.8322  1.0968
11152TIP3   OH254870   3.116   3.836   3.262 -0.2673 -0.0954 -0.1562
11152TIP3    H154871   3.025   3.819   3.242 -0.1130 -0.2791 -0.7108
11152TIP3    H254872   3.115   3.921   3.307 -0.5060  0.9547 -2.0346
11153TIP3   OH254873   6.472   5.782   3.458 -0.2830  0.0393  0.6185
11153TIP3    H154874   6.490   5.749   3.547  0.9459  0.7995  0.6715
11153TIP3    H254875   6.556   5.817   3.428 -0.0394 -2.2307 -1.7506
11154TIP3   OH254876   3.710   6.093   5.896 -0.3176 -0.2869 -0.2333
11154TIP3    H154877   3.719   6.038   5.818 -1.5757 -0.0519 -0.5595
11154TIP3    H254878   3.698   6.181   5.861  0.0579 -0.0390  0.2538
11155TIP3   OH254879   3.000   2.384   0.810 -0.2335  0.4862 -0.5558
11155TIP3    H154880   2.951   2.436   0.873  0.6181  0.3063  0.2898
11155TIP3    H254881   2.968   2.295   0.823  0.1640  0.3967 -0.1246
11156TIP3   OH254882   0.972   0.889   1.801  0.2962  0.4843  0.1310
11156TIP3    H154883   1.016   0.922   1.723 -2.8967  0.3399 -1.8928
11156TIP3    H254884   0.880   0.883   1.777 -0.8732  0.3203  3.9184
11157TIP3   OH254885   5.837   2.136  12.870  0.4895  0.0551 -0.1761
11157TIP3    H154886   5.913   2.122  12.926 -0.5187 -1.6628  0.8543
11157TIP3    H254887   5.779   2.194  12.920  0.2027 -0.3594 -0.0179
11158TIP3   OH254888   3.673   3.795   5.080 -0.5181 -0.0331  0.1183
11158TIP3    H154889   3.639   3.884   5.075 -0.9372 -0.2392 -1.0047
11158TIP3    H254890   3.726   3.785   5.001  1.3236 -0.0860  1.2924
11159TIP3   OH254891   5.684   2.294  14.212 -0.0615 -0.5817  0.1365
11159TIP3    H154892   5.719   2.362  14.270 -1.0204  0.4994 -0.5104
11159TIP3    H254893   5.653   2.226  14.272  0.5937 -0.3035  0.8155
11160TIP3   OH254894   4.089   3.200  15.302 -0.4979  0.2232 -0.0964
11160TIP3    H154895   3.996   3.179  15.301 -0.5956  0.6541 -0.0274
11160TIP3    H254896   4.118   3.187  15.212 -0.6980  0.4246 -0.1888
11161TIP3   OH254897   1.046   5.968   4.528  0.5667  0.0059 -0.4538
11161TIP3    H154898   0.958   5.931   4.522 -0.0795  1.2962  0.4665
11161TIP3    H254899   1.062   6.007   4.442  0.3040 -0.3586 -0.6682
11162TIP3   OH254900   5.961   0.803  16.343 -0.4767  0.3328 -0.2629
11162TIP3    H154901   5.946   0.882  16.396 -1.4764  0.8477 -1.2688
11162TIP3    H254902   6.056   0.801  16.330 -0.6174  2.9739 -2.5607
11163TIP3   OH254903   6.722   5.035   1.428  0.0003 -0.5340 -0.0287
11163TIP3    H154904   6.788   4.983   1.473  0.0278 -1.2836 -0.9069
11163TIP3    H254905   6.692   5.097   1.494 -0.1803 -1.7931  1.1287
11164TIP3   OH254906   2.864   6.403  15.352 -1.0398  0.0080 -0.1914
11164TIP3    H154907   2.901   6.316  15.340  2.1172  1.4580 -2.2236
11164TIP3    H254908   2.809   6.416  15.274  2.1368  1.3353 -2.4412
11165TIP3   OH254909   6.663   6.276   4.145  0.0228 -0.1581 -0.2449
11165TIP3    H154910   6.588   6.310   4.096  0.5793  0.3516 -0.7666
11165TIP3    H254911   6.640   6.292   4.237 -0.4778  0.0409 -0.3978
11166TIP3   OH254912   0.981   4.098   3.989 -0.2528 -0.1964  0.0141
11166TIP3    H154913   0.953   4.038   3.920 -0.5188 -1.2215  0.9803
11166TIP3    H254914   1.008   4.041   4.061  2.7946  0.7604 -0.2355
11167TIP3   OH254915   5.686   4.655  16.391  0.5136 -0.0746 -0.1035
11167TIP3    H154916   5.766   4.606  16.373  0.3317 -1.5142  2.4401
11167TIP3    H254917   5.619   4.587  16.403 -0.3738  0.9296  0.8330
11168TIP3   OH254918   0.924   0.306  16.803 -0.0983  0.2185  0.1780
11168TIP3    H154919   0.885   0.364  16.869  0.1325 -0.7576  1.2127
11168TIP3    H254920   0.873   0.322  16.724 -1.3388  0.3747  0.9810
11169TIP3   OH254921   4.218   0.560  15.408 -0.0617 -0.3738 -0.2044
11169TIP3    H154922   4.161   0.636  15.393 -0.8830 -1.1449 -1.1219
11169TIP3    H254923   4.164   0.499  15.458  0.1472 -0.8816 -0.5898
11170TIP3   OH254924   3.369   3.140   2.710 -0.4778  0.1716  0.2244
11170TIP3    H154925   3.315   3.218   2.695  0.2231  0.5527 -0.4354
11170TIP3    H254926   3.443   3.151   2.650 -0.3741 -1.0165  0.1079
11171TIP3   OH254927   2.440   4.983  14.003  0.0141  0.2811 -0.2886
11171TIP3    H154928   2.533   4.998  14.021 -0.3646  0.4449  1.7744
11171TIP3    H254929   2.397   5.064  14.030 -1.0848 -1.0979  2.4388
11172TIP3   OH254930   5.499   2.920  14.716  0.0547  0.2819  0.0073
11172TIP3    H154931   5.495   2.869  14.635 -2.0115 -0.0452  0.2471
11172TIP3    H254932   5.432   2.988  14.705 -0.4742  0.0527  1.5299
11173TIP3   OH254933   0.353   2.748   1.664 -0.3856  0.4388 -0.3159
11173TIP3    H154934   0.274   2.695   1.674 -0.4972  0.2763 -1.7959
11173TIP3    H254935   0.372   2.780   1.752 -1.6383 -0.1775  0.2040
11174TIP3   OH254936   0.848   4.980   3.953 -0.0983  0.2581  0.5940
11174TIP3    H154937   0.923   5.030   3.920  1.0089 -1.8666 -0.3415
11174TIP3    H254938   0.824   4.923   3.879 -1.6216 -0.2365  1.4323
11175TIP3   OH254939   2.852   5.508   2.195  0.4189  0.5580 -0.4744
11175TIP3    H154940   2.786   5.550   2.140 -1.0020 -0.4103  0.4016
11175TIP3    H254941   2.924   5.571   2.200  0.3433  0.9290 -2.8879
11176TIP3   OH254942   5.096   4.826   1.428  0.4538 -0.3598 -0.2368
11176TIP3    H154943   5.118   4.916   1.452  1.6661 -0.2616 -1.5841
11176TIP3    H254944   5.019   4.805   1.481  0.9462  0.9922  1.0979
11177TIP3   OH254945   6.666   5.301   2.851  0.0510 -0.0041  0.1035
11177TIP3    H154946   6.627   5.389   2.846 -2.2937 -0.8333  1.7319
11177TIP3    H254947   6.617   5.250   2.786  1.3173 -0.1640 -0.7504
11178TIP3   OH254948   3.086   0.543   1.199  0.2908 -0.0512 -0.1564
11178TIP3    H154949   3.020   0.537   1.268 -0.7012  1.8118 -0.8734
11178TIP3    H254950   3.068   0.626   1.155  1.5298 -0.6961 -2.0227
11179TIP3   OH254951   0.259   4.057  14.232  0.6576 -0.0596  0.7744
11179TIP3    H154952   0.257   4.100  14.317  3.7143 -1.2880  1.5977
11179TIP3    H254953   0.342   4.010  14.231  1.7469  1.5010 -3.6906
11180TIP3   OH254954   2.029   3.526   0.585 -0.1331  0.1097 -0.2894
11180TIP3    H154955   2.096   3.546   0.650 -1.6948 -0.6625  1.6944
11180TIP3    H254956   2.016   3.608   0.538  1.3010  0.6068  0.1365
11181TIP3   OH254957   1.455   2.135   3.432  0.2587  0.2852  0.0163
11181TIP3    H154958   1.362   2.146   3.451  0.0487  0.0257 -0.8170
11181TIP3    H254959   1.500   2.170   3.509 -0.5464 -0.3871  0.8038
11182TIP3   OH254960   3.831   4.853   0.066 -0.1398  0.1664  0.3643
11182TIP3    H154961   3.837   4.843   0.161 -0.5996  0.5860  0.4398
11182TIP3    H254962   3.894   4.922   0.045  0.3300 -0.2790  0.3002
11183TIP3   OH254963   2.993   0.258  17.230 -0.1405 -0.1468 -0.4550
11183TIP3    H154964   2.960   0.170  17.215 -1.2658  0.4800 -1.8734
11183TIP3    H254965   3.076   0.245  17.276 -0.5182 -1.9144 -0.2148
11184TIP3   OH254966   6.454   4.889   5.475  0.0194 -0.1813  0.4714
11184TIP3    H154967   6.480   4.863   5.563 -0.8173  0.0717  0.8003
11184TIP3    H254968   6.379   4.834   5.455 -0.4335  0.4758  0.3255
11185TIP3   OH254969   4.408   1.683  16.787 -0.6260  0.7847 -0.1756
11185TIP3    H154970   4.384   1.600  16.747 -0.0462  0.5371 -0.0186
11185TIP3    H254971   4.388   1.749  16.720 -2.2277  0.6520  0.1338
11186TIP3   OH254972   3.267   1.578   4.909  0.0021  0.1021 -0.1323
11186TIP3    H154973   3.278   1.524   4.831  1.4586  1.5277 -0.9731
11186TIP3    H254974   3.258   1.515   4.981  0.4396 -1.2471 -1.2177
11187TIP3   OH254975   0.812   1.818  10.689 -0.3590 -0.2885 -0.1862
11187TIP3    H154976   0.774   1.852  10.770 -0.1757  1.8651 -0.9199
11187TIP3    H254977   0.737   1.805  10.631 -0.3812 -0.5687 -0.0931
11188TIP3   OH254978   0.744   4.723   3.979 -0.7903  0.3749  0.3380
11188TIP3    H154979   0.811   4.727   3.910  0.0678 -0.2530  1.0979
11188TIP3    H254980   0.757   4.802   4.031  0.7621 -0.6904  1.6843
11189TIP3   OH254981   4.978   3.143  15.472  0.3176  0.4999  0.4983
11189TIP3    H154982   4.909   3.192  15.427  0.2510  0.1921  0.2595
11189TIP3    H254983   4.931   3.088  15.536  0.3192  0.1164  0.1732
11190TIP3   OH254984   3.070   1.473  10.827  0.3386  0.3588  0.3454
11190TIP3    H154985   3.039   1.455  10.738 -2.3266  0.3511  1.2123
11190TIP3    H254986   3.069   1.569  10.833 -0.9066  0.3379  0.7882
11191TIP3   OH254987   5.926   1.558  17.090  0.5850  0.2418 -0.4183
11191TIP3    H154988   6.017   1.529  17.084  1.0027  1.4779 -0.4064
11191TIP3    H254989   5.887   1.500  17.156  1.6681  0.4077  0.4044
11192TIP3   OH254990   3.414   2.047  16.652 -0.1523  0.2591 -0.0083
11192TIP3    H154991   3.415   2.122  16.712 -0.7053  0.0006  0.3340
11192TIP3    H254992   3.396   1.971  16.708 -2.4573  0.2196 -0.6778
11193TIP3   OH254993   3.206   3.081   3.586 -0.2998  0.1852  0.1263
11193TIP3    H154994   3.279   3.076   3.525 -2.3381  0.5978 -2.5466
11193TIP3    H254995   3.220   3.008   3.647  0.0646 -2.6399 -3.0367
11194TIP3   OH254996   2.318   2.617  11.971  0.0165 -0.5096 -0.0062
11194TIP3    H154997   2.299   2.597  11.879  2.3162  1.9789 -1.1586
11194TIP3    H254998   2.359   2.538  12.005 -0.5034 -1.3270 -1.2292
11195TIP3   OH254999   5.156   6.507   0.692  0.3203 -0.2167 -0.1293
11195TIP3    H155000   5.070   6.516   0.650  0.4574  1.2354 -0.1413
11195TIP3    H255001   5.145   6.549   0.778  1.1993  0.5978 -0.4044
11196TIP3   OH255002   2.860   1.621   4.530  0.7618  0.0537 -0.5395
11196TIP3    H155003   2.946   1.580   4.539  0.8647  0.1438 -1.0583
11196TIP3    H255004   2.809   1.587   4.604  1.8654  1.6482  1.0049
11197TIP3   OH255005   0.658   5.905   3.573  0.1105 -0.1129 -0.4106
11197TIP3    H155006   0.719   5.938   3.507  1.0183  0.6702  0.7689
11197TIP3    H255007   0.692   5.819   3.596  1.9493  1.0007  1.5197
11198TIP3   OH255008   2.282   3.542   1.193 -0.1127  0.5511 -0.0890
11198TIP3    H155009   2.186   3.537   1.189 -0.1965  1.6455  0.4048
11198TIP3    H255010   2.307   3.478   1.260 -0.5060  0.4370 -0.0489
11199TIP3   OH255011   0.971   3.389   0.712 -0.6695 -0.1831  0.1700
11199TIP3    H155012   1.014   3.440   0.781 -0.6368  0.7462 -0.5123
11199TIP3    H255013   0.947   3.454   0.646  1.4095 -1.3220 -1.8290
11200TIP3   OH255014   6.612   6.671  16.604  0.2103  0.3233  0.3182
11200TIP3    H155015   6.544   6.626  16.655 -0.6714  2.2561  0.9709
11200TIP3    H255016   6.599   6.641  16.514 -0.9633  0.0022  0.5768
11201TIP3   OH255017   5.134   4.708  12.933 -0.5293  0.0038  0.1643
11201TIP3    H155018   5.172   4.734  13.016  0.0227  1.3371 -0.4727
11201TIP3    H255019   5.186   4.633  12.904  0.5086  0.7142  0.1420
11202TIP3   OH255020   1.302   0.720  14.967 -0.0592 -0.3311 -0.2658
11202TIP3    H155021   1.213   0.700  14.939 -0.1398  0.6410 -0.7826
11202TIP3    H255022   1.337   0.638  15.000 -1.3117 -0.6156  0.3965
11203TIP3   OH255023   2.808   3.972  15.582 -0.0515  0.0377 -0.3212
11203TIP3    H155024   2.762   4.030  15.521  1.0730  0.5821 -0.6740
11203TIP3    H255025   2.762   3.983  15.665  0.1249  1.4432 -0.3804
11204TIP3   OH255026   5.655   5.010  14.014  0.4831  0.4493  0.1520
11204TIP3    H155027   5.588   4.964  13.962  1.7070 -0.8858 -0.3118
11204TIP3    H255028   5.659   4.962  14.096 -0.6303  1.8678  1.0965
11205TIP3   OH255029   3.670   3.703  12.512  0.0177  0.4844  0.2282
11205TIP3    H155030   3.743   3.690  12.573  0.6713  0.5615 -0.5203
11205TIP3    H255031   3.593   3.708  12.568  0.4079 -1.0547  0.9369
11206TIP3   OH255032   1.033   1.957   3.997  0.0905 -0.1263  0.4673
11206TIP3    H155033   1.014   2.050   3.985  2.0867  0.2603  0.0165
11206TIP3    H255034   1.123   1.954   4.030 -0.0381 -1.8956  0.7963
11207TIP3   OH255035   4.617   4.938  13.894 -0.1870  0.0518 -0.3240
11207TIP3    H155036   4.625   5.032  13.879 -0.6897  0.1325 -0.1072
11207TIP3    H255037   4.524   4.919  13.879 -1.1746  0.4134  4.1321
11208TIP3   OH255038   0.003   5.975  14.242 -0.3124 -0.2238  0.1185
11208TIP3    H155039   0.014   6.026  14.161  1.5511  0.7341  0.9141
11208TIP3    H255040   0.004   6.041  14.311 -2.8651 -0.9278  0.9361
11209TIP3   OH255041   2.121   1.679   5.067 -0.0311  0.0009 -0.3831
11209TIP3    H155042   2.061   1.605   5.070 -0.2632  0.2002 -0.0120
11209TIP3    H255043   2.121   1.714   5.157 -0.6675  1.0399 -0.7710
11210TIP3   OH255044   3.584   0.987   4.493 -0.3099  0.3135  0.2684
11210TIP3    H155045   3.661   0.930   4.495 -0.5705 -0.0251  1.3247
11210TIP3    H255046   3.604   1.057   4.555 -1.6540 -0.8976  2.1909
11211TIP3   OH255047   0.109   0.765   5.999 -0.5867  0.1504  0.1270
11211TIP3    H155048   0.110   0.814   6.081  2.8783 -0.3674  0.5130
11211TIP3    H255049   0.128   0.830   5.931 -0.1650  0.0400  0.1373
11212TIP3   OH255050   2.631   5.273  17.194 -0.3788  0.0322 -0.1788
11212TIP3    H155051   2.660   5.212  17.262  1.4105  0.9105 -0.0819
11212TIP3    H255052   2.548   5.307  17.226 -0.3645 -0.7724  0.7748
11213TIP3   OH255053   0.996   1.786  15.404  0.5623 -0.1247 -0.7204
11213TIP3    H155054   1.091   1.798  15.393  0.4705  1.8805  0.2470
11213TIP3    H255055   0.989   1.726  15.478  1.0529 -1.3468 -1.6282
11214TIP3   OH255056   6.037   4.143   0.159 -0.0833 -0.2120  0.4814
11214TIP3    H155057   5.953   4.113   0.123 -0.0809 -0.5526  0.7622
11214TIP3    H255058   6.032   4.124   0.252 -0.1912  0.8985  0.7250
11215TIP3   OH255059   2.771   4.732  15.430  0.4641  0.3579 -0.6617
11215TIP3    H155060   2.852   4.711  15.478  0.0215  1.0503  0.4398
11215TIP3    H255061   2.779   4.685  15.348  1.9078  0.2541 -0.4935
11216TIP3   OH255062   6.495   1.878  13.655  0.1528 -0.1693 -0.1962
11216TIP3    H155063   6.472   1.854  13.745  0.2545  0.3816 -0.0158
11216TIP3    H255064   6.587   1.856  13.647  0.3279  0.4396  0.0729
11217TIP3   OH255065   4.659   0.532   4.879  0.2306  0.0092 -0.2354
11217TIP3    H155066   4.740   0.568   4.843  1.0342 -1.9009 -0.4882
11217TIP3    H255067   4.680   0.514   4.971  0.7053 -2.0136 -0.6883
11218TIP3   OH255068   0.549   2.936   3.034 -0.2205  0.1781 -0.1775
11218TIP3    H155069   0.480   2.878   3.065 -1.5917  1.6173 -0.4413
11218TIP3    H255070   0.542   3.014   3.089  0.1865  0.9759 -1.2168
11219TIP3   OH255071   3.424   4.300   6.597 -0.6191 -0.6436  0.3664
11219TIP3    H155072   3.415   4.205   6.595 -3.4840 -0.4548  0.1668
11219TIP3    H255073   3.345   4.333   6.553  0.2838  1.8424  0.4190
11220TIP3   OH255074   1.424   0.748   4.837 -0.1655 -0.0199 -0.0998
11220TIP3    H155075   1.418   0.729   4.931  0.5277 -1.9981 -0.4352
11220TIP3    H255076   1.449   0.666   4.796 -1.1467  0.6195 -2.1320
11221TIP3   OH255077   1.729   5.588  14.402  0.4018  0.0555 -0.1825
11221TIP3    H155078   1.702   5.514  14.455 -0.8798  0.1985 -0.5984
11221TIP3    H255079   1.655   5.648  14.405  1.8876  1.9877  1.2667
11222TIP3   OH255080   0.046   1.362  13.886  0.2643 -0.6320 -0.4907
11222TIP3    H155081   0.121   1.313  13.920 -0.0317  0.4723  1.9494
11222TIP3    H255082  -0.025   1.298  13.884  0.3755 -0.8223  0.7743
11223TIP3   OH255083   2.413   3.344  15.766 -0.3369 -0.0372 -0.6060
11223TIP3    H155084   2.342   3.409  15.767 -0.6652 -0.3050 -2.5194
11223TIP3    H255085   2.374   3.267  15.725 -0.4882 -2.1982  3.1127
11224TIP3   OH255086   6.356   5.254   3.369  0.1129 -0.3873 -0.0966
11224TIP3    H155087   6.417   5.309   3.417  0.0205  0.3204 -0.7725
11224TIP3    H255088   6.406   5.174   3.349  0.4671 -0.2609  0.2837
11225TIP3   OH255089   1.014   6.557  12.549  0.4883  0.2216  0.3364
11225TIP3    H155090   0.941   6.597  12.501 -1.0630 -1.6949  0.9661
11225TIP3    H255091   0.983   6.553  12.640  1.3527 -0.7078  0.6009
11226TIP3   OH255092   6.203   6.043   0.115 -0.1827 -0.7503  0.0344
11226TIP3    H155093   6.219   6.040   0.020 -0.2834 -1.8903  0.0474
11226TIP3    H255094   6.247   6.123   0.144 -0.0058 -0.4798 -0.9496
11227TIP3   OH255095   6.119   5.552  14.636 -0.6483  0.6345  0.4203
11227TIP3    H155096   6.085   5.638  14.611 -0.4213 -0.0124 -2.5731
11227TIP3    H255097   6.076   5.491  14.575  0.8601 -1.0573  0.9454
11228TIP3   OH255098   4.279   0.714  11.842  0.2505  0.9088  0.4658
11228TIP3    H155099   4.341   0.752  11.781 -0.9414  1.7971 -0.2283
11228TIP3    H255100   4.257   0.628  11.805 -0.7978  1.6213 -0.6182
11229TIP3   OH255101   6.145   0.888  15.801  0.1446 -0.3128  0.1417
11229TIP3    H155102   6.138   0.971  15.752 -0.9165 -0.3765  0.1445
11229TIP3    H255103   6.222   0.845  15.765  0.1315  0.2333 -0.5736
11230TIP3   OH255104   4.438   0.225   5.825 -0.1343 -0.3388 -0.7057
11230TIP3    H155105   4.418   0.143   5.780 -0.3181  0.1648 -1.5649
11230TIP3    H255106   4.366   0.235   5.888 -0.6860 -0.3141 -1.3277
11231TIP3   OH255107   4.470   5.271  15.955 -0.2573 -0.2760 -0.0689
11231TIP3    H155108   4.400   5.334  15.941 -1.4605 -1.6012 -0.2430
11231TIP3    H255109   4.443   5.221  16.032  1.2163  0.1288  0.7475
11232TIP3   OH255110   4.082   1.761  12.152  0.0261 -0.0230 -0.5656
11232TIP3    H155111   4.015   1.698  12.179  1.1885 -0.9255  0.3251
11232TIP3    H255112   4.067   1.772  12.058 -0.9326 -0.7227 -0.5165
11233TIP3   OH255113   2.790   5.499   6.747  0.1057  0.7133  0.2346
11233TIP3    H155114   2.879   5.505   6.713  0.3300 -1.3205  0.3780
11233TIP3    H255115   2.739   5.464   6.674  0.2429 -1.9335  1.2905
11234TIP3   OH255116   2.535   2.930   2.403 -0.3428 -0.1351 -0.3947
11234TIP3    H155117   2.518   2.837   2.422  2.5356 -0.5198  1.0111
11234TIP3    H255118   2.562   2.966   2.488 -2.1688  2.2570 -0.7440
11235TIP3   OH255119   5.247   2.186  16.310  0.4620 -0.2474 -0.2832
11235TIP3    H155120   5.313   2.165  16.244 -0.4612  0.9343 -1.6311
11235TIP3    H255121   5.165   2.192  16.262 -0.6217 -1.3723  1.3132
11236TIP3   OH255122   4.039   3.150  14.769 -0.0383 -0.0158  0.2487
11236TIP3    H155123   4.006   3.202  14.696 -0.0965 -0.6255 -0.1671
11236TIP3    H255124   4.133   3.168  14.771 -0.1163  0.3812  0.3342
11237TIP3   OH255125   2.083   0.988  12.505 -0.3056 -0.4913  0.6376
11237TIP3    H155126   2.029   1.060  12.537  0.3179  1.2410 -1.8579
11237TIP3    H255127   2.118   0.947  12.584  1.2643  3.5168  2.3035
11238TIP3   OH255128   2.120   3.265  14.302  0.3059  0.6002  0.4808
11238TIP3    H155129   2.073   3.229  14.227 -0.5283  1.9594  0.3029
11238TIP3    H255130   2.213   3.258  14.278  0.0471  3.3327 -1.9065
11239TIP3   OH255131   5.039   0.555   2.972  0.3772 -0.0256  0.2022
11239TIP3    H155132   5.134   0.564   2.980  0.5662 -0.9082 -0.9263
11239TIP3    H255133   5.018   0.476   3.022  0.5830 -1.2595 -1.6053
11240TIP3   OH255134   1.587   4.668  16.945 -0.1072 -0.6421 -1.0823
11240TIP3    H155135   1.544   4.630  16.870 -1.1772 -1.5504 -0.0385
11240TIP3    H255136   1.560   4.614  17.019 -0.1862  1.0366  0.1680
11241TIP3   OH255137   4.416   3.039  17.087 -0.3848  0.0219  0.4798
11241TIP3    H155138   4.484   2.974  17.072  0.1020  0.4600  0.7668
11241TIP3    H255139   4.384   3.021  17.175 -2.4126 -1.7890 -0.5472
11242TIP3   OH255140   1.848   3.502  16.616  0.1037 -0.2538  0.7219
11242TIP3    H155141   1.884   3.487  16.703  1.6478  0.3708  0.2383
11242TIP3    H255142   1.920   3.482  16.557 -1.1571 -1.4419 -0.4844
11243TIP3   OH255143   6.097   4.642   0.438 -0.5037  0.5081 -0.6658
11243TIP3    H155144   6.021   4.657   0.495 -1.1944 -1.9274 -0.8388
11243TIP3    H255145   6.163   4.704   0.469 -0.7716 -0.8195  2.9413
11244TIP3   OH255146   6.177   0.498   2.439 -0.2455 -0.4589 -0.3184
11244TIP3    H155147   6.104   0.436   2.444 -1.5893  1.1477  1.8528
11244TIP3    H255148   6.243   0.464   2.499  0.6409 -1.6455 -1.9009
11245TIP3   OH255149   3.746   6.508   0.663  0.5760  0.5676  0.1810
11245TIP3    H155150   3.819   6.449   0.678 -0.0245 -0.3742 -0.5414
11245TIP3    H255151   3.677   6.478   0.722 -0.2385 -0.4051 -1.1859
11246TIP3   OH255152   3.895   4.028  16.620 -0.0597 -0.0142  0.0995
11246TIP3    H155153   3.836   4.103  16.616 -1.0628 -0.8127 -0.6757
11246TIP3    H255154   3.915   4.018  16.713  0.7985  1.7155  0.1524
11247TIP3   OH255155   6.180   2.146   5.441 -0.1478 -0.0279 -0.4448
11247TIP3    H155156   6.121   2.089   5.392  0.6977 -2.2040  0.9081
11247TIP3    H255157   6.229   2.193   5.373 -0.4329 -1.4235 -1.6771
11248TIP3   OH255158   2.274   3.453  11.291  0.5871 -0.4495 -0.2206
11248TIP3    H155159   2.321   3.536  11.289 -1.4803  0.7800 -0.8340
11248TIP3    H255160   2.302   3.407  11.212  3.6354 -1.5441  1.3350
11249TIP3   OH255161   3.626   2.077  11.667 -0.0435 -0.0818  0.1644
11249TIP3    H155162   3.573   2.123  11.602  1.3306 -0.2177 -1.1180
11249TIP3    H255163   3.591   1.989  11.670 -0.7113  0.1814  0.3297
11250TIP3   OH255164   0.848   4.835  12.041 -0.2619  0.0714  0.7591
11250TIP3    H155165   0.937   4.802  12.037 -0.0335  0.7430 -0.5480
11250TIP3    H255166   0.795   4.762  12.072  0.7254 -0.3531  1.4695
11251TIP3   OH255167   3.401   5.729  16.162  0.0607 -0.1472 -0.3307
11251TIP3    H155168   3.324   5.684  16.126 -1.1882  2.9576 -1.9836
11251TIP3    H255169   3.454   5.751  16.086  0.9671  0.5549  0.4748
11252TIP3   OH255170   2.243   6.064   4.485  0.2681 -0.6602  0.0293
11252TIP3    H155171   2.304   6.009   4.435  0.8583 -1.1719  1.2637
11252TIP3    H255172   2.299   6.126   4.531  0.1790 -2.5344  2.9402
11253TIP3   OH255173   5.807   2.214  11.727 -0.3310 -0.3446  0.4013
11253TIP3    H155174   5.813   2.181  11.817 -2.6148 -0.0876  0.7080
11253TIP3    H255175   5.767   2.300  11.736  1.0825  0.4837 -0.7695
11254TIP3   OH255176   5.518   5.003  16.549  0.1535  0.0144  0.1970
11254TIP3    H155177   5.455   5.074  16.532  0.0357 -0.3202 -0.8400
11254TIP3    H255178   5.534   4.965  16.463  2.0631  0.3332  0.3868
11255TIP3   OH255179   0.288   5.607   1.023 -0.0099 -0.5695  0.2321
11255TIP3    H155180   0.246   5.585   1.107 -0.8376 -2.4375 -0.6212
11255TIP3    H255181   0.288   5.525   0.974  1.1828  0.3058 -1.3101
11256TIP3   OH255182   5.795   4.966  17.242 -0.3122  0.2082  0.4724
11256TIP3    H155183   5.750   4.913  17.307 -1.5193  0.0195 -0.4782
11256TIP3    H255184   5.727   5.022  17.206  0.0916 -0.3871 -1.3228
11257TIP3   OH255185   5.761   4.743   2.275  0.0508  0.9056 -0.5814
11257TIP3    H155186   5.746   4.682   2.203  1.8818 -1.0994  0.6186
11257TIP3    H255187   5.697   4.718   2.342  1.4732 -0.4433  0.3142
11258TIP3   OH255188   0.392   2.050   4.373  0.4950  0.0942 -0.2214
11258TIP3    H155189   0.466   2.018   4.320 -0.3040 -0.4932 -1.0035
11258TIP3    H255190   0.322   1.988   4.356 -0.1524  0.5861  0.6092
11259TIP3   OH255191   0.865   3.747   1.297  0.8931 -0.0880 -0.3705
11259TIP3    H155192   0.942   3.698   1.326  0.5144  0.3113  1.4549
11259TIP3    H255193   0.899   3.830   1.266  1.2977 -0.3591 -0.6521
11260TIP3   OH255194   4.773   6.256   0.704  0.0005  0.0395  0.0149
11260TIP3    H155195   4.698   6.293   0.750  0.5892 -0.7588  1.7028
11260TIP3    H255196   4.785   6.314   0.628  1.0154  3.5814  2.5898
11261TIP3   OH255197   1.639   4.707   2.065  0.1527 -0.4303  0.3787
11261TIP3    H155198   1.653   4.801   2.074  0.4020  0.0391 -3.2834
11261TIP3    H255199   1.546   4.694   2.086 -0.3809  1.0029 -0.9359
11262TIP3   OH255200   1.806   5.728   5.926 -0.3614 -0.2541  0.0849
11262TIP3    H155201   1.718   5.741   5.962  0.3358  1.4988  1.3111
11262TIP3    H255202   1.827   5.636   5.945 -1.2259 -0.1972  1.4391
11263TIP3   OH255203   5.998   2.153   4.804  0.1544 -0.1720  0.1843
11263TIP3    H155204   5.971   2.127   4.892 -0.0355 -0.0877  0.1508
11263TIP3    H255205   5.962   2.241   4.793  0.6364  0.0318  0.2258
11264TIP3   OH255206   6.691   3.878  16.972 -0.4009  0.8648  0.4424
11264TIP3    H155207   6.780   3.889  17.006 -0.2336  0.2916  0.1956
11264TIP3    H255208   6.642   3.952  17.010  0.3800  1.6961 -0.1355
11265TIP3   OH255209   5.346   2.679  16.577 -0.5749  0.2088 -0.0877
11265TIP3    H155210   5.288   2.731  16.521 -0.2187  0.8084  0.0934
11265TIP3    H255211   5.420   2.655  16.520 -0.8045 -0.2304 -0.2100
11266TIP3   OH255212   4.866   5.139   5.586  0.6601  0.3075  0.0715
11266TIP3    H155213   4.938   5.183   5.632  1.3180 -0.3855 -0.2816
11266TIP3    H255214   4.820   5.210   5.542 -0.1260  1.0332  1.9349
11267TIP3   OH255215   6.726   3.223  16.334  0.2273  0.2868 -0.3723
11267TIP3    H155216   6.717   3.317  16.315 -0.6577 -0.0236 -1.6634
11267TIP3    H255217   6.644   3.200  16.377  0.8968  0.3084  0.9531
11268TIP3   OH255218   2.668   5.102   2.733  0.1043 -0.1552 -0.0028
11268TIP3    H155219   2.654   5.011   2.706  0.8476  0.0063 -0.9890
11268TIP3    H255220   2.743   5.098   2.793  0.2165 -0.1831 -0.1435
11269TIP3   OH255221   0.210   5.349  16.268  0.0177  0.5379  0.0693
11269TIP3    H155222   0.253   5.417  16.215 -0.6989 -0.6999 -2.2620
11269TIP3    H255223   0.265   5.341  16.346  2.1548  1.2933 -1.2599
11270TIP3   OH255224   1.616   6.168   3.998  0.0755 -0.2580  0.1343
11270TIP3    H155225   1.533   6.126   3.975 -0.3307  0.8432 -0.4884
11270TIP3    H255226   1.653   6.112   4.067 -1.4226 -0.4932  0.7924
11271TIP3   OH255227   5.981   3.198  16.603  0.4435 -0.1786  0.0339
11271TIP3    H155228   6.000   3.156  16.519 -2.1568 -1.1859 -0.1476
11271TIP3    H255229   5.911   3.145  16.641  1.2110  0.5276  2.6631
11272TIP3   OH255230   6.059   2.535  13.250 -0.4034  0.3411  0.4427
11272TIP3    H155231   5.985   2.594  13.242  0.1783  1.1859  1.0625
11272TIP3    H255232   6.075   2.528  13.344  0.4932  0.4339  0.3138
11273TIP3   OH255233   5.791   4.929  14.965  0.4032  0.4706  0.1451
11273TIP3    H155234   5.763   4.935  15.057  0.6340  0.3856  0.2232
11273TIP3    H255235   5.710   4.936  14.915 -0.0430 -1.6971  0.4260
11274TIP3   OH255236   0.216   2.769   2.811  0.2454  0.1396  0.6172
11274TIP3    H155237   0.158   2.798   2.741  0.2641 -2.3383 -0.5317
11274TIP3    H255238   0.198   2.675   2.819  1.7409 -0.0412  2.5286
11275TIP3   OH255239   5.994   2.304  15.191  0.0430  0.4221  0.7149
11275TIP3    H155240   5.944   2.226  15.168 -0.5030  0.9755 -0.0079
11275TIP3    H255241   6.072   2.270  15.234 -0.4355 -0.4995  0.8776
11276TIP3   OH255242   4.425   5.494   4.811  0.5055 -0.0011 -0.0734
11276TIP3    H155243   4.394   5.514   4.900 -0.0515 -0.9556 -0.0287
11276TIP3    H255244   4.349   5.454   4.768  1.3812 -1.5882 -0.2538
11277TIP3   OH255245   3.287   4.041   4.691 -0.0676 -0.0314  0.0752
11277TIP3    H155246   3.246   3.976   4.634 -1.8132  0.5467  0.6259
11277TIP3    H255247   3.330   3.989   4.759 -0.6041 -0.6293 -0.0368
11278TIP3   OH255248   2.796   3.594  11.228  0.3806  0.4195  0.5570
11278TIP3    H155249   2.811   3.626  11.139  0.8358  3.1874  1.5199
11278TIP3    H255250   2.701   3.596  11.239  0.4137  2.6232  0.8944
11279TIP3   OH255251   3.031   6.559   4.977  0.7048 -0.8393  0.0738
11279TIP3    H155252   2.996   6.471   4.965  0.0245 -0.3394 -1.8909
11279TIP3    H255253   2.971   6.600   5.040 -0.5290 -0.9625 -0.9879
11280TIP3   OH255254   6.594   1.714  15.361  0.2326  0.3465  0.2232
11280TIP3    H155255   6.587   1.803  15.328  0.5736  0.3408  0.1316
11280TIP3    H255256   6.682   1.686  15.336 -0.1128 -0.2505 -0.3290
11281TIP3   OH255257   0.730   4.366   3.739  0.2193  0.2049 -0.0404
11281TIP3    H155258   0.823   4.371   3.717  0.6219  2.0466  1.7074
11281TIP3    H255259   0.691   4.441   3.694 -0.1693  0.1562  0.2084
11282TIP3   OH255260   2.569   0.130  15.136 -0.0390  0.2225  0.0035
11282TIP3    H155261   2.594   0.037  15.140  0.7040  0.3300 -1.4585
11282TIP3    H255262   2.599   0.166  15.219  1.6335 -0.4134 -0.2691
11283TIP3   OH255263   6.771   4.003  14.064 -0.1770 -0.3711 -0.1110
11283TIP3    H155264   6.841   4.025  14.002 -1.3708  1.4942 -0.8870
11283TIP3    H255265   6.808   4.023  14.150  0.4184  0.1148 -0.4713
11284TIP3   OH255266   4.029   6.325  12.300 -0.2651  0.1081  0.4320
11284TIP3    H155267   4.057   6.234  12.309  1.5655  0.7668  2.3498
11284TIP3    H255268   4.110   6.374  12.282 -1.2370  1.3606 -0.7954
11285TIP3   OH255269   0.814   2.488   3.743 -0.1494  0.1149 -0.1322
11285TIP3    H155270   0.882   2.463   3.680 -1.9345  1.9839 -3.0663
11285TIP3    H255271   0.738   2.436   3.717 -0.2409 -1.2129  2.4544
11286TIP3   OH255272   2.700   4.640   5.387  0.2557  0.1866  0.2689
11286TIP3    H155273   2.655   4.684   5.315 -0.1375 -1.1283 -0.3101
11286TIP3    H255274   2.733   4.712   5.442  0.5874  1.2159 -1.2222
11287TIP3   OH255275   3.574   5.941  16.672  0.0260 -0.2504  0.2913
11287TIP3    H155276   3.571   5.849  16.645  0.5984 -0.3016  0.3886
11287TIP3    H255277   3.569   5.990  16.590 -0.3442 -0.3640  0.2440
11288TIP3   OH255278   5.102   3.758   4.640 -0.1115  0.2883  0.8588
11288TIP3    H155279   5.164   3.808   4.693  1.0629  0.1864 -0.3670
11288TIP3    H255280   5.039   3.823   4.610  0.9640  0.9322 -0.0906
11289TIP3   OH255281   4.350   1.522  14.179 -0.1403  0.2960  0.5084
11289TIP3    H155282   4.431   1.515  14.128 -2.1767  0.4666 -3.0262
11289TIP3    H255283   4.339   1.435  14.218  1.0143 -0.1390 -0.0785
11290TIP3   OH255284   4.539   5.812   5.598  0.0355 -0.1990  0.1913
11290TIP3    H155285   4.481   5.862   5.540  3.0664  0.8518 -2.1684
11290TIP3    H255286   4.533   5.722   5.565 -0.5629 -0.1995  0.2815
11291TIP3   OH255287   1.928   4.915   0.614 -0.0278  0.4435  0.1937
11291TIP3    H155288   1.954   5.004   0.592 -0.7785  0.9590  1.2931
11291TIP3    H255289   1.847   4.901   0.565  0.5466  0.0311 -0.6623
11292TIP3   OH255290   3.183   2.680  16.019 -0.1602  0.1623  0.1596
11292TIP3    H155291   3.116   2.749  16.020 -0.8982 -0.4870 -1.1409
11292TIP3    H255292   3.217   2.677  16.109 -2.3485  0.0852  1.0485
11293TIP3   OH255293   1.772   0.815   4.457 -0.1636 -0.4101  0.2736
11293TIP3    H155294   1.867   0.822   4.454 -0.1315 -1.1019 -1.8522
11293TIP3    H255295   1.742   0.905   4.466  0.6790 -0.0651 -0.2557
11294TIP3   OH255296   1.445   2.687  12.224 -0.3206 -0.0206  0.0974
11294TIP3    H155297   1.413   2.600  12.201  0.6720 -0.3943  0.0768
11294TIP3    H255298   1.539   2.683  12.208 -0.2175  0.9705  0.3752
11295TIP3   OH255299   6.543   1.399  14.135  0.1297 -0.6208 -0.4751
11295TIP3    H155300   6.557   1.480  14.085 -0.5949 -1.9631 -2.9947
11295TIP3    H255301   6.630   1.358  14.139  0.0751 -0.8149 -1.2247
11296TIP3   OH255302   3.208   3.636  15.391  0.1387  0.0183  0.3667
11296TIP3    H155303   3.141   3.567  15.392  0.9866 -0.8642  2.4653
11296TIP3    H255304   3.248   3.629  15.304 -1.2625 -0.6370 -0.2583
11297TIP3   OH255305   1.267   3.585   2.801 -0.1547  0.1696  0.0942
11297TIP3    H155306   1.217   3.518   2.753  0.9906  0.5406 -1.7240
11297TIP3    H255307   1.332   3.536   2.850  0.8350 -0.1020 -1.4168
11298TIP3   OH255308   5.694   2.701  13.279  0.8853 -0.1394 -0.0227
11298TIP3    H155309   5.636   2.625  13.275  1.0330 -0.2335 -0.5976
11298TIP3    H255310   5.765   2.680  13.218  0.4491  0.8366 -0.9185
11299TIP3   OH255311   5.552   4.140  13.443 -0.0838 -0.3022 -0.4097
11299TIP3    H155312   5.602   4.067  13.406  1.7329  1.1636 -0.9873
11299TIP3    H255313   5.554   4.208  13.376  0.9817  1.4299  1.2679
11300TIP3   OH255314   3.564   2.460  11.099 -0.2175 -0.4813 -0.4976
11300TIP3    H155315   3.615   2.379  11.098  1.6550  0.5544  2.0136
11300TIP3    H255316   3.589   2.504  11.018 -0.7377 -2.0268 -1.5571
11301TIP3   OH255317   2.235   2.101  16.530  0.4275 -0.0965 -0.1174
11301TIP3    H155318   2.158   2.090  16.475 -0.5033  0.1613  1.0873
11301TIP3    H255319   2.201   2.101  16.620  1.2463  3.8385  0.3825
11302TIP3   OH255320   2.394   0.399   0.227 -0.1434 -0.3477 -0.4496
11302TIP3    H155321   2.456   0.377   0.296  0.1962  0.1687 -0.5898
11302TIP3    H255322   2.309   0.370   0.261 -0.2233  1.2425  0.8402
11303TIP3   OH255323   0.353   5.676  14.911 -0.0922 -0.0986  0.0539
11303TIP3    H155324   0.339   5.721  14.828  0.7402  4.1756  1.9335
11303TIP3    H255325   0.266   5.661  14.946 -0.4636 -2.2963 -1.6310
11304TIP3   OH255326   1.888   1.112   3.783  0.0778 -0.1662 -0.3008
11304TIP3    H155327   1.841   1.106   3.866  0.2409  1.2241 -0.0811
11304TIP3    H255328   1.890   1.022   3.750 -1.7411 -0.4366  0.2206
11305TIP3   OH255329   0.894   1.946  17.079 -0.4532 -0.3890  0.4102
11305TIP3    H155330   0.837   2.018  17.106 -1.5671 -1.0987  0.0067
11305TIP3    H255331   0.861   1.921  16.992  0.1232 -1.1761  0.4126
11306TIP3   OH255332   4.720   0.255  14.189 -0.1770 -0.3364  0.0255
11306TIP3    H155333   4.805   0.267  14.232 -0.7053 -0.6863  1.2069
11306TIP3    H255334   4.736   0.185  14.126  0.6524  0.2780 -0.4689
11307TIP3   OH255335   0.579   1.422   3.009 -0.2430 -0.3132  0.4510
11307TIP3    H155336   0.654   1.439   3.066  0.5494 -1.3768 -0.2395
11307TIP3    H255337   0.618   1.394   2.926 -1.2143  3.7186 -1.6327
11308TIP3   OH255338   0.517   6.010   1.559 -0.3670  0.1597 -0.1810
11308TIP3    H155339   0.496   5.935   1.614 -0.2355 -0.0184 -0.3736
11308TIP3    H255340   0.588   6.054   1.605 -0.6577  0.3476  0.0954
11309TIP3   OH255341   3.667   6.495   3.941 -0.0857 -0.1069 -0.0938
11309TIP3    H155342   3.722   6.511   3.864  0.5154  0.7776  0.5038
11309TIP3    H255343   3.729   6.483   4.013 -0.6527 -0.1138  0.3965
11310TIP3   OH255344   3.678   1.791   2.012 -0.0254  0.1094 -0.2128
11310TIP3    H155345   3.707   1.701   1.994 -0.1378 -0.0608  0.4442
11310TIP3    H255346   3.671   1.831   1.925  1.2191 -0.1449 -0.4549
11311TIP3   OH255347   2.591   0.456   1.535 -0.3657 -0.9539  0.2807
11311TIP3    H155348   2.680   0.423   1.524 -0.5879 -1.1346 -1.2406
11311TIP3    H255349   2.600   0.531   1.594  0.6934 -1.3591  0.6526
11312TIP3   OH255350   2.556   0.002   0.881 -0.2532 -0.0772  0.0731
11312TIP3    H155351   2.467  -0.029   0.862 -0.8657  2.0098 -0.7123
11312TIP3    H255352   2.579   0.057   0.806  0.1414  2.5635  1.9836
11313TIP3   OH255353   0.794   1.007   5.089  0.0114 -0.3192  0.8804
11313TIP3    H155354   0.835   1.049   5.014  0.3622 -0.0924  1.1944
11313TIP3    H255355   0.738   0.939   5.052  1.0041 -0.9163  0.4781
11314TIP3   OH255356   0.024   0.955   0.627  0.3889  0.0321  0.0213
11314TIP3    H155357   0.120   0.955   0.629  0.4776 -0.1260 -2.1733
11314TIP3    H255358  -0.001   0.888   0.691  1.7982 -0.9614 -0.4265
11315TIP3   OH255359   1.353   2.159   1.566 -0.7458  0.3104  0.3272
11315TIP3    H155360   1.351   2.189   1.475 -0.5678  0.2900  0.3154
11315TIP3    H255361   1.332   2.237   1.617 -2.8540 -0.1183  0.1866
11316TIP3   OH255362   2.421   6.671  12.222 -0.2727  0.1415  0.4995
11316TIP3    H155363   2.450   6.590  12.181 -0.7868 -0.3145  1.0170
11316TIP3    H255364   2.486   6.736  12.195  0.7853 -0.6779  0.9827
11317TIP3   OH255365   4.371   4.700  16.936  0.0701  0.2732  0.1264
11317TIP3    H155366   4.342   4.710  16.845 -1.4811  2.6460  0.7874
11317TIP3    H255367   4.302   4.649  16.978 -1.1591  2.2662  0.7102
11318TIP3   OH255368   2.190   5.060   5.170 -0.1763  0.4498 -0.0340
11318TIP3    H155369   2.243   5.087   5.245  3.4034  0.0760 -2.1853
11318TIP3    H255370   2.182   4.965   5.179 -1.0774  0.5695  0.5904
11319TIP3   OH255371   3.451   5.932  12.375  0.1712  0.0591 -0.4757
11319TIP3    H155372   3.396   5.931  12.453  2.3422  1.1084  1.1677
11319TIP3    H255373   3.467   6.025  12.358 -0.4304 -0.1426 -2.3383
11320TIP3   OH255374   3.354   5.374  11.953  0.2985 -0.1626 -0.0279
11320TIP3    H155375   3.266   5.406  11.931  0.7000  0.2091 -1.2258
11320TIP3    H255376   3.406   5.395  11.875  1.3113 -0.9146  0.4280
11321TIP3   OH255377   2.231   5.245  12.277  0.2435 -0.2950 -0.0391
11321TIP3    H155378   2.201   5.248  12.186 -0.6129  0.3168  0.2528
11321TIP3    H255379   2.308   5.303  12.279  0.8799 -1.0925 -0.5745
11322TIP3   OH255380   4.982   1.232  10.978 -0.6470  0.1006 -0.1930
11322TIP3    H155381   5.016   1.290  11.047 -0.5343  1.6869 -1.5328
11322TIP3    H255382   4.896   1.206  11.010 -0.3681  0.3343  0.8043
11323TIP3   OH255383   1.820   6.154  14.103  0.4469 -0.3978  0.1888
11323TIP3    H155384   1.821   6.223  14.037 -0.3083 -0.7132 -0.1634
11323TIP3    H255385   1.762   6.187  14.171 -1.6473 -1.5387 -0.9560
11324TIP3   OH255386   2.085   3.113   2.225  0.5120  0.6475  0.4311
11324TIP3    H155387   2.034   3.055   2.281 -0.5010 -0.1858 -1.2645
11324TIP3    H255388   2.176   3.100   2.252  0.1648 -0.6946  1.0050
11325TIP3   OH255389   5.482   2.937  11.422 -0.0353 -0.0792  0.1480
11325TIP3    H155390   5.535   2.890  11.358  1.6243  3.0084 -0.9845
11325TIP3    H255391   5.544   2.994  11.467 -1.9447  1.5749  0.8536
11326TIP3   OH255392   5.844   5.284   2.644 -0.5254  0.7871 -0.0766
11326TIP3    H155393   5.846   5.379   2.653  3.0799  1.0193 -2.0046
11326TIP3    H255394   5.828   5.268   2.551  2.2732 -0.2915 -0.4637
11327TIP3   OH255395   5.611   2.544  15.233 -0.4099 -0.1718 -0.1674
11327TIP3    H155396   5.553   2.597  15.287 -1.3267  0.9129 -2.1206
11327TIP3    H255397   5.699   2.572  15.257 -0.7741  0.0252  0.9944
11328TIP3   OH255398   0.170   4.499   4.992 -0.3980  0.7131 -0.0711
11328TIP3    H155399   0.161   4.468   5.082 -2.8185  0.9353 -0.1674
11328TIP3    H255400   0.174   4.419   4.939  1.9510  0.5640  0.2331
11329TIP3   OH255401   5.453   3.660  16.364  0.0086 -0.1969  0.3019
11329TIP3    H155402   5.425   3.728  16.424  1.6330  1.5953 -0.8578
11329TIP3    H255403   5.536   3.628  16.401  1.6769  1.7927 -1.5022
11330TIP3   OH255404   6.180   2.769   1.167  0.3528 -0.3704  0.0765
11330TIP3    H155405   6.224   2.837   1.218 -1.1036 -0.8618  2.1273
11330TIP3    H255406   6.186   2.691   1.222 -2.7624 -0.5183  0.3675
11331TIP3   OH255407   4.824   1.538  15.181 -0.0303  0.3173 -0.0222
11331TIP3    H155408   4.769   1.523  15.258  0.5282  1.3285  0.5959
11331TIP3    H255409   4.795   1.472  15.118 -0.5352 -0.5076  1.0329
11332TIP3   OH255410   5.640   1.471   0.097  0.0787 -0.1255  0.2578
11332TIP3    H155411   5.672   1.381   0.090  0.3075 -0.2806  2.4820
11332TIP3    H255412   5.720   1.524   0.106 -0.0163  0.4266 -1.7536
11333TIP3   OH255413   1.786   3.214  13.617 -0.3964 -0.2675  0.1188
11333TIP3    H155414   1.808   3.286  13.558 -3.3416  0.2205 -0.5641
11333TIP3    H255415   1.819   3.243  13.702  2.5963 -0.3091 -0.9151
11334TIP3   OH255416   6.356   3.315   6.672  0.0466  0.0517  0.0515
11334TIP3    H155417   6.290   3.324   6.603 -0.8213 -1.6862  0.5730
11334TIP3    H255418   6.357   3.400   6.716 -0.9808  0.4869 -0.7189
11335TIP3   OH255419   6.570   1.017   0.180 -0.2112 -0.0701  0.1513
11335TIP3    H155420   6.630   1.052   0.246  1.6828  0.2389 -1.6454
11335TIP3    H255421   6.613   0.939   0.146 -0.6023  0.3708 -1.4598
11336TIP3   OH255422   2.198   0.689   3.394  0.0097 -0.0904 -0.2455
11336TIP3    H155423   2.263   0.685   3.464  1.2873 -1.5577 -1.4556
11336TIP3    H255424   2.127   0.633   3.425  0.8853 -1.3321 -0.4003
11337TIP3   OH255425   5.566   3.025   4.543 -0.2889  0.2752  0.3950
11337TIP3    H155426   5.488   3.027   4.487 -1.8664 -1.8936  2.2996
11337TIP3    H255427   5.532   3.007   4.631  2.2981  0.2919  1.4848
11338TIP3   OH255428   0.740   5.904   4.617  0.3059  0.1737  0.1178
11338TIP3    H155429   0.655   5.874   4.649  0.4034 -2.7354 -1.9394
11338TIP3    H255430   0.721   5.948   4.534  0.8169 -2.2644 -1.4027
11339TIP3   OH255431   1.829   1.971   0.726 -0.1919  0.3114 -0.4922
11339TIP3    H155432   1.890   1.931   0.788 -0.3091  0.3698 -0.3410
11339TIP3    H255433   1.886   2.003   0.656  0.0267  0.9705 -0.0280
11340TIP3   OH255434   4.988   4.365   6.302 -0.2360  0.2000  0.1240
11340TIP3    H155435   5.072   4.405   6.321 -0.9943  1.9788 -0.1005
11340TIP3    H255436   4.927   4.404   6.365 -1.5384  1.5112 -1.8515
11341TIP3   OH255437   0.412   5.849   1.267 -0.1319 -0.5202 -0.1023
11341TIP3    H155438   0.329   5.802   1.282 -0.2490 -0.3153 -0.0996
11341TIP3    H255439   0.477   5.800   1.317 -0.3590 -0.3542  0.3669
11342TIP3   OH255440   1.313   1.566   0.785 -0.2843 -0.1973  0.4987
11342TIP3    H155441   1.311   1.662   0.792  0.3247 -0.0222 -1.2398
11342TIP3    H255442   1.402   1.546   0.755 -0.4816 -1.2885  0.6098
11343TIP3   OH255443   5.459   6.382  11.378  0.1587 -0.0552  0.5904
11343TIP3    H155444   5.507   6.373  11.461 -1.5414 -0.0848  1.6218
11343TIP3    H255445   5.527   6.397  11.312  1.6153 -0.7182  1.8778
11344TIP3   OH255446   0.226   6.758   4.535  0.5244  0.3767 -0.2654
11344TIP3    H155447   0.135   6.784   4.548 -0.0193 -1.6835  0.4076
11344TIP3    H255448   0.243   6.776   4.442 -1.4160 -1.5211 -1.0796
11345TIP3   OH255449   3.198   3.509   6.350 -0.4049  0.9434 -0.6535
11345TIP3    H155450   3.245   3.456   6.415 -0.1975  1.8737 -0.0339
11345TIP3    H255451   3.158   3.444   6.292 -1.3408  0.0370  0.9153
11346TIP3   OH255452   2.087   2.090  14.398 -0.3124 -0.1478 -0.1415
11346TIP3    H155453   2.163   2.054  14.443  0.5738 -0.1302 -1.5874
11346TIP3    H255454   2.114   2.178  14.372 -1.2387  0.2847  0.2932
11347TIP3   OH255455   2.161   0.644  13.230  0.2696 -0.3608 -0.2804
11347TIP3    H155456   2.192   0.591  13.304  1.6604  1.3198  0.4219
11347TIP3    H255457   2.104   0.710  13.270  0.2092 -0.0638 -0.8392
11348TIP3   OH255458   3.670   5.517  14.727  0.4681  0.3931 -0.3477
11348TIP3    H155459   3.663   5.552  14.816  1.3867  1.4859 -0.6822
11348TIP3    H255460   3.620   5.436  14.730 -0.3655  0.9084  0.8976
11349TIP3   OH255461   4.263   4.777  15.300  0.0728  0.4767  0.1811
11349TIP3    H155462   4.324   4.817  15.362  1.6258 -1.1777 -0.2021
11349TIP3    H255463   4.305   4.696  15.274 -0.7537  0.8654 -2.6971
11350TIP3   OH255464   2.634   0.299  13.589  0.0220 -0.2242 -0.0660
11350TIP3    H155465   2.604   0.293  13.498 -1.4449  1.5205  0.2648
11350TIP3    H255466   2.716   0.249  13.590  0.6145  0.5501 -2.5817
11351TIP3   OH255467   4.426   3.358  11.510 -0.1657  0.2820 -0.0299
11351TIP3    H155468   4.497   3.420  11.525  0.3396 -0.3397  0.1784
11351TIP3    H255469   4.421   3.308  11.591  0.4574 -0.9715 -0.7385
11352TIP3   OH255470   2.177   5.686  12.028  0.0381 -0.2192 -0.5636
11352TIP3    H155471   2.120   5.623  11.985  0.2712 -1.5657  0.9987
11352TIP3    H255472   2.265   5.669  11.993  0.3931 -1.9541  1.0369
11353TIP3   OH255473   5.372   2.378  17.221  0.0991 -0.4196  0.1707
11353TIP3    H155474   5.418   2.314  17.167 -0.9905  0.1917 -1.5983
11353TIP3    H255475   5.415   2.374  17.306 -0.1873 -3.7586  0.2738
11354TIP3   OH255476   4.938   5.534   1.657  0.0478  0.5859 -0.6368
11354TIP3    H155477   4.853   5.499   1.685  0.5002 -0.4054 -0.4514
11354TIP3    H255478   4.922   5.627   1.642 -0.7881  0.6534  0.5628
11355TIP3   OH255479   2.791   4.893   2.299  0.4421 -0.0674 -0.2014
11355TIP3    H155480   2.863   4.887   2.362  0.5829 -1.7149 -0.4809
11355TIP3    H255481   2.740   4.969   2.328  0.9789 -0.2875  1.4059
11356TIP3   OH255482   5.963   2.085   4.110  0.7485  0.2474 -0.2011
11356TIP3    H155483   5.936   2.075   4.201 -1.0264 -0.5616 -0.7785
11356TIP3    H255484   6.032   2.152   4.113  1.9127 -0.9555  1.9148
11357TIP3   OH255485   2.575   2.289  15.227 -0.5344 -0.5890  0.0987
11357TIP3    H155486   2.588   2.349  15.154  1.2887  1.4159  1.9436
11357TIP3    H255487   2.649   2.229  15.223 -0.7749 -0.8803 -0.0430
11358TIP3   OH255488   5.397   4.256  14.530 -0.6367 -0.0334 -0.2763
11358TIP3    H155489   5.337   4.213  14.469 -1.6755  0.4428  0.3922
11358TIP3    H255490   5.407   4.345  14.496 -2.0542  0.5727  0.7665
11359TIP3   OH255491   5.418   2.979  16.844 -0.5594 -0.2170 -0.0134
11359TIP3    H155492   5.488   2.927  16.806  0.1314 -0.0971  1.0372
11359TIP3    H255493   5.395   2.933  16.925  0.4422  1.3247  1.2257
11360TIP3   OH255494   5.074   2.467  16.637  0.4988  0.0915 -0.0459
11360TIP3    H155495   5.164   2.437  16.625  1.2076  2.2034 -0.5633
11360TIP3    H255496   5.049   2.499  16.550 -1.1670 -1.4421 -0.1650
11361TIP3   OH255497   0.699   0.437  12.090 -0.2888 -0.7507  0.4475
11361TIP3    H155498   0.704   0.504  12.158  0.3433 -0.5341  0.1974
11361TIP3    H255499   0.635   0.470  12.028  0.3886 -0.1234  0.0634
11362TIP3   OH255500   0.903   3.446  17.116 -0.2371  0.2204 -0.3473
11362TIP3    H155501   0.946   3.531  17.121  0.7196 -0.3168  1.0239
11362TIP3    H255502   0.906   3.423  17.023 -0.9617  1.8733 -0.8242
11363TIP3   OH255503   4.958   3.629  14.713  0.6144  0.6888 -0.0492
11363TIP3    H155504   5.029   3.642  14.650  0.3526 -0.2228 -0.5401
11363TIP3    H255505   4.878   3.635  14.661  0.3260  1.5614  0.4771
11364TIP3   OH255506   2.944   4.659  17.106 -0.4508 -0.2488 -0.4218
11364TIP3    H155507   2.979   4.681  17.020  0.3937  0.8654  0.1824
11364TIP3    H255508   2.901   4.574  17.093  0.5699 -0.6157 -1.7019
11365TIP3   OH255509   5.571   2.968   3.890 -0.3365  1.0176  0.5851
11365TIP3    H155510   5.659   2.947   3.921  0.3924 -0.5341 -2.2345
11365TIP3    H255511   5.514   2.947   3.964  1.3908 -1.0661  1.4275
11366TIP3   OH255512   5.306   0.188   4.535  0.2526 -0.0411 -0.5510
11366TIP3    H155513   5.249   0.199   4.611  1.4257  1.1154  0.1901
11366TIP3    H255514   5.270   0.112   4.490 -1.8001  0.5475 -0.0470
11367TIP3   OH255515   2.391   6.314  14.673  0.2857  0.6302  0.7561
11367TIP3    H155516   2.313   6.336  14.622  0.3629 -1.5942 -0.4528
11367TIP3    H255517   2.454   6.383  14.653 -0.5893  1.2057 -0.0900
11368TIP3   OH255518   0.921   6.714  10.813 -0.6300 -0.4183 -0.0596
11368TIP3    H155519   0.870   6.638  10.841  0.2643 -1.4661 -1.1607
11368TIP3    H255520   0.857   6.784  10.805 -1.4755 -1.0346  1.0362
11369TIP3   OH255521   3.996   1.724   0.928  0.1530  0.3748  0.2436
11369TIP3    H155522   4.067   1.665   0.904 -1.9584 -2.6947  0.9812
11369TIP3    H255523   4.016   1.752   1.017  0.9467  0.3946  0.0628
11370TIP3   OH255524   2.151   3.746  15.456  0.1315  0.0826 -0.3143
11370TIP3    H155525   2.199   3.829  15.452 -2.5759  1.8114  0.2497
11370TIP3    H255526   2.159   3.718  15.547 -1.5593  1.5278  0.3513
11371TIP3   OH255527   4.616   2.321  10.903 -0.3651  0.0103  0.4100
11371TIP3    H155528   4.673   2.325  10.980 -0.0839 -0.5691  0.2382
11371TIP3    H255529   4.656   2.382  10.840 -0.2137 -0.0268  0.4710
11372TIP3   OH255530   2.442   6.723   5.860 -0.0986  0.4131  0.0291
11372TIP3    H155531   2.364   6.748   5.910 -1.6472 -2.4951 -0.6984
11372TIP3    H255532   2.407   6.690   5.777  2.1749  1.7723 -1.5717
11373TIP3   OH255533   6.054   3.790   1.570  0.6456 -0.0217  0.1299
11373TIP3    H155534   6.050   3.862   1.507 -1.1097  1.3124  1.6271
11373TIP3    H255535   6.147   3.772   1.581  1.3402  3.5366  1.2459
11374TIP3   OH255536   4.963   4.506  15.931 -0.4670  0.0664  0.1745
11374TIP3    H155537   4.978   4.523  16.025  1.0037 -0.5767  0.0854
11374TIP3    H255538   4.978   4.412  15.921 -2.4436 -0.2147 -0.4106
11375TIP3   OH255539   6.454   2.258  13.747 -0.1924 -0.0649  0.4793
11375TIP3    H155540   6.467   2.352  13.753 -0.2076  0.0123 -0.5461
11375TIP3    H255541   6.389   2.247  13.676  0.6811 -0.8954 -0.2224
11376TIP3   OH255542   1.876   1.640  14.600 -0.7805 -0.7065 -0.0953
11376TIP3    H155543   1.891   1.564  14.656  0.6423  0.4385  1.1489
11376TIP3    H255544   1.793   1.677  14.632 -1.0700 -1.2530 -0.1865
11377TIP3   OH255545   5.059   4.307  13.653 -1.0168 -0.1850  0.2710
11377TIP3    H155546   5.152   4.333  13.656 -1.3420  1.6642 -1.9759
11377TIP3    H255547   5.012   4.387  13.676 -2.0681 -0.7248  0.0282
11378TIP3   OH255548   5.029   4.942  16.654  0.4816 -0.1054 -0.5085
11378TIP3    H155549   5.036   5.003  16.727 -1.3742  0.2800 -0.6108
11378TIP3    H255550   5.028   4.855  16.694 -1.1558  0.1265  0.0240
11379TIP3   OH255551   4.995   2.554  13.171  0.3303  0.2655  0.2686
11379TIP3    H155552   4.968   2.569  13.261 -0.1623 -0.2953  0.2220
11379TIP3    H255553   4.922   2.506  13.132 -0.3846  2.2878 -1.0164
11380TIP3   OH255554   1.884   5.962   5.799 -0.3595  0.4542 -0.2355
11380TIP3    H155555   1.859   5.880   5.841  1.0169  0.1715  0.0782
11380TIP3    H255556   1.923   6.014   5.869  1.8137  0.0444 -1.0848
11381TIP3   OH255557   3.905   3.858   3.813  0.1929  0.0564 -0.4597
11381TIP3    H155558   3.888   3.903   3.730  0.6781  3.7806  1.2509
11381TIP3    H255559   4.000   3.861   3.823  0.3400 -2.3025 -0.6475
11382TIP3   OH255560   0.114   4.717  14.602 -0.6250  0.1056 -0.1006
11382TIP3    H155561   0.151   4.798  14.636  0.1405  0.4333 -1.6138
11382TIP3    H255562   0.133   4.652  14.669  1.3226  0.6000 -0.1071
11383TIP3   OH255563   0.144   4.476   4.075 -0.0771 -0.1766  0.0117
11383TIP3    H155564   0.119   4.461   4.166  0.1378 -0.7026 -0.0126
11383TIP3    H255565   0.225   4.427   4.063  1.1840  1.7616  0.1649
11384TIP3   OH255566   3.118   4.331  12.095  0.3885  0.0565 -0.0303
11384TIP3    H155567   3.205   4.313  12.060  0.3950 -1.3287  0.6394
11384TIP3    H255568   3.098   4.420  12.064  1.1185 -0.4085 -1.9850
11385TIP3   OH255569   5.646   1.971   2.242 -0.0693  0.0459  0.0873
11385TIP3    H155570   5.695   2.052   2.257  0.9402 -0.8530  1.9850
11385TIP3    H255571   5.621   1.975   2.150  0.3948  2.2662  0.0043
11386TIP3   OH255572   2.700   6.257   6.271 -0.0879  0.4374 -0.4488
11386TIP3    H155573   2.723   6.308   6.349 -0.0734  0.2293 -0.3173
11386TIP3    H255574   2.737   6.171   6.287 -2.9111 -0.6615  0.8760
11387TIP3   OH255575   6.413   0.976  15.366  0.2484 -0.5499  0.1601
11387TIP3    H155576   6.481   1.044  15.373  0.1321 -0.0872 -2.3767
11387TIP3    H255577   6.458   0.901  15.327 -0.4557 -0.5683 -0.6488
11388TIP3   OH255578   0.739   4.414   3.152 -0.4364  0.1958  0.2211
11388TIP3    H155579   0.804   4.460   3.099  0.2750 -0.4590  0.5082
11388TIP3    H255580   0.679   4.483   3.182 -0.6532  0.6300 -1.1228
11389TIP3   OH255581   3.140   2.945  15.502 -0.0446 -0.1218  0.1677
11389TIP3    H155582   3.217   2.930  15.558  0.9448 -0.0742 -1.1238
11389TIP3    H255583   3.167   2.913  15.416 -1.8411 -1.0018 -0.1152
11390TIP3   OH255584   2.320   1.229  15.144 -0.0470  0.3143  0.0893
11390TIP3    H155585   2.317   1.142  15.183 -0.6871  0.2586 -0.0704
11390TIP3    H255586   2.229   1.261  15.149  0.3613  1.3948  1.0962
11391TIP3   OH255587   5.924   1.869   0.716  0.4268 -0.0140 -0.0796
11391TIP3    H155588   5.949   1.796   0.774 -0.8228 -2.3665 -2.2919
11391TIP3    H255589   5.993   1.871   0.650 -0.0371  0.1537 -0.5647
11392TIP3   OH255590   0.326   2.231   3.266 -0.9815 -0.1331 -0.2999
11392TIP3    H155591   0.364   2.145   3.249 -1.2184 -0.0823 -1.1530
11392TIP3    H255592   0.285   2.256   3.183 -0.9713  0.7696 -0.0511
11393TIP3   OH255593   4.242   4.240  16.367  0.6134  0.4124 -0.4859
11393TIP3    H155594   4.308   4.194  16.315 -0.0198 -0.6792 -0.3492
11393TIP3    H255595   4.198   4.171  16.416 -1.5899  0.9328 -1.6202
11394TIP3   OH255596   3.642   1.350   3.279  0.4523 -0.4530  0.0740
11394TIP3    H155597   3.724   1.324   3.238 -0.2016 -2.1124 -0.2486
11394TIP3    H255598   3.574   1.306   3.227 -0.7085  1.2967 -0.0035
11395TIP3   OH255599   2.827   3.972  11.496  0.7732  0.6010 -0.2884
11395TIP3    H155600   2.752   3.947  11.550  0.3377  2.0109 -0.2042
11395TIP3    H255601   2.883   3.894  11.495 -0.3715 -0.2488  0.1901
11396TIP3   OH255602   1.024   4.052  15.854 -0.4382  0.4972 -0.1687
11396TIP3    H155603   0.997   4.013  15.771 -1.1880  0.7622 -0.0582
11396TIP3    H255604   1.039   4.144  15.834  1.9083  0.0896 -0.5595
11397TIP3   OH255605   0.457   5.851  14.431  0.1706 -0.7012  0.1628
11397TIP3    H155606   0.402   5.862  14.353  0.3861  3.0532  0.3501
11397TIP3    H255607   0.546   5.860  14.400  0.2134  2.7155  0.8865
11398TIP3   OH255608   0.511   6.705   4.510  0.0834  0.8987 -0.0294
11398TIP3    H155609   0.607   6.699   4.506  0.1756  1.0991  1.3952
11398TIP3    H255610   0.481   6.661   4.431  1.3163 -0.1534  0.0552
11399TIP3   OH255611   6.659   5.530  13.206  0.8405  0.2037  0.0872
11399TIP3    H155612   6.591   5.598  13.209  0.4996 -0.1750  1.7288
11399TIP3    H255613   6.613   5.452  13.177  1.1539  0.5370 -1.4123
11400TIP3   OH255614   2.749   5.993   2.982 -0.2631 -0.2697  0.2983
11400TIP3    H155615   2.711   6.066   2.932 -0.6346 -1.1799 -0.7849
11400TIP3    H255616   2.751   6.025   3.072  0.4266  1.4343 -0.2689
11401TIP3   OH255617   4.230   3.319   3.963  0.3575  0.5295 -1.1156
11401TIP3    H155618   4.324   3.301   3.959  0.0900 -0.7588 -1.9506
11401TIP3    H255619   4.216   3.353   4.052  1.6077  0.7816 -0.9932
11402TIP3   OH255620   1.927   4.481   2.824 -0.0548  0.2645  0.6098
11402TIP3    H155621   1.938   4.573   2.849 -0.7312  0.9360 -1.4065
11402TIP3    H255622   1.957   4.477   2.733 -2.8164 -0.8156 -0.3481
11403TIP3   OH255623   4.744   5.330   0.404  0.2997 -0.1437  0.4957
11403TIP3    H155624   4.699   5.379   0.473  0.1549  0.1805  0.1724
11403TIP3    H255625   4.714   5.239   0.416 -0.0783 -0.0120  0.5734
11404TIP3   OH255626   0.846   1.886  16.469  0.0281  0.9378 -0.2488
11404TIP3    H155627   0.935   1.894  16.438 -0.2678  0.4579 -1.2594
11404TIP3    H255628   0.797   1.954  16.423 -0.3418  0.4526 -0.5940
11405TIP3   OH255629   2.264   2.359  16.216  0.5856  0.4757 -0.4213
11405TIP3    H155630   2.254   2.272  16.178 -1.2992 -0.3687  1.7515
11405TIP3    H255631   2.343   2.353  16.271  0.9237  0.4020 -0.9161
11406TIP3   OH255632   3.543   1.062   0.055 -0.1813 -0.0850 -0.2093
11406TIP3    H155633   3.626   1.109   0.064  1.1943 -2.0662 -1.6639
11406TIP3    H255634   3.547   0.993   0.122 -0.1416 -0.8334 -0.9660
11407TIP3   OH255635   2.127   1.518  15.852  0.3798 -0.3771 -0.2839
11407TIP3    H155636   2.214   1.546  15.824  1.2289  0.1590  2.6201
11407TIP3    H255637   2.129   1.422  15.847  0.5778 -0.3222 -1.6370
11408TIP3   OH255638   1.817   6.675  16.477 -0.0265 -0.0193  0.6630
11408TIP3    H155639   1.848   6.635  16.558  1.6932 -0.1666 -0.0419
11408TIP3    H255640   1.777   6.603  16.428 -0.8828  0.0312  1.2603
11409TIP3   OH255641   6.174   2.330  16.865  0.4149 -0.4453  0.8995
11409TIP3    H155642   6.174   2.240  16.833 -3.4248 -0.3900  0.1860
11409TIP3    H255643   6.194   2.383  16.787 -0.5159 -0.6230  0.5208
11410TIP3   OH255644   5.454   5.179   5.546 -0.0044  0.0195  0.5170
11410TIP3    H155645   5.446   5.242   5.617  1.8352 -1.7473  2.4420
11410TIP3    H255646   5.510   5.223   5.481 -1.3848  1.5056  0.2858
11411TIP3   OH255647   4.514   5.043   3.126  0.6522 -0.5463 -0.2614
11411TIP3    H155648   4.525   4.948   3.134  0.0346 -0.5466  0.6738
11411TIP3    H255649   4.423   5.055   3.101  0.6641 -0.1879 -0.1377
11412TIP3   OH255650   0.956   2.707  11.007  0.2704  0.3308 -0.1145
11412TIP3    H155651   0.965   2.726  11.100 -1.0203  0.1770  0.0687
11412TIP3    H255652   0.986   2.617  10.998  0.2843  0.3044  0.1852
11413TIP3   OH255653   3.389   0.291  14.169  0.0576  0.3452 -0.0332
11413TIP3    H155654   3.298   0.303  14.141 -0.2636  0.0114  0.8290
11413TIP3    H255655   3.416   0.377  14.200 -0.1172  0.3411  0.1317
11414TIP3   OH255656   2.727   5.570  14.336 -0.0773 -0.4618 -0.2187
11414TIP3    H155657   2.687   5.501  14.283 -1.3397  0.4125 -0.4509
11414TIP3    H255658   2.663   5.587  14.405  0.5938 -0.0796  0.3277
11415TIP3   OH255659   5.061   5.425  11.835  0.7525  0.5689 -0.0511
11415TIP3    H155660   5.104   5.505  11.864  1.8370 -0.3492  0.9876
11415TIP3    H255661   4.981   5.420  11.889  0.6428  0.9842 -0.1745
11416TIP3   OH255662   1.960   6.206   0.316  0.0931 -0.5658  0.4192
11416TIP3    H155663   1.959   6.128   0.260  2.4405 -0.9825  0.8544
11416TIP3    H255664   1.896   6.264   0.276 -0.9095 -2.2604 -0.5763
11417TIP3   OH255665   1.068   3.616  13.235 -0.0594  0.1484  0.3881
11417TIP3    H155666   1.031   3.533  13.263  1.4193 -0.6016  0.2307
11417TIP3    H255667   1.117   3.595  13.155  0.8328  1.0318  0.6749
11418TIP3   OH255668   4.930   6.184   4.458 -0.5004 -0.7049  0.1554
11418TIP3    H155669   4.842   6.214   4.480  0.3971  1.0570  1.5957
11418TIP3    H255670   4.979   6.194   4.539  1.2154 -0.9138 -0.8252
11419TIP3   OH255671   6.581   2.879   5.582  0.4831  0.3243 -0.1952
11419TIP3    H155672   6.554   2.858   5.672 -2.0028 -0.0459 -0.9360
11419TIP3    H255673   6.675   2.865   5.581  0.3450 -1.2762  1.9379
11420TIP3   OH255674   2.427   6.193   3.802  0.8719  0.3708  0.5723
11420TIP3    H155675   2.404   6.242   3.722 -0.9307  0.4699  1.1101
11420TIP3    H255676   2.488   6.250   3.848  0.9518  0.8727 -0.1376
11421TIP3   OH255677   4.607   6.333  15.922 -0.6444  0.3230  0.5268
11421TIP3    H155678   4.586   6.396  15.991 -0.2135 -0.3389  1.2884
11421TIP3    H255679   4.688   6.367  15.883  0.2978 -0.4019  1.7888
11422TIP3   OH255680   5.871   4.076  14.745  0.2004  0.1602  0.2293
11422TIP3    H155681   5.781   4.109  14.744  0.4513  1.2356 -3.6876
11422TIP3    H255682   5.926   4.154  14.743  1.1228 -0.4783 -0.3333
11423TIP3   OH255683   4.706   3.431  14.870 -0.1967 -0.1604 -0.2590
11423TIP3    H155684   4.749   3.499  14.922  0.1590 -0.3094 -0.3491
11423TIP3    H255685   4.613   3.439  14.890 -0.1551  0.3633 -0.2836
11424TIP3   OH255686   6.034   3.315   3.977  0.2868 -0.3876 -0.2594
11424TIP3    H155687   5.955   3.286   3.930  1.7245 -0.9149 -2.5348
11424TIP3    H255688   6.080   3.234   3.998 -0.1310 -0.1366  1.8735
11425TIP3   OH255689   4.561   2.344  16.567 -0.7423  0.1243  0.0187
11425TIP3    H155690   4.571   2.430  16.607 -2.1469  0.3006  0.0611
11425TIP3    H255691   4.538   2.286  16.640  1.2647 -0.5489  0.1709
11426TIP3   OH255692   2.819   2.826   3.405 -0.2038  0.0955  0.4615
11426TIP3    H155693   2.774   2.840   3.488 -0.1697 -0.7594  0.6351
11426TIP3    H255694   2.910   2.809   3.429 -0.0745  0.4022  0.2060
11427TIP3   OH255695   6.658   0.784  15.610  0.0495 -0.6345 -0.3315
11427TIP3    H155696   6.620   0.697  15.598  1.6279 -1.4404  0.2026
11427TIP3    H255697   6.737   0.768  15.663 -0.9717  1.4310  1.9636
11428TIP3   OH255698   6.313   1.764   2.850 -0.3170  0.0453 -0.4097
11428TIP3    H155699   6.405   1.757   2.826 -0.5475 -0.2836 -1.2265
11428TIP3    H255700   6.313   1.817   2.929  0.5715  0.0791 -0.4252
11429TIP3   OH255701   0.289   1.643  15.124 -0.2856 -0.1256 -0.3304
11429TIP3    H155702   0.369   1.595  15.104 -0.6499 -0.9235  0.0939
11429TIP3    H255703   0.296   1.724  15.072  2.2174  1.2996  1.9968
11430TIP3   OH255704   2.946   2.192   1.045 -0.0947 -0.4132  0.3630
11430TIP3    H155705   2.894   2.113   1.058  0.2860 -0.7912 -0.3497
11430TIP3    H255706   2.886   2.264   1.065  0.4850 -0.8263  4.6480
11431TIP3   OH255707   0.606   1.775  11.282 -0.0080  0.7021  0.3547
11431TIP3    H155708   0.551   1.853  11.290 -0.0115  0.8871 -1.1900
11431TIP3    H255709   0.580   1.736  11.199  0.3927 -0.6454  0.8457
11432TIP3   OH255710   6.225   0.643   1.535  0.1325  0.0373  0.6697
11432TIP3    H155711   6.209   0.630   1.628  0.0515 -0.2208  0.6207
11432TIP3    H255712   6.233   0.738   1.525 -0.4907  0.1129  0.8429
11433TIP3   OH255713   6.632   5.704   6.338  0.3175  0.3496  0.4655
11433TIP3    H155714   6.605   5.626   6.290  0.8827  0.4889 -0.0983
11433TIP3    H255715   6.559   5.724   6.396 -0.7892  0.7476 -1.0287
11434TIP3   OH255716   1.812   6.297   3.242  0.2438  0.1635 -0.1433
11434TIP3    H155717   1.751   6.341   3.183  0.4774  1.9674  0.8725
11434TIP3    H255718   1.785   6.327   3.329  2.4843  0.9449  0.3373
11435TIP3   OH255719   0.983   3.734   4.673  0.1994 -0.3374  0.2551
11435TIP3    H155720   1.076   3.720   4.686 -0.1519 -1.4968  1.9034
11435TIP3    H255721   0.963   3.811   4.726  0.5113  1.0437 -1.5634
11436TIP3   OH255722   1.397   4.614  11.981  0.1178  0.4045 -0.6302
11436TIP3    H155723   1.438   4.528  11.985  0.3997  0.5902  1.3421
11436TIP3    H255724   1.315   4.599  11.935  0.6151 -0.7189 -1.1862
11437TIP3   OH255725   3.863   5.568   5.870  0.1281 -0.5482 -0.0408
11437TIP3    H155726   3.929   5.605   5.811  0.1801 -0.7388 -0.1029
11437TIP3    H255727   3.904   5.489   5.906 -0.9509 -2.1054 -1.9901
11438TIP3   OH255728   6.237   2.600  15.470 -0.4342 -0.0571  0.4653
11438TIP3    H155729   6.307   2.584  15.533 -0.3637  1.0405  0.6861
11438TIP3    H255730   6.280   2.595  15.385 -0.1971  0.0344  0.5774
11439TIP3   OH255731   0.648   3.169  16.991 -0.2684  0.0995 -0.1170
11439TIP3    H155732   0.592   3.182  17.068  0.8889  1.4050  0.5538
11439TIP3    H255733   0.590   3.185  16.916 -0.8458  1.2930  0.5526
11440TIP3   OH255734   6.459   3.202   5.688 -0.2921 -0.1322 -0.2168
11440TIP3    H155735   6.533   3.213   5.628  0.7459 -3.3442  0.2670
11440TIP3    H255736   6.500   3.195   5.775 -1.3038 -0.3515  0.2597
11441TIP3   OH255737   5.259   5.568   2.893  0.7851 -0.0502  0.3058
11441TIP3    H155738   5.186   5.601   2.946 -0.1680  0.4431 -1.2597
11441TIP3    H255739   5.288   5.643   2.843  0.5047 -0.8913 -1.1632
11442TIP3   OH255740   6.365   1.794  14.990  0.0952 -0.4947  0.1601
11442TIP3    H155741   6.452   1.754  14.985  0.1584 -0.4843  1.0409
11442TIP3    H255742   6.322   1.750  15.064 -0.2926  0.1781  0.3419
11443TIP3   OH255743   4.903   1.777  11.466 -0.3752  0.2516  0.6572
11443TIP3    H155744   4.968   1.798  11.399 -0.3535 -0.9873  0.2699
11443TIP3    H255745   4.908   1.851  11.527  0.9559  0.4877  0.3064
11444TIP3   OH255746   3.759   0.550  15.340 -0.3857  0.0507  0.4193
11444TIP3    H155747   3.845   0.587  15.360 -0.6934  0.4111  1.0932
11444TIP3    H255748   3.711   0.555  15.422 -1.0345 -0.2109  0.0619
11445TIP3   OH255749   1.056   5.494   3.382 -0.2435  0.1075  0.9043
11445TIP3    H155750   0.981   5.553   3.387 -0.3877 -0.0857  1.0452
11445TIP3    H255751   1.024   5.418   3.333 -0.6484 -0.7193  2.3794
11446TIP3   OH255752   4.344   4.832   6.143  0.4062 -0.1175 -0.1488
11446TIP3    H155753   4.302   4.856   6.061  0.0383  0.3871  0.1796
11446TIP3    H255754   4.285   4.768   6.182  0.0800  0.3724  0.1748
11447TIP3   OH255755   0.953   2.894   5.444  0.4414  0.5712  0.1150
11447TIP3    H155756   0.862   2.885   5.474 -0.1463  0.4424 -1.5826
11447TIP3    H255757   0.980   2.981   5.472 -1.0499  1.5772 -1.3430
11448TIP3   OH255758   2.510   0.020   2.706  0.1656 -0.1612  0.2344
11448TIP3    H155759   2.587  -0.036   2.697  1.2803  0.5861  3.6145
11448TIP3    H255760   2.441  -0.039   2.738  0.1372 -0.3306 -0.1376
11449TIP3   OH255761   1.357   3.063   2.718  0.7294 -0.1549  0.5503
11449TIP3    H155762   1.377   3.156   2.708  0.4103  0.1141  2.2244
11449TIP3    H255763   1.442   3.022   2.733  0.6464  0.2285  2.2219
11450TIP3   OH255764   0.345   5.133  16.882 -0.4241 -0.0472 -0.2031
11450TIP3    H155765   0.285   5.155  16.810 -2.0382 -2.2583  0.3667
11450TIP3    H255766   0.348   5.038  16.882  2.6657 -0.0433  0.2381
11451TIP3   OH255767   4.546   2.921   5.973  0.2218 -0.3051  0.1507
11451TIP3    H155768   4.522   2.949   6.061 -0.4084 -1.5036  0.3795
11451TIP3    H255769   4.637   2.948   5.964  0.5859 -0.9679  1.5219
11452TIP3   OH255770   4.008   0.584  12.874  0.3769  0.1348 -0.0176
11452TIP3    H155771   3.935   0.642  12.850  0.2077 -0.0740 -0.0103
11452TIP3    H255772   4.079   0.644  12.899  1.2937  0.4722 -3.0034
11453TIP3   OH255773   0.267   3.452   2.654 -0.1355 -0.3094  0.3641
11453TIP3    H155774   0.222   3.446   2.738 -0.8610 -0.4069 -0.0222
11453TIP3    H255775   0.358   3.434   2.674 -0.0097  1.2433  1.3968
11454TIP3   OH255776   5.415   4.298   2.203  0.0434 -0.4095  0.2511
11454TIP3    H155777   5.395   4.384   2.240 -0.1698 -0.4444  0.2202
11454TIP3    H255778   5.414   4.238   2.277 -0.9621 -0.5769  0.1162
11455TIP3   OH255779   5.825   3.393  12.155 -0.0111  0.1254 -0.4073
11455TIP3    H155780   5.779   3.379  12.072  0.5654 -1.1233 -0.5512
11455TIP3    H255781   5.853   3.305  12.181 -0.0201  0.5275  1.0254
11456TIP3   OH255782   2.142   6.112   2.884  0.2228 -0.1154 -0.0094
11456TIP3    H155783   2.211   6.059   2.846 -1.1633 -0.3297 -2.4230
11456TIP3    H255784   2.078   6.049   2.916  0.4310  0.0912  0.8313
11457TIP3   OH255785   1.773   3.152   3.864 -0.3984  0.4612  0.3073
11457TIP3    H155786   1.803   3.195   3.784  0.0184  0.9339  0.7108
11457TIP3    H255787   1.833   3.183   3.932 -1.0586  0.4624  0.9035
11458TIP3   OH255788   0.395   2.502   1.948 -0.1930  0.3370 -0.1960
11458TIP3    H155789   0.440   2.475   1.868 -1.4483 -1.3897 -0.3723
11458TIP3    H255790   0.316   2.547   1.917  0.2928  1.4090  0.0952
11459TIP3   OH255791   5.566   0.561  12.360  0.1263 -0.3072  0.0731
11459TIP3    H155792   5.613   0.644  12.371 -0.8231  0.1063  1.1573
11459TIP3    H255793   5.600   0.526  12.277  0.5804  1.1291 -0.3860
11460TIP3   OH255794   5.328   5.260  13.846  0.4496  0.7886 -0.0911
11460TIP3    H155795   5.332   5.354  13.862 -3.6326  1.3939 -1.3076
11460TIP3    H255796   5.349   5.251  13.753 -0.6233  0.7588 -0.3456
11461TIP3   OH255797   1.017   3.723   2.774  0.5797 -0.0256  0.6094
11461TIP3    H155798   1.105   3.701   2.802  0.9205  1.9701  1.3093
11461TIP3    H255799   0.967   3.729   2.856 -0.5848 -2.3421  0.1683
11462TIP3   OH255800   1.809   6.136   0.665  0.3631  0.9031 -0.1470
11462TIP3    H155801   1.788   6.210   0.721  1.3523  1.8182 -0.9557
11462TIP3    H255802   1.751   6.146   0.589  0.3773  0.7524 -0.1787
11463TIP3   OH255803   2.261   1.009  16.044 -0.0919  0.3146 -0.3966
11463TIP3    H155804   2.192   0.992  16.108  0.1872 -0.6953 -0.3493
11463TIP3    H255805   2.240   0.954  15.969  1.4593 -1.2451  0.2242
11464TIP3   OH255806   5.593   4.150  16.390 -0.2721 -0.4679 -0.4072
11464TIP3    H155807   5.655   4.193  16.449 -0.5772  1.0769 -1.1580
11464TIP3    H255808   5.525   4.115  16.448  0.8211 -1.4368  0.3519
11465TIP3   OH255809   1.153   2.856  13.444 -0.9464 -0.1725 -0.5534
11465TIP3    H155810   1.103   2.887  13.519  1.7625  0.2570  1.2336
11465TIP3    H255811   1.190   2.772  13.473  1.6851  0.8775 -0.5721
11466TIP3   OH255812   2.964   5.865  17.276  0.1924 -0.4039  0.0683
11466TIP3    H155813   2.916   5.907  17.347 -2.7106  2.2085 -3.0674
11466TIP3    H255814   3.051   5.905  17.279  1.1049 -2.3084  3.5291
11467TIP3   OH255815   5.190   3.358  11.634  0.0329  0.1891  0.1611
11467TIP3    H155816   5.242   3.278  11.634 -0.4356 -0.1233  0.2333
11467TIP3    H255817   5.218   3.405  11.555 -0.7982 -0.7957 -0.7630
11468TIP3   OH255818   2.018   1.365  11.594  0.0295 -0.0016 -0.2509
11468TIP3    H155819   2.027   1.357  11.689  3.2617 -0.5128 -0.4904
11468TIP3    H255820   2.029   1.458  11.577 -1.9142  0.3085 -0.1126
11469TIP3   OH255821   6.061   6.589  13.607  0.2782 -0.0073  0.0381
11469TIP3    H155822   6.136   6.597  13.549 -0.3923 -0.7401 -0.9662
11469TIP3    H255823   6.073   6.658  13.672  4.1049 -2.6256  2.5764
11470TIP3   OH255824   2.497   3.669  15.217  0.4525 -0.0015 -0.0759
11470TIP3    H155825   2.591   3.658  15.235  0.8097  1.5547 -0.7463
11470TIP3    H255826   2.472   3.744  15.271 -0.3950 -0.3547  0.0296
11471TIP3   OH255827   0.778   5.398   3.481  0.6180  0.2315  0.8516
11471TIP3    H155828   0.822   5.313   3.490  0.8583  0.2797  0.1436
11471TIP3    H255829   0.714   5.384   3.411  1.2596  0.8745  0.1211
11472TIP3   OH255830   0.936   3.547  15.978 -0.7325 -0.6241 -0.1536
11472TIP3    H155831   0.951   3.637  15.950  0.8770 -0.8542 -0.1102
11472TIP3    H255832   1.009   3.527  16.036 -0.4604 -2.2988 -1.0207
11473TIP3   OH255833   4.662   4.776  13.169  0.1388  0.0492  0.3379
11473TIP3    H155834   4.714   4.717  13.114 -1.4417 -1.0135 -0.0613
11473TIP3    H255835   4.673   4.862  13.129  0.1790 -0.4606 -0.7783
11474TIP3   OH255836   4.782   0.997   2.810 -0.1554  0.4327  0.0760
11474TIP3    H155837   4.785   0.998   2.906 -0.3484 -1.4506  0.1351
11474TIP3    H255838   4.874   0.998   2.784  0.0109 -1.9743  0.3959
11475TIP3   OH255839   2.654   0.179   1.709  0.4010 -0.1606 -0.2658
11475TIP3    H155840   2.576   0.152   1.758  1.3065  0.6859  1.7542
11475TIP3    H255841   2.636   0.270   1.684  0.8612  0.1426  0.4897
11476TIP3   OH255842   5.069   5.504  15.784  0.3643  0.0606 -0.4700
11476TIP3    H155843   5.089   5.523  15.693 -0.5547  0.9945 -0.5024
11476TIP3    H255844   5.017   5.423  15.781  0.0119  0.2955 -0.8234
11477TIP3   OH255845   6.479   2.375   1.855 -0.6095  0.0278 -0.0352
11477TIP3    H155846   6.399   2.425   1.869 -0.3326  0.4995 -0.1230
11477TIP3    H255847   6.483   2.315   1.930 -0.9809  0.0790  0.0282
11478TIP3   OH255848   3.470   6.119   1.116  0.0796 -0.1407  0.1480
11478TIP3    H155849   3.500   6.041   1.070 -0.7658 -0.0108 -0.6592
11478TIP3    H255850   3.550   6.160   1.148  0.9755  0.8175 -2.9376
11479TIP3   OH255851   0.501   5.071  14.390  0.0751  0.1135 -0.1348
11479TIP3    H155852   0.471   5.126  14.463  1.6838  0.4629  0.2905
11479TIP3    H255853   0.543   4.996  14.431 -1.0532 -0.8769 -0.7265
11480TIP3   OH255854   5.532   6.615  11.671 -0.4041 -0.2502 -0.4194
11480TIP3    H155855   5.449   6.638  11.629 -1.8527 -0.6316  2.0813
11480TIP3    H255856   5.568   6.547  11.615 -0.9439  0.9925 -2.4253
11481TIP3   OH255857   1.460   4.468  14.012 -0.1140  0.2125  0.4299
11481TIP3    H155858   1.372   4.460  14.047  0.1421 -1.2861  0.8150
11481TIP3    H255859   1.485   4.378  13.989  0.5954  0.8495 -1.4882
11482TIP3   OH255860   4.785   4.233  14.431 -0.5140  0.7229 -0.4058
11482TIP3    H155861   4.784   4.213  14.525  1.7634  0.1849 -0.4514
11482TIP3    H255862   4.734   4.162  14.391 -0.7997  0.4930  0.3487
11483TIP3   OH255863   3.962   1.655  17.100 -0.0703  0.1370  0.2190
11483TIP3    H155864   4.028   1.708  17.055  0.8391 -0.0367  1.3024
11483TIP3    H255865   3.984   1.565  17.077  1.3033 -0.0677  2.0809
11484TIP3   OH255866   5.968   0.369  13.449 -0.0619  0.1584 -0.2699
11484TIP3    H155867   5.948   0.285  13.408  1.3680 -0.3525  0.0301
11484TIP3    H255868   5.883   0.413  13.457 -0.9531 -1.5935  0.3332
11485TIP3   OH255869   4.539   3.311  14.173 -0.1535  0.6441  0.2374
11485TIP3    H155870   4.578   3.234  14.216 -1.3174  0.1740  0.4854
11485TIP3    H255871   4.594   3.326  14.096 -0.5450 -1.1154 -0.4174
11486TIP3   OH255872   4.795   2.635  16.105 -0.1318  0.2000 -0.2284
11486TIP3    H155873   4.757   2.550  16.128  0.7159  0.1843  1.2197
11486TIP3    H255874   4.719   2.693  16.093 -0.6709 -0.3509  0.4674
11487TIP3   OH255875   4.575   2.805  17.087  0.3194 -0.1476 -0.8111
11487TIP3    H155876   4.534   2.768  17.008 -1.4983 -0.6746  0.3387
11487TIP3    H255877   4.531   2.762  17.160  1.1445  1.1914  0.5322
11488TIP3   OH255878   1.886   2.582  13.540 -0.3069 -0.0344 -0.6194
11488TIP3    H155879   1.802   2.569  13.583 -0.1518 -0.8179 -0.5384
11488TIP3    H255880   1.946   2.523  13.586  0.3223  0.6072 -0.5876
11489TIP3   OH255881   2.957   1.930   6.050  0.0404  0.0536 -0.1745
11489TIP3    H155882   3.022   1.862   6.034 -0.0654  0.4471 -2.7226
11489TIP3    H255883   2.874   1.884   6.060  0.3583 -0.3158  0.8681
11490TIP3   OH255884   1.463   2.083  12.289 -0.7918 -0.1551 -0.2936
11490TIP3    H155885   1.378   2.095  12.246 -0.5486  1.3762 -0.4153
11490TIP3    H255886   1.516   2.158  12.259  0.1668 -0.3723  0.7869
11491TIP3   OH255887   3.673   3.580   0.724  0.5782 -0.3796 -0.1958
11491TIP3    H155888   3.609   3.645   0.753 -0.6658 -1.8733  0.5813
11491TIP3    H255889   3.745   3.631   0.688  0.1389  1.4405  1.3518
11492TIP3   OH255890   4.245   1.350   2.320  0.3970 -0.4369  0.2035
11492TIP3    H155891   4.296   1.419   2.278 -1.2105  0.5052 -0.2902
11492TIP3    H255892   4.154   1.377   2.309 -0.2747 -2.4274  0.3775
11493TIP3   OH255893   3.911   1.513  12.196 -0.4495  0.1267 -0.4699
11493TIP3    H155894   3.816   1.503  12.188 -0.3971  0.0824 -1.0287
11493TIP3    H255895   3.947   1.434  12.155 -0.1585  0.3545 -0.6515
11494TIP3   OH255896   2.780   5.041   5.046 -0.0835 -0.4478 -0.4226
11494TIP3    H155897   2.778   5.008   4.957  0.0092 -2.6262  0.3167
11494TIP3    H255898   2.789   5.136   5.037 -0.0016 -0.6282 -2.6974
11495TIP3   OH255899   3.215   0.344  14.693  0.2554  0.0492  0.0170
11495TIP3    H155900   3.221   0.397  14.772 -0.6814  0.1111  0.0527
11495TIP3    H255901   3.122   0.323  14.684  0.7756 -3.5197  1.2884
11496TIP3   OH255902   0.651   5.901   6.020 -0.1291  0.5261  0.1962
11496TIP3    H155903   0.742   5.932   6.011  0.3538  0.0948  2.7347
11496TIP3    H255904   0.652   5.813   5.982  0.5203  0.5320  0.1789
11497TIP3   OH255905   1.799   6.475   1.690  0.3091  0.0072  0.0731
11497TIP3    H155906   1.880   6.485   1.740  0.9786 -0.0557 -0.9878
11497TIP3    H255907   1.761   6.393   1.723 -0.5523  1.1902  2.2402
11498TIP3   OH255908   6.410   4.631   0.081  0.6856 -0.0918  0.1075
11498TIP3    H155909   6.446   4.695   0.143  1.8370  0.3776 -0.9814
11498TIP3    H255910   6.407   4.679  -0.002 -1.6207 -0.4358 -0.0551
11499TIP3   OH255911   2.384   5.226   5.954  0.5308  0.2014  0.1484
11499TIP3    H155912   2.299   5.191   5.924  2.4003 -2.1899 -3.0296
11499TIP3    H255913   2.404   5.174   6.032 -0.4259  0.0013  0.2795
11500TIP3   OH255914   0.360   2.056  10.469  0.5248  0.4485  0.6380
11500TIP3    H155915   0.419   2.071  10.395  2.5284  1.3788  2.3068
11500TIP3    H255916   0.273   2.057  10.430  1.5524 -1.0486 -1.9819
11501TIP3   OH255917   2.843   5.849  16.990 -0.2443  0.2804 -0.0603
11501TIP3    H155918   2.771   5.846  17.053  0.2518 -0.8741  0.4759
11501TIP3    H255919   2.919   5.879  17.041  0.1123 -0.4615 -0.1499
11502TIP3   OH255920   2.456   1.680  12.078  0.0095  0.5631 -0.1020
11502TIP3    H155921   2.528   1.618  12.089  0.5766  0.9089 -1.6600
11502TIP3    H255922   2.494   1.766  12.096 -0.6762  0.5381  1.6439
11503TIP3   OH255923   1.695   1.662   6.158 -0.4635 -0.3026  0.3906
11503TIP3    H155924   1.617   1.717   6.168 -1.1174 -1.1575  0.0778
11503TIP3    H255925   1.661   1.576   6.134  0.5363 -0.9050  1.0787
11504TIP3   OH255926   5.773   5.126   4.708 -0.0889 -0.8495  0.0688
11504TIP3    H155927   5.859   5.162   4.730  0.0305 -1.4206  0.5454
11504TIP3    H255928   5.716   5.152   4.780 -0.8962  1.4696 -1.2904
11505TIP3   OH255929   1.288   0.155  11.016  0.1635  0.1515  0.3235
11505TIP3    H155930   1.222   0.147  10.948  0.1903  0.1500  0.2979
11505TIP3    H255931   1.369   0.124  10.975  0.5426  1.7620 -0.1786
11506TIP3   OH255932   1.440   3.390  10.923 -0.4310 -0.2174 -0.7066
11506TIP3    H155933   1.535   3.381  10.912 -0.2342 -2.3377  1.7780
11506TIP3    H255934   1.430   3.469  10.976  0.1123 -0.8090  0.3162
11507TIP3   OH255935   2.623   2.989  13.747  0.2662 -0.1736  0.0298
11507TIP3    H155936   2.685   2.921  13.720 -0.2399 -0.7595  0.3264
11507TIP3    H255937   2.540   2.961  13.710 -0.3754 -0.8138  1.8981
11508TIP3   OH255938   5.412   4.316   0.349 -0.1288  0.1038 -0.6053
11508TIP3    H155939   5.322   4.311   0.315 -0.1909 -1.0601 -0.3094
11508TIP3    H255940   5.402   4.309   0.444  0.0731  2.9744 -0.2827
11509TIP3   OH255941   3.700   4.444  15.354  0.2020 -0.1130  0.4800
11509TIP3    H155942   3.758   4.512  15.319  0.0282  0.9359  2.1377
11509TIP3    H255943   3.615   4.488  15.364 -1.3650 -1.9277 -3.0585
11510TIP3   OH255944   3.764   1.071  12.611 -0.0463  0.2272 -0.0564
11510TIP3    H155945   3.830   1.017  12.566  0.3651 -0.5865  1.4694
11510TIP3    H255946   3.778   1.159  12.576  2.7657  0.3697  1.1305
11511TIP3   OH255947   1.965   5.432   6.429  0.4919 -0.1792  0.2415
11511TIP3    H155948   1.924   5.366   6.484 -0.6578  0.5659  0.3165
11511TIP3    H255949   2.025   5.478   6.487 -0.5934  0.4965  0.8641
11512TIP3   OH255950   5.473   0.585   0.010  0.0718  0.8926  0.0559
11512TIP3    H155951   5.471   0.505  -0.042 -2.5315 -0.1483  1.5635
11512TIP3    H255952   5.450   0.655  -0.052 -1.6844 -0.1353 -0.5202
11513TIP3   OH255953   3.060   1.278   0.082 -0.4954 -0.0207  0.4352
11513TIP3    H155954   3.014   1.195   0.092 -0.8720  0.3348  1.9983
11513TIP3    H255955   3.137   1.257   0.028  0.3514 -1.7627  2.1908
11514TIP3   OH255956   2.509   2.231   0.386 -0.7693 -0.1014  0.1106
11514TIP3    H155957   2.415   2.225   0.405 -0.7227 -0.4145  0.2404
11514TIP3    H255958   2.518   2.192   0.299 -0.5507 -1.4379  0.7133
11515TIP3   OH255959   3.441   0.712  12.093 -0.4071  0.2525  0.1065
11515TIP3    H155960   3.531   0.700  12.062 -1.2834  2.2401 -3.8228
11515TIP3    H255961   3.447   0.787  12.153  0.6221 -0.0854  0.4515
11516TIP3   OH255962   2.728   0.205   4.908 -0.0941 -0.0433  1.0162
11516TIP3    H155963   2.798   0.265   4.882  0.4509 -0.1191  2.2047
11516TIP3    H255964   2.656   0.262   4.933 -0.0660  0.0739  0.8319
11517TIP3   OH255965   5.023   5.801   0.916 -0.1514 -0.7040 -0.0383
11517TIP3    H155966   4.981   5.880   0.882 -0.1922  0.0206  1.5767
11517TIP3    H255967   5.006   5.734   0.850 -0.3676  0.5573 -1.3061
11518TIP3   OH255968   5.835   0.393  14.122 -0.5284 -1.0346 -0.6193
11518TIP3    H155969   5.802   0.392  14.212 -1.5048  0.7822 -0.9097
11518TIP3    H255970   5.927   0.421  14.130 -0.0900 -2.5486 -0.0861
11519TIP3   OH255971   4.557   5.337  16.517 -0.2994 -0.1293 -0.7381
11519TIP3    H155972   4.466   5.311  16.532 -0.9182  1.0960 -2.0492
11519TIP3    H255973   4.581   5.291  16.436 -0.4927  1.1246 -1.5452
11520TIP3   OH255974   6.525   3.052  10.922  0.1060 -0.4163  0.4490
11520TIP3    H155975   6.518   2.959  10.946 -0.0732 -0.7396 -0.7848
11520TIP3    H255976   6.444   3.091  10.954 -0.1478 -0.8326  0.3217
11521TIP3   OH255977   1.247   3.044  14.682 -0.4561  0.8153 -0.9772
11521TIP3    H155978   1.186   2.971  14.685 -0.3848  0.7851  0.9887
11521TIP3    H255979   1.332   3.005  14.660  0.4045 -0.4548  3.4991
11522TIP3   OH255980   6.759   0.252  15.467 -0.6478 -0.2461 -0.1774
11522TIP3    H155981   6.784   0.179  15.410 -0.6681 -0.2611 -0.1671
11522TIP3    H255982   6.815   0.324  15.438  0.2311 -0.5867  0.6081
11523TIP3   OH255983   6.758   3.388  13.547  0.0138  0.6108 -0.8039
11523TIP3    H155984   6.837   3.351  13.587  1.1613  3.4653 -0.2160
11523TIP3    H255985   6.690   3.377  13.614  0.9522  1.7479  0.3901
11524TIP3   OH255986   6.071   5.952  11.559 -0.3270  0.6397  0.1098
11524TIP3    H155987   6.078   5.868  11.514 -1.0957  1.2790 -1.2701
11524TIP3    H255988   6.084   6.017  11.490 -0.4994  1.6539  1.0132
11525TIP3   OH255989   2.358   3.903   0.025 -0.0807 -0.0828 -0.6319
11525TIP3    H155990   2.346   3.890  -0.069  0.6856 -1.5292 -0.5548
11525TIP3    H255991   2.408   3.826   0.054 -1.4002 -0.3171  1.1927
11526TIP3   OH255992   2.917   1.815   1.735 -0.1388  0.4179 -0.4229
11526TIP3    H155993   2.840   1.869   1.755 -0.1018  0.6639 -0.9406
11526TIP3    H255994   2.956   1.857   1.658  0.9051  0.7071  0.2441
11527TIP3   OH255995   5.481   5.067   2.410 -0.0814  0.1852  0.3161
11527TIP3    H155996   5.460   5.054   2.317  1.7791  1.8340 -0.4329
11527TIP3    H255997   5.423   5.138   2.437 -1.2275 -0.8725  0.6879
11528TIP3   OH255998   6.773   2.302   1.586  0.0688 -0.2897 -0.1515
11528TIP3    H155999   6.679   2.317   1.584  0.0560 -0.3886 -0.3058
11528TIP3    H256000   6.793   2.291   1.679  0.1953  1.3493  0.0451
11529TIP3   OH256001   1.897   4.718  14.784 -0.5120 -0.1242 -0.1139
11529TIP3    H156002   1.979   4.764  14.768 -0.1126 -0.8731 -0.2816
11529TIP3    H256003   1.922   4.642  14.837 -0.9904 -0.6793 -0.6612
11530TIP3   OH256004   4.124   5.099  11.684 -0.5882 -0.1054 -0.1782
11530TIP3    H156005   4.139   5.189  11.656 -0.7529 -0.4215 -1.3508
11530TIP3    H256006   4.181   5.047  11.627 -0.2849 -0.7324  0.6729
11531TIP3   OH256007   5.465   2.943   0.678  0.1923  0.3601  0.2268
11531TIP3    H156008   5.514   2.973   0.601  1.3643 -2.2404 -0.1744
11531TIP3    H256009   5.530   2.940   0.748 -0.7164  2.0603  1.1773
11532TIP3   OH256010   1.302   3.695  15.146 -0.2813 -0.6105  0.1064
11532TIP3    H156011   1.312   3.671  15.238  1.5606 -0.3388  0.0078
11532TIP3    H256012   1.238   3.767  15.147 -0.0120 -0.3697  1.2158
11533TIP3   OH256013   3.340   4.899  15.612  0.1936 -0.6048  0.0979
11533TIP3    H156014   3.398   4.880  15.686 -0.7599 -0.3622  0.9153
11533TIP3    H256015   3.285   4.821  15.603 -0.8622  0.0412  0.7653
11534TIP3   OH256016   0.452   0.147  17.223  0.4585  0.0490  0.9464
11534TIP3    H156017   0.482   0.062  17.253  1.7978 -0.8260 -2.3914
11534TIP3    H256018   0.357   0.136  17.212  0.5280 -0.8067  1.1295
11535TIP3   OH256019   4.352   1.476  12.703  0.2722 -0.2835 -0.1152
11535TIP3    H156020   4.413   1.417  12.747  0.8329  0.2314 -0.1811
11535TIP3    H256021   4.288   1.499  12.771 -0.1590 -1.2357 -0.1893
11536TIP3   OH256022   2.160   1.851  14.651 -0.4061  0.1327 -0.5842
11536TIP3    H156023   2.196   1.853  14.740 -0.2362  0.8587 -0.6601
11536TIP3    H256024   2.076   1.807  14.661  0.0187 -0.6213 -0.2226
11537TIP3   OH256025   5.514   4.951   4.846 -0.5289  0.3757 -0.1451
11537TIP3    H156026   5.460   4.957   4.768  0.1964  0.3756 -0.6559
11537TIP3    H256027   5.484   4.872   4.891  0.3095 -0.6727 -1.3875
11538TIP3   OH256028   6.579   1.873  12.258  1.0847  0.1573  0.8026
11538TIP3    H156029   6.672   1.893  12.249  0.9372  0.9805  1.0137
11538TIP3    H256030   6.552   1.843  12.171  1.4676  0.2623  0.6493
11539TIP3   OH256031   0.651   3.216   3.662  0.0109  0.3458  0.2670
11539TIP3    H156032   0.585   3.229   3.731 -0.8658 -0.7328 -0.3328
11539TIP3    H256033   0.727   3.264   3.693 -0.8776  1.1767  1.2510
11540TIP3   OH256034   4.501   2.243   0.718  0.4060 -0.2798  0.0852
11540TIP3    H156035   4.517   2.335   0.737 -2.8778  0.3818  0.3794
11540TIP3    H256036   4.468   2.207   0.800  2.8062 -2.1284  0.3381
11541TIP3   OH256037   4.559   5.561   1.942  0.4171 -0.0025  0.1895
11541TIP3    H156038   4.568   5.651   1.972  0.7073  0.2819 -0.7108
11541TIP3    H256039   4.485   5.526   1.992 -0.3666  1.0540 -0.2020
11542TIP3   OH256040   6.111   1.689  15.473  0.4478  0.3417 -0.6862
11542TIP3    H156041   6.035   1.716  15.422  0.2271  1.3562  0.1404
11542TIP3    H256042   6.153   1.772  15.498 -0.1274 -0.0283  1.7648
11543TIP3   OH256043   4.119   0.645  11.067 -0.2102 -0.2232  0.3031
11543TIP3    H156044   4.037   0.638  11.018 -0.9508  1.1626  1.2810
11543TIP3    H256045   4.164   0.720  11.027 -0.8189  0.9213  1.6568
11544TIP3   OH256046   4.379   1.784  13.310  0.2825 -0.6470 -0.7524
11544TIP3    H156047   4.372   1.854  13.244 -1.2990  0.6546  0.6814
11544TIP3    H256048   4.293   1.741  13.307  0.2280 -0.6438  0.3335
11545TIP3   OH256049   5.901   2.048  14.275 -1.1392  0.5818  0.2528
11545TIP3    H156050   5.886   1.959  14.307  2.2267  0.0786  0.8378
11545TIP3    H256051   5.895   2.103  14.353 -0.4723  0.4399  0.4112
11546TIP3   OH256052   4.802   1.004  16.355  0.2779  0.5989  0.1239
11546TIP3    H156053   4.875   0.945  16.339  0.9299  1.2751  0.5177
11546TIP3    H256054   4.738   0.951  16.404  0.4774 -0.0058 -0.2616
11547TIP3   OH256055   0.801   2.308  16.491 -0.0344  0.1504  0.0173
11547TIP3    H156056   0.712   2.329  16.518 -0.5506 -1.8708  0.0349
11547TIP3    H256057   0.844   2.280  16.572  0.1526 -0.3359 -0.2471
11548TIP3   OH256058   3.706   2.695   6.498 -0.1265 -0.2165  0.4810
11548TIP3    H156059   3.683   2.613   6.455  2.4849 -0.1709 -1.2509
11548TIP3    H256060   3.801   2.691   6.507  0.2863  3.1367 -0.9174
11549TIP3   OH256061   3.040   3.888  16.826 -0.1641 -0.0816  0.0608
11549TIP3    H156062   2.949   3.887  16.855 -0.4787  0.0642 -0.8959
11549TIP3    H256063   3.046   3.815  16.765  0.6329 -0.7294  0.8941
11550TIP3   OH256064   5.763   1.147  11.948  0.1052  0.4545 -0.6641
11550TIP3    H156065   5.792   1.237  11.931  0.7315  0.6175  1.1371
11550TIP3    H256066   5.763   1.139  12.043  0.2919 -1.5461 -0.7961
11551TIP3   OH256067   2.666   0.640   6.575  0.2614  0.0693 -0.6804
11551TIP3    H156068   2.625   0.661   6.491 -0.3014 -0.1615 -0.4715
11551TIP3    H256069   2.592   0.630   6.636  0.6849  0.7754 -0.0317
11552TIP3   OH256070   4.196   1.760   2.607 -0.2101 -0.2949  0.5873
11552TIP3    H156071   4.266   1.725   2.552 -1.5197 -0.4980 -1.0200
11552TIP3    H256072   4.129   1.791   2.545 -1.2197  0.5985  2.0486
11553TIP3   OH256073   5.458   1.456  13.692  0.0645 -0.0978  0.6126
11553TIP3    H156074   5.434   1.399  13.618  1.7703  0.8879 -0.7939
11553TIP3    H256075   5.376   1.497  13.719 -0.5728 -0.2824 -0.9322
11554TIP3   OH256076   4.494   6.439  12.613  0.2132  0.0807 -0.7684
11554TIP3    H156077   4.538   6.373  12.667 -0.5742  0.8815  0.9275
11554TIP3    H256078   4.402   6.415  12.617  0.0532  0.6474 -1.0709
11555TIP3   OH256079   5.671   5.832   4.247  0.1822  0.4843  0.1623
11555TIP3    H156080   5.683   5.871   4.160 -0.7495  1.6029  0.5191
11555TIP3    H256081   5.730   5.757   4.247  0.0663  0.3481 -1.5097
11556TIP3   OH256082   3.380   4.521   1.893 -0.4260  0.4267 -0.0247
11556TIP3    H156083   3.475   4.528   1.900 -0.3620 -1.4749  2.1994
11556TIP3    H256084   3.365   4.444   1.839 -0.6857  0.3393  0.1672
11557TIP3   OH256085   2.605   5.898  17.116 -0.2052  0.4121 -0.1898
11557TIP3    H156086   2.644   5.985  17.125  2.1451 -0.4412 -1.1998
11557TIP3    H256087   2.513   5.915  17.096  0.3078  2.6874 -0.9611
11558TIP3   OH256088   6.610   0.688   5.723 -0.3426 -0.2239  0.0354
11558TIP3    H156089   6.613   0.624   5.794  0.2366 -0.3625 -0.1110
11558TIP3    H256090   6.605   0.773   5.767  1.4618 -0.2168  0.2750
11559TIP3   OH256091   1.128   6.342   5.504 -0.1301  0.7129  0.0203
11559TIP3    H156092   1.117   6.264   5.450  0.6263  0.2231  0.5526
11559TIP3    H256093   1.041   6.358   5.541 -0.8616  1.4797 -1.8527
11560TIP3   OH256094   1.359   1.902  15.172 -0.8910 -0.3989 -0.1929
11560TIP3    H156095   1.357   1.883  15.266  0.4316  4.5406  1.1286
11560TIP3    H256096   1.444   1.868  15.143  0.4573  1.2469  1.4812
11561TIP3   OH256097   0.400   6.206   5.108  0.2898  0.0028  0.1516
11561TIP3    H156098   0.448   6.288   5.116 -1.5389  1.0714  0.8112
11561TIP3    H256099   0.459   6.148   5.060  2.4144  1.0504  1.3537
11562TIP3   OH256100   1.814   0.697  16.073 -0.0320  0.4738  0.1433
11562TIP3    H156101   1.797   0.613  16.115 -0.5727  0.5670  0.1212
11562TIP3    H256102   1.860   0.675  15.993  0.5567  0.2575  0.5367
11563TIP3   OH256103   0.619   1.731  15.998 -0.6652  0.0883  0.4779
11563TIP3    H156104   0.655   1.738  15.909  2.4971  1.8946  1.7742
11563TIP3    H256105   0.580   1.816  16.015 -0.6493 -0.0268  1.0979
11564TIP3   OH256106   5.386   1.635  13.428 -0.1322  0.1853 -0.6814
11564TIP3    H156107   5.328   1.559  13.424 -0.7017  0.6772 -2.2436
11564TIP3    H256108   5.344   1.694  13.491  0.0205 -0.5287  0.1086
11565TIP3   OH256109   3.719   2.432   0.732 -0.1526  0.1615 -0.0567
11565TIP3    H156110   3.716   2.408   0.639 -2.7193 -1.6513  0.3702
11565TIP3    H256111   3.746   2.524   0.732 -0.4731  0.3458 -2.6255
11566TIP3   OH256112   0.728   1.589   3.977 -0.0656 -0.5616 -0.2600
11566TIP3    H156113   0.684   1.550   4.053  0.3744 -1.3688 -0.4096
11566TIP3    H256114   0.711   1.683   3.985  0.1697 -0.6031  0.9680
11567TIP3   OH256115   3.405   4.652  14.952 -0.4093 -0.0537  0.0357
11567TIP3    H156116   3.480   4.675  15.007 -0.9912  0.4511  0.6267
11567TIP3    H256117   3.335   4.632  15.014 -0.3558 -2.0107 -0.4648
11568TIP3   OH256118   2.567   0.031  11.733  0.5841 -0.0233 -0.2145
11568TIP3    H156119   2.613   0.079  11.801 -0.3787 -0.9759  1.1617
11568TIP3    H256120   2.526  -0.043  11.779 -1.2328  0.0703 -1.5781
11569TIP3   OH256121   5.116   6.046   1.633  0.2312 -0.2036 -0.0374
11569TIP3    H156122   5.032   6.067   1.593 -0.6123 -2.1182  0.5687
11569TIP3    H256123   5.180   6.060   1.563 -0.9562 -1.5173 -1.4754
11570TIP3   OH256124   1.776   4.888  12.410  0.0396  0.1680 -0.5120
11570TIP3    H156125   1.754   4.962  12.354 -1.4660 -0.8997 -1.4275
11570TIP3    H256126   1.706   4.884  12.475  0.5692  0.0527  0.0659
11571TIP3   OH256127   4.757   0.521   0.072  0.2502  0.4848 -0.0897
11571TIP3    H156128   4.686   0.504   0.010 -0.4543 -0.5676  0.9494
11571TIP3    H256129   4.800   0.436   0.083 -0.2775  0.3764  1.5687
11572TIP3   OH256130   5.930   3.001   4.606  0.2109  0.3164 -0.1568
11572TIP3    H156131   5.921   3.077   4.664  0.3388 -0.4333  0.8732
11572TIP3    H256132   5.851   2.950   4.622 -0.0059  0.3628 -1.0545
11573TIP3   OH256133   4.027   3.129  12.988 -0.1840 -0.6226 -0.2142
11573TIP3    H156134   3.967   3.123  13.062 -0.9152 -2.5414 -0.9180
11573TIP3    H256135   4.009   3.215  12.950 -0.8049 -0.2063  0.9745
11574TIP3   OH256136   4.135   3.973   2.788 -0.0180 -0.5647  0.4338
11574TIP3    H156137   4.066   4.036   2.764  0.0863  0.4437  2.4730
11574TIP3    H256138   4.215   4.025   2.787 -0.0831 -0.2250  3.3097
11575TIP3   OH256139   3.045   3.694   4.864 -0.1488 -0.3048  0.0876
11575TIP3    H156140   3.079   3.607   4.883  1.5109  0.0278 -1.0786
11575TIP3    H256141   2.950   3.686   4.873  0.0238 -2.0228  0.7404
11576TIP3   OH256142   6.292   5.018  16.406  0.7054  0.2865 -0.3680
11576TIP3    H156143   6.291   4.985  16.316 -1.7950  0.3552 -0.4352
11576TIP3    H256144   6.275   4.940  16.460  0.5029  0.5193 -0.0908
11577TIP3   OH256145   0.139   3.749  12.576  0.4824  0.6451  0.5065
11577TIP3    H156146   0.081   3.732  12.650 -1.2110  2.8174 -0.1942
11577TIP3    H256147   0.168   3.839  12.589  0.5279  0.9125 -1.1797
11578TIP3   OH256148   0.408   4.257   0.078 -0.2947  0.1625  0.3871
11578TIP3    H156149   0.483   4.315   0.092 -0.2484  0.4122 -0.8380
11578TIP3    H256150   0.357   4.299   0.009 -0.6681 -0.8687  0.0203
11579TIP3   OH256151   1.675   0.220  13.843  0.4438 -0.2273 -0.3700
11579TIP3    H156152   1.637   0.246  13.760 -1.9142 -1.4130  0.2620
11579TIP3    H256153   1.739   0.288  13.862 -2.1341  2.5708 -0.9738
11580TIP3   OH256154   6.006   6.034  13.051  0.0657  0.6679 -0.3598
11580TIP3    H156155   5.992   6.090  13.127  0.5972  1.3698 -0.7680
11580TIP3    H256156   5.951   6.071  12.982  0.2916  0.5891 -0.5864
11581TIP3   OH256157   4.402   1.302   1.940 -0.5189 -0.2218 -0.6550
11581TIP3    H156158   4.320   1.308   1.891 -1.2711  2.4037  0.7138
11581TIP3    H256159   4.375   1.306   2.032  1.0668 -1.0346 -0.1116
11582TIP3   OH256160   4.715   5.592  13.678 -0.2069 -0.0476 -0.2974
11582TIP3    H156161   4.727   5.553  13.765 -0.4229 -1.1011 -0.7255
11582TIP3    H256162   4.693   5.684  13.695 -0.8348 -0.3845  0.7753
11583TIP3   OH256163   3.041   0.048  14.426  0.2412 -0.0531  0.3057
11583TIP3    H156164   3.036  -0.036  14.380  2.1810 -0.9784  1.6435
11583TIP3    H256165   3.041   0.113  14.357  0.7000 -1.2775 -0.8950
11584TIP3   OH256166   2.818   1.577  14.545 -0.1542  0.4737  0.5533
11584TIP3    H156167   2.736   1.532  14.523 -0.2055  1.3185 -1.0804
11584TIP3    H256168   2.870   1.573  14.465  1.3932  0.0588  1.5249
11585TIP3   OH256169   3.638   4.114   0.620 -0.2434  0.2221  0.2492
11585TIP3    H156170   3.642   4.209   0.608 -2.5148  0.6448  2.0480
11585TIP3    H256171   3.670   4.100   0.709  1.6684 -0.9604 -0.5606
11586TIP3   OH256172   4.479   2.974  16.776 -0.0573 -0.2145 -0.1005
11586TIP3    H156173   4.435   2.894  16.804 -0.2694  0.3671  1.3265
11586TIP3    H256174   4.516   3.010  16.857  0.8520  0.6356 -0.8691
11587TIP3   OH256175   6.118   0.599  13.521 -0.0580 -0.0495 -0.4542
11587TIP3    H156176   6.097   0.681  13.475 -0.3240  0.0239 -0.2017
11587TIP3    H256177   6.053   0.537  13.488  1.1726 -0.6254 -1.9296
11588TIP3   OH256178   0.593   3.482  14.954 -0.3836 -0.2041 -0.5751
11588TIP3    H156179   0.567   3.465  15.045 -0.6302  0.4217 -0.5265
11588TIP3    H256180   0.570   3.573  14.939  0.1331 -0.1558 -1.1084
11589TIP3   OH256181   2.270   0.703   5.216  0.3776 -0.2553  0.0412
11589TIP3    H156182   2.326   0.776   5.189  0.6134 -0.8469 -1.1174
11589TIP3    H256183   2.322   0.655   5.281  1.4357 -1.0489 -1.3404
11590TIP3   OH256184   4.951   2.219   4.385  0.7368  0.3572 -0.0052
11590TIP3    H156185   4.870   2.241   4.339 -0.0377 -1.8547  0.1648
11590TIP3    H256186   4.925   2.215   4.477  1.4809  1.3489  0.2682
11591TIP3   OH256187   6.256   0.857   0.028 -0.1216 -0.2946 -0.5072
11591TIP3    H156188   6.201   0.815  -0.038  1.8647 -0.1156 -2.4031
11591TIP3    H256189   6.286   0.786   0.084 -0.2628 -0.7667 -1.0197
11592TIP3   OH256190   0.453   3.190  14.300  0.0990  0.1023  0.3426
11592TIP3    H156191   0.538   3.229  14.279 -0.0801  0.3682  0.1066
11592TIP3    H256192   0.398   3.211  14.225  0.1074 -0.9536  0.0338
11593TIP3   OH256193   5.988   0.001   5.019 -0.3590 -0.8166 -0.0468
11593TIP3    H156194   6.019   0.062   4.953 -0.3864  1.0080  1.5251
11593TIP3    H256195   5.899  -0.022   4.990  0.3656 -1.7380 -1.6848
11594TIP3   OH256196   2.792   3.696   6.304 -0.0698 -0.2781 -0.1039
11594TIP3    H156197   2.833   3.763   6.358 -1.7819 -0.6361  1.7180
11594TIP3    H256198   2.751   3.744   6.232 -2.3233  0.8351  1.8259
11595TIP3   OH256199   6.014   6.280   6.315  0.4093 -0.5406  0.0741
11595TIP3    H156200   5.994   6.367   6.351  0.4993 -0.7491  0.6435
11595TIP3    H256201   6.106   6.265   6.337  1.1759  0.3041 -2.3093
11596TIP3   OH256202   1.931   0.852  11.484 -0.6124 -0.0087  0.6213
11596TIP3    H156203   1.860   0.834  11.546 -0.2484 -0.6931  0.8446
11596TIP3    H256204   1.988   0.914  11.529 -0.1377 -0.8073  1.1325
11597TIP3   OH256205   0.951   3.588   5.339 -0.1563  0.0839 -0.0882
11597TIP3    H156206   0.889   3.528   5.298  0.9212  0.7831 -2.9966
11597TIP3    H256207   1.035   3.568   5.296  0.4732  2.8308 -0.3110
11598TIP3   OH256208   1.623   5.122   5.144 -0.1157  0.4561 -0.4478
11598TIP3    H156209   1.553   5.161   5.197  0.5015  1.0404 -0.0494
11598TIP3    H256210   1.667   5.061   5.203 -0.1676  0.2359 -0.6370
11599TIP3   OH256211   1.297   5.414  13.122  0.6066  0.6535 -0.2400
11599TIP3    H156212   1.305   5.323  13.093 -0.4082  0.3667  0.3210
11599TIP3    H256213   1.278   5.408  13.216 -0.7615  1.3711 -0.4367
11600TIP3   OH256214   2.776   1.274   4.476 -0.0451 -0.3962 -0.5961
11600TIP3    H156215   2.748   1.357   4.439  1.1383  0.2613 -0.0836
11600TIP3    H256216   2.871   1.282   4.485 -0.1672 -0.8412  1.7320
11601TIP3   OH256217   1.072   1.476   1.662  0.0916 -0.0907 -0.0219
11601TIP3    H156218   1.138   1.546   1.660 -0.2407  0.2273  0.1221
11601TIP3    H256219   0.988   1.522   1.661 -0.1593 -0.5117 -1.6949
11602TIP3   OH256220   4.318   2.408  17.276 -0.5007  0.7427  0.0491
11602TIP3    H156221   4.292   2.319  17.250  0.1118  0.6088 -0.1074
11602TIP3    H256222   4.244   2.439  17.328 -0.0283 -0.4862  1.5367
11603TIP3   OH256223   3.032   1.817   3.116  0.1874 -0.4435  0.0310
11603TIP3    H156224   2.964   1.760   3.151  0.5282 -1.0958 -0.3412
11603TIP3    H256225   3.040   1.888   3.180 -0.7530 -0.4180  0.1318
11604TIP3   OH256226   2.307   1.055   1.061  0.3606 -0.3297 -0.1637
11604TIP3    H156227   2.275   1.133   1.016  0.5664  0.0732  0.3739
11604TIP3    H256228   2.242   0.987   1.041  0.6280 -0.2592 -1.3373
11605TIP3   OH256229   2.943   2.903  12.352  0.0895 -0.5996  0.1935
11605TIP3    H156230   2.894   2.835  12.398  1.3451 -2.1920 -0.7008
11605TIP3    H256231   3.026   2.861  12.328 -0.4638  0.1039 -3.4813
11606TIP3   OH256232   1.296   3.068  13.010  0.4029  0.4804 -0.6394
11606TIP3    H156233   1.369   3.083  12.949  0.1218  0.1107 -1.0665
11606TIP3    H256234   1.221   3.051  12.954  0.0073  0.7340 -0.1954
11607TIP3   OH256235   5.756   1.785  16.656  0.2414  0.1896  0.3403
11607TIP3    H156236   5.829   1.738  16.697 -0.3664  0.1733  1.4189
11607TIP3    H256237   5.685   1.778  16.719 -0.7949 -0.0385 -0.8223
11608TIP3   OH256238   0.862   1.908   1.728  0.7964 -0.1230 -0.1582
11608TIP3    H156239   0.822   1.957   1.656 -0.6820 -2.5117 -1.1244
11608TIP3    H256240   0.953   1.896   1.701  0.0454 -1.8243 -2.2439
11609TIP3   OH256241   6.018   4.131  11.666 -0.0941  0.2877 -0.2363
11609TIP3    H156242   5.944   4.115  11.608  0.3102  0.2319 -0.7483
11609TIP3    H256243   6.087   4.165  11.608  1.1553 -2.1028 -0.2514
11610TIP3   OH256244   5.322   5.989  17.232  0.6148 -0.5581  0.1036
11610TIP3    H156245   5.380   5.916  17.254  0.4659 -0.2295  1.7407
11610TIP3    H256246   5.239   5.947  17.206 -0.0173 -1.0251  2.6165
11611TIP3   OH256247   6.376   5.112   0.240 -0.0533  0.3755  0.4107
11611TIP3    H156248   6.314   5.051   0.200  1.4378 -1.6142  0.9868
11611TIP3    H256249   6.455   5.106   0.186  1.2367 -0.7280  2.2848
11612TIP3   OH256250   4.808   2.967   1.306  0.0738  0.0399 -0.3107
11612TIP3    H156251   4.850   2.907   1.367 -0.9937  0.1142  0.5385
11612TIP3    H256252   4.728   2.922   1.279  0.3868  0.1355 -1.4357
11613TIP3   OH256253   5.033   6.132   3.480 -0.4893 -0.9575  0.3731
11613TIP3    H156254   4.998   6.158   3.565 -2.1012  0.2395 -0.6005
11613TIP3    H256255   4.972   6.065   3.448  0.2476 -1.5853  0.2636
11614TIP3   OH256256   1.611   1.645   4.197  0.0200 -0.2693  0.6136
11614TIP3    H156257   1.685   1.604   4.153 -0.0603 -0.1976  0.4126
11614TIP3    H256258   1.591   1.587   4.270 -0.9275 -1.2889 -0.4232
11615TIP3   OH256259   6.508   0.591  16.644 -0.3762 -0.1441  0.1628
11615TIP3    H156260   6.440   0.598  16.577  0.5798  0.2518 -0.7831
11615TIP3    H256261   6.567   0.523  16.612  0.4574  0.5180  0.2672
11616TIP3   OH256262   2.525   1.753  14.793 -0.1007  0.0495 -0.4270
11616TIP3    H156263   2.607   1.740  14.840  0.7993 -1.0941 -2.2135
11616TIP3    H256264   2.512   1.672  14.744 -0.8837  1.2127 -2.2669
11617TIP3   OH256265   4.083   3.471  15.314 -0.1074 -0.0776 -0.1570
11617TIP3    H156266   4.019   3.496  15.247 -1.1113 -0.8473  0.4806
11617TIP3    H256267   4.089   3.376  15.307 -1.4457 -0.3709  1.8736
11618TIP3   OH256268   2.773   0.403   2.562  0.2217 -0.1255 -0.0816
11618TIP3    H156269   2.730   0.326   2.526  0.5202 -0.1026 -0.4865
11618TIP3    H256270   2.701   0.460   2.589 -0.0023 -0.0940 -0.7352
11619TIP3   OH256271   1.726   0.406   0.671 -0.0002  0.2402  0.2205
11619TIP3    H156272   1.720   0.501   0.681 -2.9330 -0.0110  2.2607
11619TIP3    H256273   1.644   0.381   0.628 -0.5776 -1.5310  2.1433
11620TIP3   OH256274   0.111   6.304   5.137  0.3960  0.1944  0.2646
11620TIP3    H156275   0.201   6.294   5.169  0.4480  1.6908  0.6457
11620TIP3    H256276   0.121   6.319   5.043  0.5041 -0.0316  0.2376
11621TIP3   OH256277   0.391   0.563   2.954  0.0597  0.1725  0.2345
11621TIP3    H156278   0.422   0.482   2.995 -0.8356  0.3169  1.2271
11621TIP3    H256279   0.380   0.624   3.026 -0.2315  0.8776 -0.3961
11622TIP3   OH256280   0.667   0.760   4.188 -0.1160  0.2594 -0.0453
11622TIP3    H156281   0.640   0.695   4.253  0.7863 -1.9036 -1.7312
11622TIP3    H256282   0.738   0.808   4.231 -0.7233  0.1071  1.1903
11623TIP3   OH256283   5.534   0.832  13.750 -0.4757  0.1484 -0.2573
11623TIP3    H156284   5.560   0.835  13.658  4.3127 -0.4836  0.8421
11623TIP3    H256285   5.561   0.916  13.786  1.4222 -1.0417  1.2882
11624TIP3   OH256286   2.268   5.416  13.016 -0.4196  0.4463 -0.1022
11624TIP3    H156287   2.265   5.436  13.110 -1.2398  0.1662 -0.0602
11624TIP3    H256288   2.282   5.501  12.974 -0.0118  0.5678  0.2712
11625TIP3   OH256289   1.552   0.989  12.894 -0.1821  0.5500 -0.0960
11625TIP3    H156290   1.596   0.905  12.883  1.5890  1.3966  0.1754
11625TIP3    H256291   1.460   0.966  12.909  0.2799 -1.3385  0.1022
11626TIP3   OH256292   6.502   4.309  10.610 -0.6273 -0.0486 -0.4468
11626TIP3    H156293   6.513   4.214  10.609 -0.7993 -0.0850  0.3870
11626TIP3    H256294   6.553   4.338  10.686 -1.1991  0.4448 -0.2486
11627TIP3   OH256295   1.281   6.010  16.857 -0.1394  0.1202 -0.0801
11627TIP3    H156296   1.257   5.918  16.840  3.6473 -1.1104  0.2967
11627TIP3    H256297   1.301   6.046  16.771 -0.6062  0.2787 -0.1249
11628TIP3   OH256298   1.408   0.946   2.757 -0.5595 -0.2526 -0.2924
11628TIP3    H156299   1.454   0.865   2.733 -0.1360  0.1391 -0.8272
11628TIP3    H256300   1.334   0.950   2.697 -0.5784 -0.2366 -0.2677
11629TIP3   OH256301   3.198   1.793  17.152 -0.2783  0.1816  0.2086
11629TIP3    H156302   3.120   1.845  17.174  0.4326  1.5817 -0.5208
11629TIP3    H256303   3.168   1.734  17.083 -0.2564  2.0358 -1.4532
11630TIP3   OH256304   2.526   2.436  15.473  0.5345  0.0925  0.0727
11630TIP3    H156305   2.587   2.385  15.419 -0.8651 -0.0278 -1.4985
11630TIP3    H256306   2.473   2.370  15.517 -0.5510  0.1270 -1.1060
11631TIP3   OH256307   1.548   5.071  12.618  0.4813 -0.0605  0.1058
11631TIP3    H156308   1.481   5.138  12.632  0.8363  0.1179  0.9912
11631TIP3    H256309   1.624   5.119  12.588  0.2276 -0.2650 -0.9071
11632TIP3   OH256310   1.835   3.321   2.404  0.8432  0.2939 -0.4266
11632TIP3    H156311   1.832   3.260   2.477 -1.1556 -3.3763 -3.1880
11632TIP3    H256312   1.913   3.297   2.355  2.0015  2.5045  0.2085
11633TIP3   OH256313   0.832   5.650   2.744 -0.0326 -0.2566  0.2527
11633TIP3    H156314   0.790   5.601   2.674  1.9046 -0.2431 -1.0243
11633TIP3    H256315   0.840   5.588   2.817  0.3985 -1.1761 -0.5533
11634TIP3   OH256316   4.547   6.053  10.693  0.2110 -0.0645  0.1987
11634TIP3    H156317   4.616   6.079  10.753  0.2865 -0.5913  0.3499
11634TIP3    H256318   4.478   6.019  10.750 -0.9354  2.0989  0.1798
11635TIP3   OH256319   0.882   6.313  16.263  1.0064 -0.4659 -0.5363
11635TIP3    H156320   0.908   6.303  16.171  1.2089  0.3729 -0.5818
11635TIP3    H256321   0.932   6.389  16.293 -1.1877  1.0842 -0.5733
11636TIP3   OH256322   5.732   1.870  14.670  0.2306  0.1286 -0.4831
11636TIP3    H156323   5.781   1.797  14.709  0.3857  0.3410 -0.2816
11636TIP3    H256324   5.648   1.869  14.716 -0.3770 -0.9021 -1.5570
11637TIP3   OH256325   4.144   1.510  16.739 -0.8330  0.0324 -0.2880
11637TIP3    H156326   4.144   1.430  16.686 -1.8694 -1.5852  1.9745
11637TIP3    H256327   4.077   1.565  16.701 -2.4073 -1.6045 -0.0164
11638TIP3   OH256328   2.047   4.259  12.844 -0.1173 -0.4855  0.4532
11638TIP3    H156329   2.111   4.262  12.772 -0.2847  1.2972  0.3331
11638TIP3    H256330   1.984   4.192  12.817 -0.2522  0.2462 -1.1701
11639TIP3   OH256331   6.689   1.699  13.093 -0.1447 -0.1635 -0.2426
11639TIP3    H156332   6.739   1.755  13.152  0.2121 -0.8633  0.1248
11639TIP3    H256333   6.701   1.610  13.127 -0.4921 -0.5000 -0.9697
11640TIP3   OH256334   2.034   0.648   4.590 -0.4748  0.2745 -0.1629
11640TIP3    H156335   2.006   0.557   4.604 -2.4411  0.7358 -0.7934
11640TIP3    H256336   2.072   0.648   4.503  0.8285 -0.2077  0.3888
11641TIP3   OH256337   2.099   5.684  16.674 -0.2725  0.3641  0.1029
11641TIP3    H156338   2.189   5.700  16.703  0.1040  0.2431 -0.9517
11641TIP3    H256339   2.093   5.730  16.591 -0.7129 -0.8790 -0.5693
11642TIP3   OH256340   5.273   3.549   2.630 -0.1697 -0.5090  0.0351
11642TIP3    H156341   5.207   3.480   2.628  0.8818 -1.5311 -0.2754
11642TIP3    H256342   5.343   3.517   2.573  0.9808  0.1505  1.0245
11643TIP3   OH256343   1.596   6.604   1.975 -0.2216  0.0593 -0.0215
11643TIP3    H156344   1.629   6.685   2.013  0.6162  0.0040 -0.6099
11643TIP3    H256345   1.666   6.541   1.987 -0.5330 -0.3495 -0.3240
11644TIP3   OH256346   5.596   5.802  16.805  0.1018  0.2122  0.1629
11644TIP3    H156347   5.626   5.884  16.843  1.6665 -1.0548  1.8025
11644TIP3    H256348   5.672   5.768  16.757 -0.7766  0.0793 -1.2000
11645TIP3   OH256349   0.239   4.029   2.821  0.0952 -0.3502 -0.6001
11645TIP3    H156350   0.192   3.950   2.848  0.7213 -0.6098 -0.2264
11645TIP3    H256351   0.332   4.005   2.828  0.2839  0.1297 -1.3747
11646TIP3   OH256352   3.242   2.797  16.606 -0.2869  0.0262 -0.0902
11646TIP3    H156353   3.268   2.705  16.606 -1.6267 -0.4193  1.7818
11646TIP3    H256354   3.273   2.831  16.691 -1.0313  0.9037 -0.1544
11647TIP3   OH256355   1.040   3.506  12.075 -0.0406 -0.4023  0.0859
11647TIP3    H156356   1.123   3.544  12.045 -0.4986  0.9679  0.4652
11647TIP3    H256357   1.031   3.425  12.025  1.6990 -0.7660  0.2969
11648TIP3   OH256358   6.609   4.461  13.281  0.4809  0.3748 -0.4933
11648TIP3    H156359   6.583   4.524  13.215 -0.8325  0.4584  0.0671
11648TIP3    H256360   6.592   4.504  13.365  4.0790  1.0970  0.0283
11649TIP3   OH256361   6.233   3.619  12.686 -0.2237  0.8332  0.4501
11649TIP3    H156362   6.240   3.714  12.695  0.6612  0.9457 -0.9934
11649TIP3    H256363   6.187   3.607  12.603  1.2275  0.0298 -0.2773
11650TIP3   OH256364   4.197   1.489  13.542  0.5674 -0.2368 -0.3544
11650TIP3    H156365   4.185   1.583  13.560 -0.8220 -0.3629 -0.5468
11650TIP3    H256366   4.288   1.482  13.514  0.6101  1.1079 -0.6287
11651TIP3   OH256367   3.365   3.300  15.435 -1.2488 -0.6148 -0.0767
11651TIP3    H156368   3.348   3.341  15.520 -2.0616 -2.4210  0.6863
11651TIP3    H256369   3.281   3.304  15.389 -0.6953  0.7905 -1.0412
11652TIP3   OH256370   1.315   0.792  15.526  0.0724 -1.3100  0.1956
11652TIP3    H156371   1.371   0.737  15.581 -0.6777 -1.9561  0.3320
11652TIP3    H256372   1.371   0.818  15.453  0.2580 -2.8791 -0.2656
11653TIP3   OH256373   2.711   5.754  13.238 -0.1365 -0.0202 -0.6571
11653TIP3    H156374   2.766   5.805  13.297 -1.2164  0.8919 -0.4017
11653TIP3    H256375   2.687   5.815  13.168  0.5090 -0.8729 -1.6539
11654TIP3   OH256376   2.968   0.702   4.558  0.1657 -0.2470 -0.0514
11654TIP3    H156377   2.925   0.661   4.483  0.6784  1.1040 -1.1445
11654TIP3    H256378   3.042   0.750   4.519 -0.3916  1.6544  1.0950
11655TIP3   OH256379   6.109   0.298  16.927 -0.3192  0.0706  0.0064
11655TIP3    H156380   6.069   0.215  16.900 -0.0120  0.1298 -0.6411
11655TIP3    H256381   6.172   0.318  16.858  0.1007  0.4990  0.5013
11656TIP3   OH256382   1.230   1.586  12.844 -0.3687 -0.1064  0.1335
11656TIP3    H156383   1.274   1.507  12.876  2.2804  0.9386 -0.6280
11656TIP3    H256384   1.287   1.658  12.873 -1.4153  1.3307 -1.2096
11657TIP3   OH256385   2.609   3.178   6.255  0.2874 -0.1498  0.5906
11657TIP3    H156386   2.548   3.228   6.202  0.2418 -0.9339 -0.1137
11657TIP3    H256387   2.653   3.243   6.310 -0.3044  0.5611  0.2302
11658TIP3   OH256388   0.140   0.246  12.284  0.0698  0.2654 -0.9158
11658TIP3    H156389   0.120   0.251  12.378  3.1195  3.4514 -0.2412
11658TIP3    H256390   0.183   0.161  12.273  0.1232  0.0485  0.6706
11659TIP3   OH256391   4.035   4.014  12.253 -0.2393 -0.4431 -0.0562
11659TIP3    H156392   3.964   4.007  12.317 -0.4391 -0.0882 -0.2403
11659TIP3    H256393   4.059   3.923  12.234 -1.8240 -0.6276 -1.3082
11660TIP3   OH256394   4.382   2.766   0.618  0.4394 -0.3583  0.2394
11660TIP3    H156395   4.326   2.792   0.691  0.2035 -0.3387  0.0506
11660TIP3    H256396   4.443   2.839   0.608 -0.0806  0.0286 -0.1451
11661TIP3   OH256397   3.868   3.526   0.939  0.3422  0.0114 -0.2586
11661TIP3    H156398   3.955   3.527   0.900  0.6926 -3.1688  0.1507
11661TIP3    H256399   3.808   3.539   0.865  1.1191 -0.5387 -1.0070
11662TIP3   OH256400   1.456   5.409  15.922 -0.4300 -0.6375  0.0515
11662TIP3    H156401   1.487   5.337  15.977 -0.6806 -0.8841 -0.1247
11662TIP3    H256402   1.394   5.368  15.862  0.7751 -0.6282 -1.2650
11663TIP3   OH256403   3.907   6.040   3.518  0.3340  0.0072  0.1997
11663TIP3    H156404   3.941   6.075   3.601 -1.7269 -0.0625  1.1259
11663TIP3    H256405   3.885   6.117   3.466 -1.3782  0.1339  1.0424
11664TIP3   OH256406   4.445   0.836  11.081 -0.0671  0.2174  0.6268
11664TIP3    H156407   4.458   0.768  11.015 -0.2076  1.3309 -0.5906
11664TIP3    H256408   4.359   0.873  11.061  0.7370  1.9136  0.1457
11665TIP3   OH256409   0.494   0.729   0.639  0.0517  0.1328 -0.2427
11665TIP3    H156410   0.419   0.734   0.699  0.3437 -1.3744  0.2825
11665TIP3    H256411   0.493   0.640   0.606 -0.9291  1.2547 -3.6597
11666TIP3   OH256412   5.524   3.977  11.130 -0.0336 -0.1919  0.0973
11666TIP3    H156413   5.459   3.950  11.064  1.0378  0.5108 -1.2974
11666TIP3    H256414   5.567   4.053  11.091  1.2572 -0.3149  1.2214
11667TIP3   OH256415   1.609   4.413   3.575  0.3348 -0.3150  0.5467
11667TIP3    H156416   1.566   4.353   3.636 -0.4387 -1.0616 -0.6635
11667TIP3    H256417   1.699   4.420   3.607  0.1676 -1.3155  1.3118
11668TIP3   OH256418   0.238   3.548  17.110  0.2074 -0.0375  0.3114
11668TIP3    H156419   0.150   3.541  17.072  0.1273  0.7467  0.3155
11668TIP3    H256420   0.229   3.509  17.197 -0.9251  2.5205  1.4691
11669TIP3   OH256421   6.651   2.654   2.220 -0.3066 -0.3539 -0.5559
11669TIP3    H156422   6.668   2.747   2.206  0.9009 -0.3646  0.6104
11669TIP3    H256423   6.582   2.651   2.286 -0.2731 -0.2799 -0.5176
11670TIP3   OH256424   5.037   5.264   1.714 -0.1747  0.2571 -0.4508
11670TIP3    H156425   4.945   5.251   1.737 -0.6358 -0.6482 -2.6005
11670TIP3    H256426   5.045   5.359   1.702 -0.7010  0.3869  0.1494
11671TIP3   OH256427   4.201   3.821  12.728  0.5954  0.2110 -0.2227
11671TIP3    H156428   4.255   3.881  12.780  1.5216 -0.2657 -0.6234
11671TIP3    H256429   4.262   3.778  12.669 -0.0148 -1.2852  0.1961
11672TIP3   OH256430   3.142   1.626   2.924  0.9028 -0.0486 -0.1681
11672TIP3    H156431   3.109   1.537   2.923  0.9586 -0.0665 -0.3667
11672TIP3    H256432   3.107   1.664   3.005  2.0280 -0.6840  0.6387
11673TIP3   OH256433   2.429   0.853   5.637 -0.3550  0.2883  0.1576
11673TIP3    H156434   2.347   0.828   5.595 -0.3167  1.8627 -0.9390
11673TIP3    H256435   2.404   0.879   5.726 -1.1321  1.1828 -0.3053
11674TIP3   OH256436   2.418   0.416  12.820  0.4640 -0.2843  0.3396
11674TIP3    H156437   2.480   0.464  12.766 -1.0571  1.1287 -0.2574
11674TIP3    H256438   2.458   0.331  12.835  1.9990  0.1768 -0.9726
11675TIP3   OH256439   1.922   4.925   4.002  0.2104  0.5285 -0.3284
11675TIP3    H156440   1.881   5.010   3.987  0.3475  0.6084 -0.2532
11675TIP3    H256441   1.932   4.888   3.914 -1.4687 -0.1906 -0.2534
11676TIP3   OH256442   3.157   1.300  11.874 -0.4115  0.0541 -0.1997
11676TIP3    H156443   3.227   1.236  11.858 -0.2989  0.0292  0.3558
11676TIP3    H256444   3.101   1.295  11.797 -1.4167 -2.0210  0.5791
11677TIP3   OH256445   3.225   4.429  13.700  0.3810  0.4077  0.9348
11677TIP3    H156446   3.255   4.376  13.626  0.4872 -1.0845  1.9967
11677TIP3    H256447   3.299   4.485  13.721 -0.2963  2.2424 -1.2491
11678TIP3   OH256448   0.949   4.603   5.894 -0.4119 -0.9317 -0.3402
11678TIP3    H156449   1.023   4.646   5.938 -1.2993 -0.5813  0.8638
11678TIP3    H256450   0.948   4.515   5.931 -0.2598 -1.1246 -0.7861
11679TIP3   OH256451   2.021   2.687   0.952  0.5128  0.2698  0.1969
11679TIP3    H156452   2.030   2.681   1.047  0.0055  4.2719  0.6963
11679TIP3    H256453   2.097   2.738   0.924 -1.3801  2.7827 -0.7972
11680TIP3   OH256454   5.238   5.693   4.721 -0.1447  0.1404  0.4544
11680TIP3    H156455   5.208   5.736   4.641 -0.1355 -1.3355 -0.3756
11680TIP3    H256456   5.320   5.738   4.744  0.7433 -0.4897 -1.3249
11681TIP3   OH256457   6.281   0.969   5.090  0.2324 -0.4146  0.1436
11681TIP3    H156458   6.228   0.950   5.167 -0.9481 -0.2772 -0.6110
11681TIP3    H256459   6.341   1.038   5.118  0.2942 -0.8491  1.1235
11682TIP3   OH256460   1.687   4.285  13.409  0.3328  0.1286 -0.0996
11682TIP3    H156461   1.661   4.360  13.463  0.3852  0.1718 -0.1349
11682TIP3    H256462   1.684   4.211  13.469 -1.3254 -0.1210 -0.4455
11683TIP3   OH256463   3.320   3.585  12.491 -0.5045  0.4881 -0.3368
11683TIP3    H156464   3.341   3.657  12.433 -0.8645  1.2483  0.4504
11683TIP3    H256465   3.237   3.610  12.531 -0.4095 -0.1540  0.2863
11684TIP3   OH256466   0.074   1.830   0.450 -0.3510  0.0983  0.2072
11684TIP3    H156467   0.034   1.744   0.435  1.2117 -0.2441 -2.8404
11684TIP3    H256468   0.142   1.813   0.515 -0.5372 -0.8283  0.1751
11685TIP3   OH256469   5.168   1.728  13.602  0.1356 -0.2271  0.4952
11685TIP3    H156470   5.089   1.746  13.551  1.5389  0.1597 -1.6345
11685TIP3    H256471   5.158   1.637  13.631 -0.9545 -0.2597  0.0503
11686TIP3   OH256472   1.348   6.059  15.353 -0.1339  0.0542 -0.1334
11686TIP3    H156473   1.329   6.009  15.432  0.7514 -0.9544 -0.5222
11686TIP3    H256474   1.310   6.145  15.369 -2.1129 -0.8621  0.3740
11687TIP3   OH256475   1.581   2.824  11.111 -0.5854  0.2504  0.1736
11687TIP3    H156476   1.666   2.830  11.154  1.5796  2.5474 -3.8389
11687TIP3    H256477   1.601   2.797  11.022 -4.1046  0.8852 -0.9682
11688TIP3   OH256478   6.330   3.737  11.368 -0.3391 -0.6428 -0.3295
11688TIP3    H156479   6.338   3.735  11.464  0.6354  1.3657 -0.3334
11688TIP3    H256480   6.235   3.730  11.353 -0.6643  0.6996  0.8624
11689TIP3   OH256481   0.805   1.641   1.222 -0.3827 -0.0869 -0.2474
11689TIP3    H156482   0.779   1.662   1.132  0.1049  1.9453  0.0439
11689TIP3    H256483   0.804   1.725   1.268  0.6863 -0.8818  1.3265
11690TIP3   OH256484   0.139   2.734  12.588 -0.4407 -0.2681  0.6959
11690TIP3    H156485   0.232   2.715  12.599 -0.5672 -0.1906  2.1460
11690TIP3    H256486   0.100   2.649  12.566  0.0802 -0.1231 -0.9061
11691TIP3   OH256487   2.936   4.659  16.066  0.9595 -0.5807 -0.4922
11691TIP3    H156488   3.001   4.727  16.084 -0.1853  0.2435  0.7101
11691TIP3    H256489   2.890   4.689  15.988 -0.5880  0.8915  0.9115
11692TIP3   OH256490   1.489   2.553  14.142 -0.0223 -0.3860  0.3072
11692TIP3    H156491   1.548   2.616  14.184 -0.2730 -0.2263  0.4217
11692TIP3    H256492   1.465   2.594  14.059  1.6187 -1.3265 -0.6926
11693TIP3   OH256493   2.290   4.062   0.831 -0.7371 -0.0013  0.1439
11693TIP3    H156494   2.358   3.998   0.813  0.5580  0.7392  2.0456
11693TIP3    H256495   2.313   4.138   0.777  0.5031  0.5600  1.4002
11694TIP3   OH256496   4.546   6.272  14.322  0.0039 -0.4907  0.2893
11694TIP3    H156497   4.499   6.328  14.384  1.9477  0.0576  1.3712
11694TIP3    H256498   4.478   6.235  14.266 -1.6001  0.8866  1.2308
11695TIP3   OH256499   5.752   0.696  14.225  0.2416 -0.2737 -0.1553
11695TIP3    H156500   5.691   0.766  14.205 -0.1625 -0.8589 -1.0433
11695TIP3    H256501   5.711   0.617  14.188  1.2815 -0.7632 -0.3036
11696TIP3   OH256502   5.515   4.429  16.347 -0.3085  0.0004 -0.1420
11696TIP3    H156503   5.520   4.365  16.276  2.4839 -0.6607  0.5290
11696TIP3    H256504   5.554   4.385  16.423 -0.6095  1.6437  1.0407
11697TIP3   OH256505   1.223   4.263   4.130  0.6584  0.2448  0.0597
11697TIP3    H156506   1.158   4.262   4.060  1.4005  2.2640 -0.7548
11697TIP3    H256507   1.171   4.268   4.211 -0.1975 -1.4426 -0.3573
11698TIP3   OH256508   5.128   2.956  11.389 -0.5650  0.2088  0.3210
11698TIP3    H156509   5.166   3.012  11.321  0.0312 -1.7123 -1.0346
11698TIP3    H256510   5.202   2.908  11.425 -0.9271  0.9668  2.1481
11699TIP3   OH256511   2.606   2.178  11.569 -0.0724  0.0766  0.5155
11699TIP3    H156512   2.660   2.257  11.576  0.3001 -0.1668  0.3478
11699TIP3    H256513   2.531   2.196  11.626 -0.0194  0.5786  0.4335
11700TIP3   OH256514   6.147   1.749  12.327 -0.1236 -0.4573 -0.1696
11700TIP3    H156515   6.179   1.716  12.411 -0.8773  0.1398  0.3627
11700TIP3    H256516   6.052   1.745  12.335 -0.2362  1.5384 -0.2056
11701TIP3   OH256517   6.545   3.969  15.746 -0.3656  0.0509  1.1188
11701TIP3    H156518   6.506   3.882  15.756 -1.2341  0.5640  2.3116
11701TIP3    H256519   6.474   4.024  15.712  0.9492 -0.3069 -2.6698
11702TIP3   OH256520   2.462   5.228   1.162  0.3882  0.0144 -0.6384
11702TIP3    H156521   2.543   5.239   1.211  0.9413 -0.5212 -1.4248
11702TIP3    H256522   2.480   5.158   1.100 -0.3479  0.5791 -1.5155
11703TIP3   OH256523   0.538   1.316  12.900 -0.4668 -0.2137 -0.6249
11703TIP3    H156524   0.466   1.342  12.957 -1.6214 -0.7461 -1.7755
11703TIP3    H256525   0.586   1.397  12.883 -0.2403 -0.0052  0.8656
11704TIP3   OH256526   4.166   6.522   4.310 -0.0818  0.0278 -0.6871
11704TIP3    H156527   4.222   6.467   4.364  2.3681  2.6706 -0.3344
11704TIP3    H256528   4.169   6.482   4.223 -0.0855 -1.4938 -0.0182
11705TIP3   OH256529   5.158   6.249  13.104  0.4690  0.3418 -0.3777
11705TIP3    H156530   5.129   6.158  13.115 -0.8502  0.6902 -0.7910
11705TIP3    H256531   5.156   6.285  13.192  2.9049 -0.5272  0.1169
11706TIP3   OH256532   1.227   2.433  10.749  0.5448 -0.5029  0.3160
11706TIP3    H156533   1.234   2.433  10.654 -1.0897 -2.1199  0.1502
11706TIP3    H256534   1.156   2.372  10.769  2.1695 -1.8093  2.6792
11707TIP3   OH256535   4.279   1.379   0.143 -0.5298  0.1268  0.6274
11707TIP3    H156536   4.319   1.348   0.062  0.4631 -3.0368  2.1488
11707TIP3    H256537   4.342   1.440   0.180 -0.0405  0.0069 -0.0078
11708TIP3   OH256538   4.359   3.915  11.293  0.0854 -0.2847 -0.1844
11708TIP3    H156539   4.291   3.859  11.331 -1.4192  1.4372 -0.2537
11708TIP3    H256540   4.315   3.962  11.222  1.5772  0.2598 -0.7883
11709TIP3   OH256541   0.589   6.279   4.464  0.5388 -0.2362  0.3325
11709TIP3    H156542   0.615   6.241   4.380  1.3239  1.9920 -0.5148
11709TIP3    H256543   0.669   6.320   4.498 -0.3887  1.3017  0.7835
11710TIP3   OH256544   0.400   3.343   1.618 -0.1599  0.6383 -0.2945
11710TIP3    H156545   0.327   3.314   1.674  1.2827  1.2567  2.0539
11710TIP3    H256546   0.450   3.404   1.673  1.3077  1.4133 -2.3487
11711TIP3   OH256547   3.966   3.331  16.173  0.1969  0.7221  0.4162
11711TIP3    H156548   3.989   3.261  16.111 -0.3675 -0.3721  1.4032
11711TIP3    H256549   3.882   3.364  16.142  0.5290  1.0732 -0.1302
11712TIP3   OH256550   4.894   4.690  13.073  0.3331 -0.3245 -0.3659
11712TIP3    H156551   4.974   4.691  13.020 -0.0493  0.4022 -0.9335
11712TIP3    H256552   4.840   4.621  13.035  0.0201  0.2578 -0.9875
11713TIP3   OH256553   3.613   2.375   4.877  0.0580 -0.5528  0.2214
11713TIP3    H156554   3.705   2.382   4.851  0.1046  0.5918  0.6708
11713TIP3    H256555   3.571   2.329   4.804  1.2241 -2.3472  0.6124
11714TIP3   OH256556   5.581   3.773   3.685 -0.3827  0.1153 -0.8456
11714TIP3    H156557   5.586   3.762   3.780 -0.9872  0.9082 -0.7146
11714TIP3    H256558   5.668   3.748   3.654 -0.1729 -0.1511 -0.0931
11715TIP3   OH256559   6.575   3.643   3.364 -0.3677  0.3480  0.0215
11715TIP3    H156560   6.571   3.693   3.283  2.3663  1.7765  0.6374
11715TIP3    H256561   6.603   3.555   3.337  0.3235  0.7606 -0.6404
11716TIP3   OH256562   4.507   1.809  10.814  0.3602  0.7072  0.5157
11716TIP3    H156563   4.551   1.782  10.734 -0.5235  1.1944 -0.1608
11716TIP3    H256564   4.510   1.904  10.813 -1.5753  0.8158 -0.1078
11717TIP3   OH256565   3.816   3.311  15.357  0.0639 -0.3037  0.5122
11717TIP3    H156566   3.852   3.323  15.445 -0.8527  1.3735  0.6986
11717TIP3    H256567   3.849   3.386  15.308 -1.4306  0.1174  0.1149
11718TIP3   OH256568   0.852   2.143   2.368  0.7467 -0.6795  0.0233
11718TIP3    H156569   0.891   2.180   2.447  0.8985  1.1117 -0.8525
11718TIP3    H256570   0.926   2.102   2.323  0.6606 -1.7048  0.7648
11719TIP3   OH256571   5.079   1.420   2.511  0.3769 -0.7001  0.3348
11719TIP3    H156572   5.113   1.503   2.544 -0.2590 -0.4231  0.3028
11719TIP3    H256573   4.987   1.438   2.492  0.8016 -0.7087 -2.0289
11720TIP3   OH256574   3.909   4.466  11.895 -0.4152  0.1907  0.4243
11720TIP3    H156575   3.939   4.509  11.975 -2.0568 -0.0992  1.2617
11720TIP3    H256576   3.981   4.474  11.834  0.4989  1.3411  1.6037
11721TIP3   OH256577   3.421   5.288   3.233 -0.0451 -0.4532 -0.5825
11721TIP3    H156578   3.388   5.230   3.301  1.5620  0.0809  0.7192
11721TIP3    H256579   3.426   5.374   3.274 -0.1025  0.1191 -1.7302
11722TIP3   OH256580   2.208   0.108   1.971  0.5297 -0.5895 -0.3184
11722TIP3    H156581   2.119   0.073   1.976  0.7082 -0.9331  0.5468
11722TIP3    H256582   2.198   0.201   1.993  0.5804 -0.9725  1.5209
11723TIP3   OH256583   0.741   4.214  11.911  0.0998 -0.0867  0.8704
11723TIP3    H156584   0.657   4.228  11.868  0.7435  1.1478 -0.0391
11723TIP3    H256585   0.793   4.165  11.848  0.6047  0.5848  0.7514
11724TIP3   OH256586   0.716   4.216   0.288 -0.3237  0.1614 -0.1521
11724TIP3    H156587   0.710   4.138   0.233 -0.1641  0.2823 -0.3437
11724TIP3    H256588   0.712   4.183   0.377 -2.9354  0.1192 -0.2051
11725TIP3   OH256589   2.827   0.466  17.139  0.0979 -0.1276 -0.0715
11725TIP3    H156590   2.870   0.387  17.172 -1.2937 -1.8847 -2.1682
11725TIP3    H256591   2.743   0.468  17.186 -0.7478 -1.1286 -1.4683
11726TIP3   OH256592   4.211   3.710   0.626 -0.0189  0.2636  0.2124
11726TIP3    H156593   4.307   3.711   0.627 -0.0204  0.8540  0.1835
11726TIP3    H256594   4.187   3.765   0.551 -0.3815  0.1619  0.2525
11727TIP3   OH256595   4.541   5.530  15.427  0.2232 -0.4167  0.1412
11727TIP3    H156596   4.572   5.549  15.515  0.2130 -0.5228  0.1674
11727TIP3    H256597   4.485   5.453  15.437  0.6224 -0.7307 -0.0322
11728TIP3   OH256598   0.505   1.351  17.213  0.6794 -0.9757 -0.2080
11728TIP3    H156599   0.588   1.330  17.170  1.4493  0.9650  0.2194
11728TIP3    H256600   0.455   1.269  17.210  2.8636 -2.4117  0.1275
11729TIP3   OH256601   0.237   5.285   3.430 -0.6600  0.8049 -0.0675
11729TIP3    H156602   0.153   5.332   3.428 -1.7588 -1.0885 -0.9022
11729TIP3    H256603   0.244   5.246   3.343 -0.0535 -0.9731  0.7428
11730TIP3   OH256604   3.694   1.506  13.583  0.1887 -0.1513  0.0139
11730TIP3    H156605   3.702   1.539  13.494  2.6844  0.8742  0.5522
11730TIP3    H256606   3.619   1.553  13.619 -0.3669 -0.0036 -1.2675
11731TIP3   OH256607   4.686   0.739   0.983  0.0642  0.2581  0.0383
11731TIP3    H156608   4.654   0.667   0.928 -1.5902 -1.1587  2.6439
11731TIP3    H256609   4.767   0.768   0.940  0.5852 -2.8591 -1.3567
11732TIP3   OH256610   4.649   2.001   2.825 -0.0705 -0.0647 -0.3992
11732TIP3    H156611   4.602   1.918   2.824  1.3817 -0.9147 -0.5097
11732TIP3    H256612   4.583   2.066   2.803 -1.2217 -1.1887 -0.3748
11733TIP3   OH256613   6.391   0.052   5.947 -0.2070 -0.0408 -0.1544
11733TIP3    H156614   6.364   0.008   5.866 -2.0433  1.9627 -0.7381
11733TIP3    H256615   6.334   0.128   5.952  1.1941  0.9476  2.0557
11734TIP3   OH256616   5.030   0.102  16.530  0.5403 -0.8018 -0.0691
11734TIP3    H156617   5.021   0.194  16.554  0.1289 -0.5534 -1.1358
11734TIP3    H256618   5.045   0.103  16.435 -1.3765 -1.9099 -0.4263
11735TIP3   OH256619   1.798   0.565  15.702  0.7444 -0.0947  0.4132
11735TIP3    H156620   1.838   0.479  15.695  1.5382  0.2299  0.8213
11735TIP3    H256621   1.740   0.559  15.778  1.9985  0.1706  1.4353
11736TIP3   OH256622   6.022   5.923  15.431  0.3957  0.3836 -0.0239
11736TIP3    H156623   5.928   5.910  15.445  0.3369  1.9925  1.3529
11736TIP3    H256624   6.058   5.835  15.427 -1.1598 -0.2630 -0.5815
11737TIP3   OH256625   0.717   1.187   2.040 -0.2361  0.6805  0.0647
11737TIP3    H156626   0.678   1.215   1.957 -0.1898  2.1210  0.5005
11737TIP3    H256627   0.747   1.268   2.081  0.7185 -0.1203  1.0074
11738TIP3   OH256628   4.673   3.125  12.903  0.0907 -0.2558  0.7837
11738TIP3    H156629   4.726   3.068  12.958 -2.7176 -3.6204  0.3467
11738TIP3    H256630   4.662   3.205  12.955  4.0354 -0.0161  1.5204
11739TIP3   OH256631   2.204   4.405  12.156  0.1680 -0.0930  0.5425
11739TIP3    H156632   2.220   4.446  12.071  0.3499  2.6333  1.7803
11739TIP3    H256633   2.280   4.351  12.172  2.9030  3.5280  1.1764
11740TIP3   OH256634   6.476   2.944   2.358  0.2606  0.3204  0.0687
11740TIP3    H156635   6.462   3.020   2.415  2.3763 -0.1120  1.2652
11740TIP3    H256636   6.557   2.963   2.312  1.3272 -1.5511  1.0633
11741TIP3   OH256637   1.558   3.705  12.091  0.2962  0.1186 -0.0863
11741TIP3    H156638   1.512   3.746  12.017 -0.7947 -0.4976  0.2319
11741TIP3    H256639   1.630   3.764  12.109 -0.3256  1.0894 -0.6521
11742TIP3   OH256640   4.636   3.831   2.054 -0.6074  0.1846 -0.0296
11742TIP3    H156641   4.569   3.852   2.118  1.0967  0.9941  1.6020
11742TIP3    H256642   4.718   3.856   2.096  0.5754  1.3724 -2.7849
11743TIP3   OH256643   6.609   5.178   3.754 -0.0065  0.1744 -0.0456
11743TIP3    H156644   6.696   5.138   3.766  1.2576  1.9228 -2.4625
11743TIP3    H256645   6.550   5.104   3.741  1.7030 -1.0435 -1.3412
11744TIP3   OH256646   2.351   4.146  13.038  0.0521 -0.1908  0.6824
11744TIP3    H156647   2.381   4.188  12.957  0.5835 -0.1095  0.9110
11744TIP3    H256648   2.330   4.219  13.096 -0.5905 -0.2496  0.5269
11745TIP3   OH256649   5.387   4.848  11.014 -0.5833  0.3986  0.0422
11745TIP3    H156650   5.472   4.824  10.977 -0.5590 -0.9570  0.9039
11745TIP3    H256651   5.409   4.898  11.093 -0.5972  0.4356  0.0231
11746TIP3   OH256652   2.847   5.225  11.933  0.2431 -0.2670  0.4647
11746TIP3    H156653   2.857   5.320  11.940  0.3836 -0.1523 -0.9461
11746TIP3    H256654   2.937   5.193  11.930  0.2179 -0.2859 -0.5873
11747TIP3   OH256655   3.476   2.211  15.947 -0.3104 -0.2973  0.4576
11747TIP3    H156656   3.423   2.257  15.882  0.0971 -0.6906 -0.1611
11747TIP3    H256657   3.533   2.153  15.896  2.1090  1.4934  0.9428
11748TIP3   OH256658   6.287   5.779   1.587 -0.4214  0.0295 -0.1703
11748TIP3    H156659   6.243   5.724   1.522  0.6699  0.2558 -1.1158
11748TIP3    H256660   6.348   5.833   1.537  0.9520 -0.2671  1.0950
11749TIP3   OH256661   5.744   4.808   0.167  0.3040 -0.4939  0.4052
11749TIP3    H156662   5.837   4.789   0.172  0.1993 -0.7571  1.8549
11749TIP3    H256663   5.709   4.780   0.252 -1.1325 -0.5997 -0.1882
11750TIP3   OH256664   5.965   2.761  13.693  0.2064 -0.0056 -0.2674
11750TIP3    H156665   5.948   2.700  13.765  0.4772 -1.5616 -1.4708
11750TIP3    H256666   5.884   2.811  13.684 -0.0465 -0.2204  0.7067
11751TIP3   OH256667   1.454   6.771   1.340 -0.3920 -0.2432 -0.1075
11751TIP3    H156668   1.506   6.761   1.260  1.6026  1.0177  0.9664
11751TIP3    H256669   1.497   6.716   1.405 -1.0210  0.0056  0.5393
11752TIP3   OH256670   2.254   1.687  10.854  0.2733 -0.0647 -0.3312
11752TIP3    H156671   2.237   1.594  10.837  0.6261  0.2781 -2.9084
11752TIP3    H256672   2.349   1.695  10.853  0.6550 -0.3706  4.7969
11753TIP3   OH256673   4.829   5.928   6.062 -0.3187 -0.1791 -0.4818
11753TIP3    H156674   4.908   5.961   6.106  0.1268 -1.1848 -0.5078
11753TIP3    H256675   4.784   5.878   6.130 -1.9977  2.0081  0.1342
11754TIP3   OH256676   5.522   3.312   3.209 -0.1678  0.9240 -0.4500
11754TIP3    H156677   5.426   3.309   3.200 -0.3565 -2.4545  1.0094
11754TIP3    H256678   5.553   3.244   3.148  1.3352  1.9580 -0.8836
11755TIP3   OH256679   1.750   0.194  16.430  0.0890  0.0571  0.2779
11755TIP3    H156680   1.827   0.186  16.374  0.8411 -0.9432  1.4215
11755TIP3    H256681   1.694   0.120  16.404  0.1496 -0.0346  0.4091
11756TIP3   OH256682   0.118   0.617   3.124 -0.5462  0.8065  0.0861
11756TIP3    H156683   0.154   0.537   3.161  0.2625 -0.0053 -2.3078
11756TIP3    H256684   0.183   0.684   3.143 -0.3062  0.4941  0.3792
11757TIP3   OH256685   1.879   5.844   4.985 -0.7164 -0.0044 -0.0133
11757TIP3    H156686   1.867   5.778   4.916  0.9613  0.3774 -0.7262
11757TIP3    H256687   1.924   5.917   4.941 -0.4312  0.6271  1.2808
11758TIP3   OH256688   2.897   0.430   1.733  1.0892  0.3161 -1.0690
11758TIP3    H156689   2.948   0.428   1.814 -1.8722 -0.4325  0.9442
11758TIP3    H256690   2.882   0.338   1.711 -0.9347  0.4609 -0.4756
11759TIP3   OH256691   6.632   1.921  16.556 -0.2448 -0.3323  0.1322
11759TIP3    H156692   6.594   1.870  16.484 -2.4817  1.5564 -0.1538
11759TIP3    H256693   6.724   1.895  16.558 -0.0999 -0.5758 -3.3406
11760TIP3   OH256694   6.280   1.321  13.279  0.1661 -0.1794  0.6276
11760TIP3    H156695   6.300   1.288  13.367  0.5348  0.0559  0.6361
11760TIP3    H256696   6.360   1.305  13.229  0.0101 -0.1721  0.3759
11761TIP3   OH256697   2.225   0.654   5.847  0.2720  0.2398  0.1168
11761TIP3    H156698   2.183   0.604   5.917 -1.5189  1.2248 -0.1884
11761TIP3    H256699   2.311   0.676   5.883  0.4988 -1.6475  0.8694
11762TIP3   OH256700   0.748   3.216  14.601 -0.2982 -0.5300 -0.0332
11762TIP3    H156701   0.740   3.130  14.561 -0.4737  0.0908 -1.3760
11762TIP3    H256702   0.840   3.223  14.626 -0.4201 -1.3423  0.6796
11763TIP3   OH256703   5.371   5.112  15.964  0.5089  0.4734 -0.7099
11763TIP3    H156704   5.466   5.124  15.969  0.7555 -0.6681 -2.2953
11763TIP3    H256705   5.339   5.192  15.922  0.7852  0.6955 -0.5084
11764TIP3   OH256706   5.760   0.947  16.201  0.1600  0.8818 -0.5359
11764TIP3    H156707   5.841   0.911  16.236 -0.0163  2.1519  1.3354
11764TIP3    H256708   5.691   0.897  16.243 -0.0646  0.5160 -1.3117
11765TIP3   OH256709   1.233   2.838   2.146 -0.2562 -0.2373 -0.0129
11765TIP3    H156710   1.278   2.774   2.201  0.0589  0.5396  0.6509
11765TIP3    H256711   1.294   2.912   2.140 -0.5152 -0.0851 -0.9627
11766TIP3   OH256712   5.685   4.796  12.475  0.5444  0.6421 -0.3005
11766TIP3    H156713   5.780   4.793  12.482  0.4621  0.8031  1.4033
11766TIP3    H256714   5.667   4.869  12.415  1.4849  1.9192  0.8959
11767TIP3   OH256715   6.429   5.577   3.733 -0.5696 -0.6212  0.0053
11767TIP3    H156716   6.410   5.540   3.819 -0.1553 -3.2980 -0.9533
11767TIP3    H256717   6.369   5.652   3.726  1.5868  1.8307  3.8109
11768TIP3   OH256718   4.771   6.326   1.342 -0.0211  0.2284  0.2999
11768TIP3    H156719   4.797   6.405   1.389  0.4327  1.2267 -1.5044
11768TIP3    H256720   4.853   6.291   1.307 -0.2935 -0.6943  0.5556
11769TIP3   OH256721   3.258   4.221   0.519 -0.0029  0.2698  0.1736
11769TIP3    H156722   3.340   4.242   0.475 -0.8552  1.1622 -1.0330
11769TIP3    H256723   3.285   4.186   0.604  1.6269  0.1365 -0.3715
11770TIP3   OH256724   2.494   5.489   2.051 -0.0395 -0.4987 -0.0814
11770TIP3    H156725   2.574   5.526   2.014  0.4205 -1.3007  0.1149
11770TIP3    H256726   2.447   5.454   1.976 -0.4578  0.4177 -0.2646
11771TIP3   OH256727   3.933   4.991  12.300  0.2654 -1.2130  0.7007
11771TIP3    H156728   3.981   4.908  12.298  0.1510 -1.2828  0.8975
11771TIP3    H256729   3.914   5.006  12.392  0.7490 -0.7019  0.7256
11772TIP3   OH256730   5.392   4.448   3.231 -0.2477 -0.2085  0.1271
11772TIP3    H156731   5.355   4.429   3.317  0.4413  1.6742  0.8832
11772TIP3    H256732   5.411   4.541   3.232  1.5886 -0.4962 -1.3534
11773TIP3   OH256733   4.680   3.490   0.030  0.0927 -0.3720 -0.5379
11773TIP3    H156734   4.588   3.514   0.021  0.4118  1.5598  0.8509
11773TIP3    H256735   4.728   3.572   0.023  1.3717 -0.6238  2.9015
11774TIP3   OH256736   0.122   1.947   6.403 -0.0024  0.3309 -0.0627
11774TIP3    H156737   0.110   2.027   6.351 -1.7034 -1.2961 -2.3386
11774TIP3    H256738   0.050   1.890   6.378  0.9166 -1.8113  1.7923
11775TIP3   OH256739   3.648   4.674   0.726 -0.3958  0.0062 -0.0681
11775TIP3    H156740   3.565   4.627   0.717  0.4526 -1.6167  0.0891
11775TIP3    H256741   3.673   4.660   0.817  0.2031  0.2102 -0.2000
11776TIP3   OH256742   6.600   2.311   5.792  0.6056 -0.3950 -0.4089
11776TIP3    H156743   6.616   2.395   5.751 -0.0375  1.4825  2.8356
11776TIP3    H256744   6.510   2.289   5.768  1.3073 -1.0910 -2.6191
11777TIP3   OH256745   0.920   2.002  11.163  0.9347  0.2616  0.2121
11777TIP3    H156746   0.902   2.022  11.071  1.0118  1.0291  0.3564
11777TIP3    H256747   0.962   1.916  11.161  0.2557 -0.0652 -0.4030
11778TIP3   OH256748   3.768   0.089   6.338  0.0349  0.2528 -0.2705
11778TIP3    H156749   3.798   0.012   6.387 -0.1742 -0.2498 -0.9325
11778TIP3    H256750   3.674   0.077   6.329  0.1633 -0.0199 -1.4111
11779TIP3   OH256751   6.765   2.841   0.486 -0.0684 -0.4722  1.0288
11779TIP3    H156752   6.796   2.779   0.552 -0.0728 -0.7696  0.7545
11779TIP3    H256753   6.697   2.892   0.531  2.9493  2.4193  2.6885
11780TIP3   OH256754   0.493   5.946  16.339 -0.2592  0.6452 -0.1955
11780TIP3    H156755   0.555   6.018  16.347  0.4866  0.2712 -2.1507
11780TIP3    H256756   0.544   5.874  16.302 -1.0653 -0.8081  1.3568
11781TIP3   OH256757   3.596   5.414   4.218 -0.1322 -0.1808  0.0148
11781TIP3    H156758   3.552   5.349   4.274 -2.6940  0.8347 -0.6534
11781TIP3    H256759   3.647   5.361   4.156  0.5376 -1.4047  1.5506
11782TIP3   OH256760   5.455   4.892   1.848 -0.0503 -0.2429  0.5728
11782TIP3    H156761   5.399   4.934   1.782  0.1836  0.7056  0.9639
11782TIP3    H256762   5.504   4.964   1.887  2.9882 -1.2276 -1.1362
11783TIP3   OH256763   0.313   3.097   5.493 -0.1366 -0.1587 -0.4048
11783TIP3    H156764   0.363   3.111   5.574  1.7055 -0.3423 -1.4373
11783TIP3    H256765   0.340   3.169   5.436 -3.1154  1.2823 -0.1593
11784TIP3   OH256766   2.665   2.119  15.518 -0.2300 -0.1513  0.4348
11784TIP3    H156767   2.579   2.150  15.488 -0.1055 -0.5695 -0.3851
11784TIP3    H256768   2.678   2.037  15.472 -0.3032 -1.1782  2.1408
11785TIP3   OH256769   3.585   0.968  13.966 -0.6906  0.2485  0.3491
11785TIP3    H156770   3.516   1.025  13.932 -0.6599  0.3392  0.4384
11785TIP3    H256771   3.656   0.974  13.903 -0.9697 -0.2623 -0.0254
11786TIP3   OH256772   5.863   0.963  14.330 -0.0476 -0.2250  0.1415
11786TIP3    H156773   5.827   1.032  14.275 -0.2844 -0.3540  0.1346
11786TIP3    H256774   5.883   0.892  14.269  1.8825  0.4889 -0.1297
11787TIP3   OH256775   2.349   0.627  10.946 -0.0912  0.6277  0.4936
11787TIP3    H156776   2.353   0.564  10.874 -1.2676  1.4950 -0.3544
11787TIP3    H256777   2.439   0.657  10.957  0.7460 -1.9919  1.6771
11788TIP3   OH256778   4.539   0.683   0.447  0.1471  0.2570  0.4161
11788TIP3    H156779   4.492   0.728   0.517  2.4928  0.9269  1.6375
11788TIP3    H256780   4.525   0.739   0.370  0.8848  1.7170  1.3114
11789TIP3   OH256781   0.503   4.613  13.054 -0.3017  0.2913 -0.4843
11789TIP3    H156782   0.506   4.519  13.073 -0.9040  0.2967 -0.3522
11789TIP3    H256783   0.490   4.654  13.139 -0.1988  0.4891 -0.5633
11790TIP3   OH256784   3.127   1.609   1.896 -0.0512 -0.5098  0.2662
11790TIP3    H156785   3.217   1.641   1.887  0.3476 -1.5602  0.3540
11790TIP3    H256786   3.110   1.563   1.814  0.0994 -1.7180  0.8809
11791TIP3   OH256787   3.473   6.443   4.997 -0.4131 -0.6898 -0.3656
11791TIP3    H156788   3.466   6.351   4.971 -0.5131 -0.9452  0.5165
11791TIP3    H256789   3.402   6.455   5.060 -0.5433  0.0584 -0.6403
11792TIP3   OH256790   0.115   6.259  10.869 -0.4152 -0.3218  0.2066
11792TIP3    H156791   0.207   6.259  10.897 -0.3711 -0.7976  0.0631
11792TIP3    H256792   0.112   6.200  10.794 -0.5883  0.7402 -0.6454
11793TIP3   OH256793   3.125   2.349   2.452 -0.1726 -0.2785  0.5129
11793TIP3    H156794   3.055   2.411   2.472  0.8725  0.7875  0.9920
11793TIP3    H256795   3.155   2.319   2.538 -0.9932 -1.8913  0.2903
11794TIP3   OH256796   1.872   0.811   5.718 -0.3008  0.0068  0.0196
11794TIP3    H156797   1.920   0.733   5.690 -1.3303 -0.5074 -0.3841
11794TIP3    H256798   1.939   0.877   5.734  0.4612  0.5323 -4.1195
11795TIP3   OH256799   6.087   5.376   5.582  0.1356  0.5544 -0.2327
11795TIP3    H156800   6.063   5.398   5.672  1.6306  1.6830 -0.0611
11795TIP3    H256801   6.110   5.283   5.586  0.8872  0.7579  0.7528
11796TIP3   OH256802   4.723   0.186   5.776 -1.0447 -0.1352 -0.8131
11796TIP3    H156803   4.780   0.164   5.849 -1.1054  0.5395 -0.5506
11796TIP3    H256804   4.641   0.212   5.817 -1.0489  0.3405 -1.1150
11797TIP3   OH256805   6.127   3.359   2.377  0.3557  0.3325  0.4075
11797TIP3    H156806   6.093   3.442   2.409  3.4083  1.6218  0.6600
11797TIP3    H256807   6.159   3.379   2.289  0.3741 -0.7996  0.1424
11798TIP3   OH256808   2.532   5.538   4.606 -0.0832  0.3141  0.6894
11798TIP3    H156809   2.627   5.530   4.612  0.0891  1.7727  0.1975
11798TIP3    H256810   2.500   5.509   4.692  0.7290 -0.8554  0.6304
11799TIP3   OH256811   5.106   3.369  10.593 -0.5229 -0.1795  0.9449
11799TIP3    H156812   5.119   3.464  10.587  0.4385 -0.3639 -1.0811
11799TIP3    H256813   5.047   3.349  10.520  0.6231 -1.3022  0.2925
11800TIP3   OH256814   1.640   3.567  12.854  0.1109 -0.1073  0.3979
11800TIP3    H156815   1.605   3.519  12.929 -0.6190 -0.5493 -0.2120
11800TIP3    H256816   1.647   3.502  12.784  0.4769  0.3674 -0.0133
11801TIP3   OH256817   3.291   4.146   4.053  0.1780  0.0506  0.0909
11801TIP3    H156818   3.313   4.148   4.147  0.4670 -0.2886  0.0320
11801TIP3    H256819   3.335   4.068   4.020 -1.4204 -0.8501  0.0298
11802TIP3   OH256820   2.499   6.254   1.618  0.2183  0.3598 -0.0070
11802TIP3    H156821   2.452   6.228   1.698 -1.3363  0.1561 -0.9390
11802TIP3    H256822   2.586   6.216   1.628  0.0624  0.3521  1.5878
11803TIP3   OH256823   1.080   5.988  11.444  0.4722 -0.1874 -0.7745
11803TIP3    H156824   1.167   5.965  11.476  0.3932 -3.3106 -2.3540
11803TIP3    H256825   1.089   5.985  11.348 -1.4012 -0.9143 -0.9624
11804TIP3   OH256826   0.939   5.086  16.337 -0.2261 -0.4154 -0.8911
11804TIP3    H156827   0.851   5.051  16.345 -0.3729  0.0508 -0.4580
11804TIP3    H256828   0.996   5.018  16.375 -0.2738 -1.2198 -2.1834
11805TIP3   OH256829   3.226   6.176   2.304 -0.1752  0.4607 -0.5815
11805TIP3    H156830   3.266   6.264   2.301  1.2459 -0.0598  1.3222
11805TIP3    H256831   3.147   6.187   2.357  0.4694  0.4379  0.3956
11806TIP3   OH256832   1.424   0.576  14.726 -0.3662 -0.3443  0.3022
11806TIP3    H156833   1.363   0.506  14.750 -2.7638  0.8265 -1.8576
11806TIP3    H256834   1.510   0.542  14.750 -1.1649 -4.7206 -1.9625
11807TIP3   OH256835   1.221   6.550  13.308 -0.0017 -0.3300  0.5042
11807TIP3    H156836   1.211   6.638  13.272  0.2947 -1.2903 -2.0971
11807TIP3    H256837   1.156   6.497  13.262  0.7186 -1.7338  1.0422
11808TIP3   OH256838   0.310   4.106   4.343 -0.2965 -0.3355 -0.3373
11808TIP3    H156839   0.292   4.198   4.360 -1.3179 -0.5223 -0.3423
11808TIP3    H256840   0.389   4.106   4.288  2.1781  0.3453  2.9549
11809TIP3   OH256841   4.469   3.456  15.383 -0.1102 -0.6165 -0.1254
11809TIP3    H156842   4.446   3.416  15.299 -2.4744 -0.4464  0.3851
11809TIP3    H256843   4.424   3.403  15.448  0.7723 -0.0680  0.9663
11810TIP3   OH256844   3.648   6.373  14.485 -0.4665 -0.1893 -0.4366
11810TIP3    H156845   3.683   6.435  14.421 -0.8298  1.5695  1.0136
11810TIP3    H256846   3.572   6.334  14.441  1.3245 -1.6820 -2.3887
11811TIP3   OH256847   3.618   1.164   4.697 -0.3184  0.6028 -0.3816
11811TIP3    H156848   3.568   1.143   4.775  0.3140  2.1195  0.4847
11811TIP3    H256849   3.695   1.211   4.730 -0.3847  1.8930 -1.9372
11812TIP3   OH256850   2.587   0.662   2.869 -0.1805  0.4474  0.3049
11812TIP3    H156851   2.512   0.676   2.926 -1.2344 -1.2507 -0.5894
11812TIP3    H256852   2.639   0.595   2.914  0.4489  1.0784  0.5540
11813TIP3   OH256853   0.909   5.906   5.146  0.1445  0.2931 -0.7294
11813TIP3    H156854   0.824   5.875   5.178  0.0850  0.4730 -0.7119
11813TIP3    H256855   0.929   5.982   5.201 -0.3185  1.0812 -1.6034
11814TIP3   OH256856   3.628   3.264   1.863 -0.4888 -1.0909  0.2697
11814TIP3    H156857   3.679   3.184   1.848  1.3018  0.1103 -0.4339
11814TIP3    H256858   3.624   3.305   1.776 -1.6765 -0.5760  0.5567
11815TIP3   OH256859   1.822   2.433  11.118  0.0307 -0.2712 -0.5353
11815TIP3    H156860   1.887   2.427  11.049  0.3363 -1.1752 -0.1821
11815TIP3    H256861   1.872   2.448  11.198 -0.0668 -2.0537 -0.0921
11816TIP3   OH256862   0.758   4.424  11.675 -0.7200 -1.0967  0.1828
11816TIP3    H156863   0.737   4.345  11.625  0.4722 -0.7845 -0.8835
11816TIP3    H256864   0.854   4.426  11.677 -0.7394 -0.6120  1.7508
11817TIP3   OH256865   1.242   2.755   4.905  0.5929  0.2719  0.1415
11817TIP3    H156866   1.169   2.818   4.902 -0.4575 -0.9016  0.4594
11817TIP3    H256867   1.238   2.710   4.820  0.4776 -0.3183  0.4604
11818TIP3   OH256868   0.353   1.514  12.777 -0.0086 -0.0153 -0.0518
11818TIP3    H156869   0.409   1.459  12.721  0.4516  0.3617  0.0269
11818TIP3    H256870   0.342   1.464  12.857 -1.1467 -0.8153 -0.6889
11819TIP3   OH256871   3.048   4.143  15.403  0.0873 -0.5444  0.1243
11819TIP3    H156872   3.023   4.198  15.478  1.4302  1.7937 -1.0240
11819TIP3    H256873   3.134   4.110  15.426  0.5099  0.1932 -0.3619
11820TIP3   OH256874   4.487   1.086   3.873 -0.0274  0.2038  0.5054
11820TIP3    H156875   4.431   1.026   3.922 -0.1819 -1.1077 -1.1790
11820TIP3    H256876   4.566   1.095   3.927 -0.2957 -0.9548  1.1242
11821TIP3   OH256877   1.152   3.331   2.079  0.1108 -0.1897  0.0361
11821TIP3    H156878   1.162   3.408   2.136 -0.8389  0.0188 -0.0688
11821TIP3    H256879   1.199   3.261   2.125 -0.6211 -0.0180  1.0777
11822TIP3   OH256880   2.720   4.080   3.957  0.1754 -0.3085 -0.0580
11822TIP3    H156881   2.779   4.099   3.885 -0.4501  1.3783 -0.1808
11822TIP3    H256882   2.704   4.165   3.998 -3.9196 -0.1651 -1.4291
11823TIP3   OH256883   0.634   3.783  13.786  0.7760 -0.6881  0.3620
11823TIP3    H156884   0.588   3.702  13.765  0.5900 -0.6753  0.7250
11823TIP3    H256885   0.668   3.813  13.701 -1.8057  0.5011 -0.3639
11824TIP3   OH256886   1.032   4.110  11.504 -0.1293 -0.4272  0.1619
11824TIP3    H156887   1.015   4.189  11.453  0.4092  0.1098  0.8027
11824TIP3    H256888   1.108   4.070  11.463  0.2310 -0.0579  0.4631
11825TIP3   OH256889   5.222   2.877  16.424  0.0215  0.6384  0.4402
11825TIP3    H156890   5.227   2.963  16.465  0.6652  0.0484  1.6645
11825TIP3    H256891   5.303   2.868  16.375 -0.7244  1.3224 -0.9637
11826TIP3   OH256892   5.680   6.396   2.486 -0.6096 -0.8489 -0.0608
11826TIP3    H156893   5.686   6.354   2.400  1.5179 -0.8506  0.0426
11826TIP3    H256894   5.658   6.487   2.466 -0.4862 -0.9300 -0.5870
11827TIP3   OH256895   3.817   4.008   0.455  0.1310  0.0805  0.6128
11827TIP3    H156896   3.772   4.060   0.521 -0.0744  1.1810 -0.3832
11827TIP3    H256897   3.778   3.920   0.463 -1.4277  0.7365  0.4983
11828TIP3   OH256898   2.984   1.778   0.079  0.0479 -0.5510 -0.1951
11828TIP3    H156899   2.988   1.687   0.049 -0.8133 -0.8976  0.7155
11828TIP3    H256900   3.014   1.775   0.170  0.7055  0.1976 -0.3719
11829TIP3   OH256901   2.257   5.555   0.553 -0.4070 -0.5387  0.7628
11829TIP3    H156902   2.181   5.520   0.599 -0.1579 -0.1137  1.5248
11829TIP3    H256903   2.226   5.571   0.464 -1.2232 -0.3243  1.0768
11830TIP3   OH256904   6.388   6.464  15.164 -0.2255 -0.1419 -0.6062
11830TIP3    H156905   6.323   6.530  15.188 -2.2434 -2.0818 -0.3569
11830TIP3    H256906   6.412   6.484  15.074 -0.7338  0.9659 -0.5049
11831TIP3   OH256907   0.155   5.148   6.654  0.5851  0.0458  0.1498
11831TIP3    H156908   0.222   5.080   6.654  1.3840  0.8111 -0.6067
11831TIP3    H256909   0.197   5.224   6.696  0.0359  0.3825  0.1051
11832TIP3   OH256910   0.103   1.875  16.089  0.1184 -0.2143  0.0140
11832TIP3    H156911   0.106   1.850  16.182  0.0667 -2.0885 -0.4347
11832TIP3    H256912   0.176   1.828  16.049 -0.8803 -0.8363 -1.1716
11833TIP3   OH256913   0.585   6.093   0.923  0.7146  0.3474  0.6580
11833TIP3    H156914   0.552   6.012   0.960 -0.2180  0.8425  0.9486
11833TIP3    H256915   0.612   6.070   0.834  1.3679 -0.4774  1.0562
11834TIP3   OH256916   2.644   4.212   4.867 -0.1710 -0.4976  0.0868
11834TIP3    H156917   2.697   4.163   4.929  1.3789  0.0901 -0.7137
11834TIP3    H256918   2.557   4.214   4.906 -0.3907 -3.9679  0.1210
11835TIP3   OH256919   6.216   0.452   3.099 -0.3052 -0.3450  0.3693
11835TIP3    H156920   6.128   0.488   3.107 -0.1865  0.7660 -2.3155
11835TIP3    H256921   6.220   0.418   3.009  1.5210 -1.8048  0.9442
11836TIP3   OH256922   6.192   1.533  10.690  0.0672  0.3706  0.4578
11836TIP3    H156923   6.122   1.485  10.734 -1.1570  0.5829 -1.1689
11836TIP3    H256924   6.176   1.625  10.711 -0.3954  0.4545 -0.2650
11837TIP3   OH256925   6.771   3.943  16.586  0.1666 -0.0677 -0.1534
11837TIP3    H156926   6.791   3.905  16.500 -0.2645 -0.5712 -0.0384
11837TIP3    H256927   6.760   4.037  16.569  3.3450  0.4238 -0.0923
11838TIP3   OH256928   0.462   2.267   5.779  0.3150  0.4634  0.4856
11838TIP3    H156929   0.397   2.260   5.849  2.6121 -2.5389  2.5886
11838TIP3    H256930   0.545   2.282   5.824  1.4649  2.0127 -1.9163
11839TIP3   OH256931   0.329   3.217   0.631  0.5863 -1.1777 -0.0496
11839TIP3    H156932   0.318   3.282   0.561 -0.0046 -0.3573  0.7745
11839TIP3    H256933   0.421   3.193   0.628  1.4904  1.6629  1.2528
11840TIP3   OH256934   1.333   5.312  15.675  0.3308  0.3318  0.1827
11840TIP3    H156935   1.392   5.244  15.642  1.3167  1.0071  0.5191
11840TIP3    H256936   1.285   5.341  15.598 -0.8345 -1.4250  0.1948
11841TIP3   OH256937   4.346   2.215   4.690  0.0505  0.1447 -0.1675
11841TIP3    H156938   4.253   2.204   4.708  0.2646 -1.5859  0.0435
11841TIP3    H256939   4.356   2.194   4.597  0.5403 -2.2142  0.3507
11842TIP3   OH256940   4.976   1.747   3.099 -0.5687 -0.2858  0.0137
11842TIP3    H156941   4.950   1.824   3.149  2.9471 -0.6268  2.7480
11842TIP3    H256942   5.009   1.783   3.016  0.5149  1.1597  1.0155
11843TIP3   OH256943   4.517   4.607   1.467 -0.4750 -0.2938 -0.2846
11843TIP3    H156944   4.514   4.694   1.426  0.3163 -0.0602  0.1368
11843TIP3    H256945   4.602   4.604   1.510 -1.1057 -0.6864  0.9851
11844TIP3   OH256946   1.610   2.366   5.920 -0.1042 -0.2292 -0.2883
11844TIP3    H156947   1.644   2.284   5.957  0.4697  0.1836  0.1273
11844TIP3    H256948   1.653   2.434   5.972 -2.4062  0.3224  1.0300
11845TIP3   OH256949   1.958   6.118   6.003  0.0635 -0.0964  0.2072
11845TIP3    H156950   1.888   6.108   6.067 -1.1677 -0.8831 -1.2169
11845TIP3    H256951   2.035   6.142   6.055 -0.8250 -1.0063  2.0002
11846TIP3   OH256952   5.710   2.862  13.486  0.3785 -0.0740 -0.5243
11846TIP3    H156953   5.736   2.795  13.423  0.5051 -2.3362  1.7613
11846TIP3    H256954   5.614   2.864  13.481  0.4200  0.2418 -1.2261
11847TIP3   OH256955   6.593   0.645  17.195  0.4092  0.1195 -0.5302
11847TIP3    H156956   6.588   0.647  17.100  1.0407 -0.0067 -0.5729
11847TIP3    H256957   6.539   0.570  17.221 -0.0208  0.3453 -0.7625
11848TIP3   OH256958   4.522   0.104  12.279  0.5870 -0.2905  0.6551
11848TIP3    H156959   4.604   0.080  12.234  0.4531  1.1822 -0.4464
11848TIP3    H256960   4.507   0.195  12.254 -1.7171 -0.7029  0.3410
11849TIP3   OH256961   0.093   1.840  16.999  0.2466 -0.0343 -0.4069
11849TIP3    H156962   0.109   1.897  17.073 -0.4637 -0.9346  0.4613
11849TIP3    H256963   0.028   1.886  16.946  1.9498  1.3792 -1.3893
11850TIP3   OH256964   1.253   1.811   3.355 -0.4225 -0.1268  0.3069
11850TIP3    H156965   1.227   1.850   3.272  0.0291 -0.7185 -0.1148
11850TIP3    H256966   1.348   1.809   3.353 -0.4229 -0.8028  0.5305
11851TIP3   OH256967   1.468   0.711   1.178  0.1710 -0.2385 -0.0639
11851TIP3    H156968   1.473   0.641   1.243 -0.4051 -0.0305  0.2026
11851TIP3    H256969   1.413   0.674   1.108  1.5660 -0.8254 -0.8995
11852TIP3   OH256970   2.613   1.094   5.846  1.0672 -0.0187  0.6718
11852TIP3    H156971   2.532   1.102   5.896  0.4922  0.2711 -0.2836
11852TIP3    H256972   2.655   1.180   5.856  0.0058  0.7342 -0.9016
11853TIP3   OH256973   2.363   3.329   1.013  0.7264 -0.2305 -0.0592
11853TIP3    H156974   2.280   3.348   0.969  0.3579  1.4286  1.2166
11853TIP3    H256975   2.361   3.385   1.091  1.7530 -2.3433  1.5779
11854TIP3   OH256976   6.471   2.789   0.217 -0.0543  0.3671  0.3434
11854TIP3    H156977   6.449   2.697   0.201  0.1723  0.3231  0.2834
11854TIP3    H256978   6.444   2.804   0.307  0.2288  0.1433  0.4694
11855TIP3   OH256979   6.116   3.478  14.825 -0.1099  0.5646 -0.1124
11855TIP3    H156980   6.028   3.497  14.794 -1.3680 -1.6373  1.7261
11855TIP3    H256981   6.148   3.410  14.766 -1.4561 -1.7145  1.5879
11856TIP3   OH256982   2.420   0.913   5.078 -0.6862  0.1971  0.4939
11856TIP3    H156983   2.346   0.905   5.018  0.2068  0.8512 -0.7276
11856TIP3    H256984   2.488   0.955   5.027  0.4743 -0.2000  1.6629
11857TIP3   OH256985   0.107   4.964  11.126 -0.4426 -0.6707  0.4186
11857TIP3    H156986   0.180   5.026  11.124 -0.6265 -0.4336  0.8683
11857TIP3    H256987   0.100   4.931  11.036  0.7656 -1.3439  0.5547
11858TIP3   OH256988   3.322   2.677  10.941 -0.6791  0.3658  0.1456
11858TIP3    H156989   3.418   2.677  10.938 -0.6676 -0.4579  0.4158
11858TIP3    H256990   3.298   2.770  10.943  0.0483  0.6379 -1.8520
11859TIP3   OH256991   4.099   3.725  13.136  0.0395  0.4036  0.2985
11859TIP3    H156992   4.028   3.695  13.193  1.4760 -1.5964  1.1288
11859TIP3    H256993   4.158   3.772  13.194  2.0065 -2.4750  0.8108
11860TIP3   OH256994   4.941   4.545  11.092  0.4081 -0.4559 -0.3396
11860TIP3    H156995   4.897   4.546  11.007 -1.4455  2.7546  0.5131
11860TIP3    H256996   5.010   4.611  11.084 -0.8512  1.1180  1.0612
11861TIP3   OH256997   1.224   0.795   6.482 -0.3974  0.1876 -0.7307
11861TIP3    H156998   1.168   0.830   6.551  0.1675  0.0495 -0.1931
11861TIP3    H256999   1.230   0.866   6.418 -0.4122  0.5505 -0.3373
11862TIP3   OH257000   4.918   4.086   0.023 -0.6031  0.2978 -0.3918
11862TIP3    H157001   4.985   4.139  -0.020 -0.9953  1.2177  0.0917
11862TIP3    H257002   4.954   4.069   0.110 -0.0828 -1.0285 -0.8416
11863TIP3   OH257003   5.661   6.313  13.107 -0.0344  0.0442  0.0047
11863TIP3    H157004   5.574   6.303  13.067 -0.5746 -1.7513  1.4950
11863TIP3    H257005   5.699   6.225  13.104  1.4093  0.6354  0.1444
11864TIP3   OH257006   3.501   5.045  15.384 -0.0930  0.9136  0.6917
11864TIP3    H157007   3.438   5.111  15.355 -0.6839  0.5711  1.1797
11864TIP3    H257008   3.449   4.981  15.433  0.5506  0.3490  0.6597
11865TIP3   OH257009   6.231   5.572   0.520  0.1103  0.0772  0.5235
11865TIP3    H157010   6.219   5.601   0.610  1.4516  1.2340  0.3663
11865TIP3    H257011   6.324   5.588   0.502 -0.1809  0.0795 -1.1246
11866TIP3   OH257012   6.403   2.964  13.595 -0.0548  0.4779 -0.0544
11866TIP3    H157013   6.314   2.961  13.631 -0.0592 -0.4547 -0.1278
11866TIP3    H257014   6.404   3.042  13.540 -0.9614  0.2682 -0.3808
11867TIP3   OH257015   3.185   1.545  12.624 -0.7093 -0.6440  0.0946
11867TIP3    H157016   3.239   1.570  12.699  1.4632 -4.4648  0.0281
11867TIP3    H257017   3.230   1.584  12.549 -1.8909  1.6601  0.4654
11868TIP3   OH257018   1.276   1.785  12.014  0.0474 -0.1742 -0.2415
11868TIP3    H157019   1.245   1.828  12.093 -0.7668 -1.3841  0.1266
11868TIP3    H257020   1.359   1.744  12.039 -0.6092 -1.2538  0.2553
11869TIP3   OH257021   3.862   0.522   4.958  0.5821  0.6214 -0.7518
11869TIP3    H157022   3.943   0.504   4.909  0.3332  1.4129 -1.4818
11869TIP3    H257023   3.826   0.600   4.916 -1.0772 -0.2785 -1.0922
11870TIP3   OH257024   3.382   0.607   0.487 -0.0788  0.0782 -0.1463
11870TIP3    H157025   3.472   0.614   0.457  0.0914  0.2206  0.3741
11870TIP3    H257026   3.390   0.581   0.579 -0.5588  0.2795 -0.0449
11871TIP3   OH257027   2.669   0.534  11.470 -1.2602 -0.1148 -0.6420
11871TIP3    H157028   2.586   0.523  11.515 -0.3698 -2.1254  0.6679
11871TIP3    H257029   2.685   0.449  11.428  0.8429 -0.3465  0.4950
11872TIP3   OH257030   1.160   4.030  14.724  0.7094 -0.7955 -0.5856
11872TIP3    H157031   1.067   4.006  14.729  0.4190  0.3359 -0.3857
11872TIP3    H257032   1.196   4.001  14.807 -0.1592  1.5126  0.6901
11873TIP3   OH257033   3.299   4.428   3.406  0.8053  0.0802  0.0343
11873TIP3    H157034   3.277   4.522   3.401  0.4578 -0.0172 -0.3827
11873TIP3    H257035   3.219   4.387   3.439  0.5398 -0.2024 -0.9093
11874TIP3   OH257036   2.499   1.239   1.829 -0.1089 -0.0507 -0.1342
11874TIP3    H157037   2.499   1.334   1.823 -2.3827  0.1823  1.8887
11874TIP3    H257038   2.456   1.210   1.749 -1.9931  0.8698  0.4699
11875TIP3   OH257039   4.978   6.461   5.593 -0.5235  0.4809 -0.5314
11875TIP3    H157040   4.926   6.497   5.521  2.0922  2.8450 -1.4370
11875TIP3    H257041   5.000   6.536   5.647 -0.0609 -0.8109  1.1772
11876TIP3   OH257042   0.691   1.216   2.842  0.3998 -0.2176  0.1216
11876TIP3    H157043   0.701   1.177   2.929 -0.1342  0.7320  0.6233
11876TIP3    H257044   0.694   1.142   2.782 -1.4934 -1.1593  1.1011
11877TIP3   OH257045   2.580   4.127  14.503  0.7055 -0.1435 -0.7820
11877TIP3    H157046   2.555   4.038  14.476 -1.8393  0.1106  0.3858
11877TIP3    H257047   2.603   4.118  14.595 -0.9226  0.5486 -0.2643
11878TIP3   OH257048   3.772   3.148   0.824  0.2957  0.4485  0.0906
11878TIP3    H157049   3.705   3.190   0.771  1.6874  1.8532 -0.6365
11878TIP3    H257050   3.741   3.156   0.914 -1.5970 -1.0415 -0.3683
11879TIP3   OH257051   3.062   0.259  16.858  1.0265 -0.4089 -0.7431
11879TIP3    H157052   3.119   0.301  16.923 -0.5577  2.0718 -0.8150
11879TIP3    H257053   3.109   0.269  16.776  1.5372 -0.5174 -0.4697
11880TIP3   OH257054   3.167   5.994  12.259  0.4171 -0.2581 -0.2588
11880TIP3    H157055   3.263   5.997  12.263  0.4304 -0.6277 -0.2229
11880TIP3    H257056   3.148   5.987  12.166  0.4801 -1.4279 -0.2087
11881TIP3   OH257057   0.401   3.526  16.840 -0.7305  0.2525  0.7468
11881TIP3    H157058   0.341   3.489  16.905 -1.9856 -1.6946 -1.3500
11881TIP3    H257059   0.353   3.522  16.758  1.5127  0.6033 -0.6831
11882TIP3   OH257060   2.459   2.119   4.468 -0.1480 -0.2286  0.6374
11882TIP3    H157061   2.368   2.147   4.477 -0.0839 -0.3141  1.6090
11882TIP3    H257062   2.454   2.024   4.464 -0.0351 -0.2996  1.7812
11883TIP3   OH257063   6.523   2.309   2.659 -0.8203 -0.0185  0.0224
11883TIP3    H157064   6.438   2.351   2.653 -1.1391 -0.4408  1.2072
11883TIP3    H257065   6.504   2.215   2.665 -0.3331 -0.0688  1.0523
11884TIP3   OH257066   3.405   2.322  15.634  0.1942  0.3857  0.4228
11884TIP3    H157067   3.328   2.338  15.689 -0.5849 -0.7293 -0.2951
11884TIP3    H257068   3.439   2.409  15.615 -1.6718  0.9998 -0.3197
11885TIP3   OH257069   4.714   0.738   2.689  0.4040  0.2714 -0.1284
11885TIP3    H157070   4.624   0.721   2.662  1.0394 -1.2476 -1.4383
11885TIP3    H257071   4.711   0.824   2.730 -1.4235  0.8109 -1.2844
11886TIP3   OH257072   3.414   5.161  12.148  0.3521  0.5308 -0.7183
11886TIP3    H157073   3.491   5.176  12.203 -0.8340 -0.6169  1.4052
11886TIP3    H257074   3.398   5.245  12.105  0.3960  2.1007  2.0644
11887TIP3   OH257075   1.813   2.144  14.290  0.1712 -0.2632 -0.2021
11887TIP3    H157076   1.831   2.062  14.243  0.9470 -0.2713  0.1017
11887TIP3    H257077   1.876   2.145  14.361 -0.5902  0.0490  0.4836
11888TIP3   OH257078   0.176   3.388  14.749  0.3548 -0.3196 -0.8162
11888TIP3    H157079   0.191   3.479  14.722  3.0232 -0.5407 -0.4334
11888TIP3    H257080   0.094   3.363  14.707 -0.4001  2.2301 -1.0068
11889TIP3   OH257081   1.869   6.586   1.014  0.6412  0.2696  0.2677
11889TIP3    H157082   1.937   6.538   0.967  0.4436  0.9964 -0.8272
11889TIP3    H257083   1.889   6.678   0.995  0.0905  0.5451  0.9929
11890TIP3   OH257084   2.606   6.149  15.284  0.6128 -0.1342  0.3383
11890TIP3    H157085   2.561   6.174  15.203 -0.0485 -2.0834  0.0490
11890TIP3    H257086   2.579   6.214  15.348 -1.3860 -0.3411 -0.2323
11891TIP3   OH257087   1.892   4.769   2.820 -0.1743  0.0443  0.1520
11891TIP3    H157088   1.925   4.711   2.752  0.5377 -0.2752  0.7603
11891TIP3    H257089   1.888   4.855   2.779 -0.2664 -0.2454 -0.4522
11892TIP3   OH257090   3.532   3.140   2.263 -0.2299 -0.3228  0.0588
11892TIP3    H157091   3.480   3.090   2.201 -1.6539 -0.5920  1.4118
11892TIP3    H257092   3.601   3.180   2.209 -2.2856  0.7385 -1.9901
11893TIP3   OH257093   0.373   6.695   2.435  0.2786  0.0367  0.0083
11893TIP3    H157094   0.322   6.771   2.461  1.8443  0.6458  1.4681
11893TIP3    H257095   0.463   6.727   2.429  1.3617 -2.0299  2.7662
11894TIP3   OH257096   2.643   5.169  12.926 -0.7730 -0.1359  0.6035
11894TIP3    H157097   2.619   5.155  12.835  1.8438 -1.3846  0.0287
11894TIP3    H257098   2.584   5.112  12.975 -1.6787 -0.0460 -0.3542
11895TIP3   OH257099   6.287   1.052  11.706 -0.9990 -0.2032 -0.4846
11895TIP3    H157100   6.233   1.048  11.627 -0.5612  0.6144 -0.8502
11895TIP3    H257101   6.333   0.968  11.709  0.4532  0.4666 -2.2046
11896TIP3   OH257102   4.415   2.012   0.881 -0.3483  0.0029 -0.2544
11896TIP3    H157103   4.425   2.020   0.786 -0.1972  0.1385 -0.2288
11896TIP3    H257104   4.442   1.923   0.901 -1.6134 -0.4491 -0.4920
11897TIP3   OH257105   2.946   6.150   1.421  0.3691 -0.4429  0.6395
11897TIP3    H157106   2.939   6.175   1.329 -1.4238 -0.8522  0.6191
11897TIP3    H257107   2.986   6.063   1.419  0.8964 -0.1947  0.2880
11898TIP3   OH257108   1.207   0.826   0.261 -0.5551  0.3305 -0.0654
11898TIP3    H157109   1.182   0.918   0.272 -1.5952  0.2040 -1.2044
11898TIP3    H257110   1.144   0.778   0.314 -1.2429  0.1638 -1.0145
11899TIP3   OH257111   4.372   4.569   5.907 -0.2853 -0.0551  0.5083
11899TIP3    H157112   4.360   4.485   5.864 -1.2137 -0.7661  2.0588
11899TIP3    H257113   4.466   4.575   5.924 -0.1598 -0.5824  0.0250
11900TIP3   OH257114   4.590   4.783  11.521 -0.9152 -0.1672 -0.3364
11900TIP3    H157115   4.685   4.782  11.532 -1.0252 -1.0414  0.7178
11900TIP3    H257116   4.575   4.837  11.444  0.3453  1.3686  0.4406
11901TIP3   OH257117   2.767   2.994  15.184  0.0896  0.0536 -0.3121
11901TIP3    H157118   2.836   2.932  15.161  0.5100  0.3333  0.1581
11901TIP3    H257119   2.803   3.042  15.259 -0.3023  0.7407 -0.5569
11902TIP3   OH257120   1.213   0.784  16.082  0.3216  0.0845  0.5458
11902TIP3    H157121   1.307   0.767  16.079  0.6478  1.7443 -0.2373
11902TIP3    H257122   1.204   0.852  16.148 -0.4424 -0.6455  1.1958
11903TIP3   OH257123   6.335   6.183  14.938 -0.2803 -0.1915 -0.1596
11903TIP3    H157124   6.280   6.241  14.887  0.4856  0.3129 -0.4199
11903TIP3    H257125   6.418   6.180  14.891  1.7064  2.9514  2.6526
11904TIP3   OH257126   1.807   6.087  13.202  0.4053  0.2104  0.2516
11904TIP3    H157127   1.766   6.099  13.117 -0.6829  0.1581  0.7502
11904TIP3    H257128   1.770   6.158  13.256 -1.1139 -1.4168  1.4540
11905TIP3   OH257129   2.602   0.433   0.026  0.2053  0.1892  0.2066
11905TIP3    H157130   2.584   0.340   0.010 -0.1552  0.2292  0.3724
11905TIP3    H257131   2.524   0.465   0.073  0.0928  0.7023 -0.3208
11906TIP3   OH257132   5.187   2.914  15.633  0.6583 -0.2753 -0.1431
11906TIP3    H157133   5.124   2.844  15.647 -0.4899  0.6633 -0.4663
11906TIP3    H257134   5.239   2.917  15.713  1.2217 -1.9709 -0.4231
11907TIP3   OH257135   3.576   5.393   2.918 -0.0183  0.2273  0.2943
11907TIP3    H157136   3.626   5.458   2.869  0.8094 -0.2634  0.4816
11907TIP3    H257137   3.629   5.374   2.995  0.4703 -1.7554 -0.4743
11908TIP3   OH257138   0.254   6.479  16.930  0.5051 -0.0899  0.0285
11908TIP3    H157139   0.241   6.472  16.835 -0.0928  0.5235  0.0571
11908TIP3    H257140   0.181   6.534  16.959  1.9874  1.7016  0.5293
11909TIP3   OH257141   1.673   5.771   4.601 -0.3213 -0.2529 -0.6719
11909TIP3    H157142   1.718   5.831   4.540  0.8570  0.2755  0.6622
11909TIP3    H257143   1.589   5.754   4.559  0.1952  0.5918 -2.1497
11910TIP3   OH257144   6.480   1.484  15.087 -0.4514 -0.3005  0.5588
11910TIP3    H157145   6.519   1.444  15.164  1.7942 -3.1417 -1.8495
11910TIP3    H257146   6.553   1.499  15.028 -2.1966  0.8466 -1.4490
11911TIP3   OH257147   0.964   6.202  12.970  0.5310  0.2183  0.3923
11911TIP3    H157148   0.943   6.157  13.052  0.4598  0.3152  0.4271
11911TIP3    H257149   0.880   6.206  12.923  0.4129  0.8364  0.6455
11912TIP3   OH257150   4.486   4.950  14.194  0.3919  0.7175  0.2937
11912TIP3    H157151   4.524   4.863  14.208  1.2659  0.7801 -1.3984
11912TIP3    H257152   4.420   4.937  14.127 -3.2406  0.5157  3.5509
11913TIP3   OH257153   6.482   1.742   0.848 -0.5028  0.0235  0.0899
11913TIP3    H157154   6.572   1.745   0.814 -0.3399 -0.2554  0.4984
11913TIP3    H257155   6.470   1.827   0.889 -0.5350  0.1804 -0.2381
11914TIP3   OH257156   2.553   4.203   3.316 -0.8163  0.0807  0.6633
11914TIP3    H157157   2.526   4.154   3.238  0.4810  0.1007  0.1790
11914TIP3    H257158   2.641   4.171   3.335 -0.1556  1.8117  0.6869
11915TIP3   OH257159   4.256   5.428  11.919 -0.9368  0.3466 -0.4287
11915TIP3    H157160   4.164   5.404  11.918 -0.5854 -1.1838  0.5366
11915TIP3    H257161   4.299   5.362  11.864 -0.4236  1.1611 -1.0362
11916TIP3   OH257162   1.671   3.718  13.557  0.7857 -0.1261 -0.1130
11916TIP3    H157163   1.741   3.658  13.582 -2.3666 -3.5232  1.4766
11916TIP3    H257164   1.631   3.744  13.639 -0.4517  0.9091 -1.0089
11917TIP3   OH257165   3.369   1.256  15.319 -0.3772 -0.1169 -0.4955
11917TIP3    H157166   3.335   1.207  15.244  1.3933 -0.8606 -0.8791
11917TIP3    H257167   3.365   1.194  15.392 -1.1540  0.2705 -0.2007
11918TIP3   OH257168   0.172   1.276   3.582 -0.8933  0.2894 -0.0221
11918TIP3    H157169   0.259   1.239   3.570 -1.4689 -0.4536 -2.5225
11918TIP3    H257170   0.145   1.246   3.669  0.5434 -1.1810 -0.0395
11919TIP3   OH257171   5.026   2.842   1.771  0.4218 -0.0167  0.1091
11919TIP3    H157172   5.024   2.792   1.689  0.7382 -0.1759  0.1946
11919TIP3    H257173   4.935   2.850   1.797  0.3078  0.1764 -0.3444
11920TIP3   OH257174   6.511   6.725  15.602  0.4693  0.1948  0.1749
11920TIP3    H157175   6.456   6.785  15.552 -1.6560 -3.0230 -1.7605
11920TIP3    H257176   6.584   6.705  15.544  1.5182  1.3105  1.0710
11921TIP3   OH257177   5.674   4.272   5.069  0.1821  0.1991 -0.1255
11921TIP3    H157178   5.618   4.227   5.132 -1.7657  2.6415  0.0506
11921TIP3    H257179   5.763   4.257   5.102 -0.5119 -1.5902  1.1123
11922TIP3   OH257180   5.250   3.274  11.927  0.2250 -0.2074 -0.3397
11922TIP3    H157181   5.338   3.309  11.923 -0.3702  1.2515 -1.5621
11922TIP3    H257182   5.233   3.240  11.839 -0.0583 -1.4979  0.1845
11923TIP3   OH257183   3.866   1.016  11.278  0.7887 -0.0643  0.2615
11923TIP3    H157184   3.902   0.959  11.346  3.5626  0.8927 -0.2572
11923TIP3    H257185   3.833   0.957  11.211  1.8493 -1.0571  0.5909
11924TIP3   OH257186   3.265   1.822   2.743  0.8259 -0.1238  0.5506
11924TIP3    H157187   3.327   1.791   2.678  0.9777 -1.8822  1.4796
11924TIP3    H257188   3.227   1.742   2.780 -2.7923  0.8139 -0.6915
11925TIP3   OH257189   4.625   6.674  12.101 -0.2842  0.0624 -0.2829
11925TIP3    H157190   4.603   6.652  12.191  0.5228 -0.0159 -0.0946
11925TIP3    H257191   4.543   6.664  12.053 -0.8012  0.4566  0.5026
11926TIP3   OH257192   4.071   4.155   5.321  0.1064 -0.0178  0.3193
11926TIP3    H157193   4.115   4.198   5.248  0.6480 -0.9258  0.0907
11926TIP3    H257194   4.135   4.091   5.353 -0.4799 -0.2871  0.9767
11927TIP3   OH257195   5.734   1.727  13.451 -0.2517 -0.4348 -0.0695
11927TIP3    H157196   5.813   1.782  13.455 -0.3505 -0.3212  0.3720
11927TIP3    H257197   5.703   1.724  13.541 -0.0095 -1.5620 -0.0069
11928TIP3   OH257198   2.107   6.533  13.042  0.5584 -0.2028  0.6629
11928TIP3    H157199   2.147   6.603  12.991  0.3584  1.1826  2.2940
11928TIP3    H257200   2.181   6.479  13.071  0.9509  0.5085  1.0281
11929TIP3   OH257201   2.140   0.241   3.530 -0.4131 -0.3986 -0.1074
11929TIP3    H157202   2.217   0.297   3.525  1.5026 -2.7660  0.8268
11929TIP3    H257203   2.131   0.221   3.623 -2.5178  0.2424 -0.1347
11930TIP3   OH257204   0.784   3.218   1.491  0.0932 -0.4610  0.3917
11930TIP3    H157205   0.714   3.160   1.523 -0.3205 -0.0008  0.3359
11930TIP3    H257206   0.750   3.306   1.505  0.0460 -0.2418 -1.0110
11931TIP3   OH257207   2.555   1.223  11.295 -0.1051 -0.4133 -0.8053
11931TIP3    H157208   2.612   1.227  11.219  2.4351  0.8200  1.0141
11931TIP3    H257209   2.574   1.139  11.335  3.1057  1.1857  1.5207
11932TIP3   OH257210   4.560   0.775   4.443  0.0471  0.3341 -0.4578
11932TIP3    H157211   4.552   0.733   4.528 -2.6428  0.1693 -0.6873
11932TIP3    H257212   4.586   0.865   4.463  2.9310 -0.5660  0.2278
11933TIP3   OH257213   0.718   2.417   5.326 -0.4837 -0.1754 -0.1803
11933TIP3    H157214   0.715   2.370   5.242  1.9797  0.8697 -0.9460
11933TIP3    H257215   0.659   2.368   5.383 -2.0940 -1.0589 -2.4314
11934TIP3   OH257216   3.051   2.272   4.424 -0.5411  0.1619 -0.7275
11934TIP3    H157217   3.039   2.227   4.508 -0.2098 -0.7120 -1.1286
11934TIP3    H257218   3.094   2.207   4.369 -1.1930  0.5542 -1.7252
11935TIP3   OH257219   0.882   4.584   3.550  0.5777 -0.8320 -0.2229
11935TIP3    H157220   0.967   4.542   3.539  1.3677  0.2804  1.2364
11935TIP3    H257221   0.853   4.604   3.462  1.8598 -1.2005 -0.7510
11936TIP3   OH257222   1.920   4.330  12.169  0.0884  0.5624 -0.0752
11936TIP3    H157223   1.895   4.405  12.115  0.5085  1.4829  0.9766
11936TIP3    H257224   2.006   4.354  12.204  0.5882 -0.7508 -0.3321
11937TIP3   OH257225   2.562   6.721  14.875 -0.4931  0.5702 -0.1253
11937TIP3    H157226   2.491   6.746  14.934 -0.0876  1.0078  0.1885
11937TIP3    H257227   2.554   6.626  14.867  0.4241  0.2439  1.9841
11938TIP3   OH257228   3.414   0.789   0.824 -0.3356  0.3643 -0.4621
11938TIP3    H157229   3.401   0.821   0.913 -2.1420 -0.7721 -0.2590
11938TIP3    H257230   3.360   0.846   0.769  0.2106  0.6157 -0.7491
11939TIP3   OH257231   1.886   6.648   0.710 -0.2742 -0.2689  0.6193
11939TIP3    H157232   1.862   6.741   0.715 -0.9064 -0.4317  0.8096
11939TIP3    H257233   1.802   6.603   0.705  0.0699 -0.7522 -1.1594
11940TIP3   OH257234   5.772   2.587   2.001  0.1796 -0.1527 -0.1641
11940TIP3    H157235   5.791   2.496   1.981  0.8538 -0.4135  1.5320
11940TIP3    H257236   5.686   2.585   2.042 -0.1220  0.0731 -0.7758
11941TIP3   OH257237   5.522   3.916   4.643 -0.2985 -0.0428 -0.9754
11941TIP3    H157238   5.521   3.820   4.634 -0.6481 -0.0664 -0.7195
11941TIP3    H257239   5.506   3.932   4.736  0.0005  0.2609 -0.9754
11942TIP3   OH257240   4.570   3.283  14.672  0.4591 -0.0509  0.5488
11942TIP3    H157241   4.614   3.345  14.730 -0.9458  0.3055  1.2802
11942TIP3    H257242   4.558   3.331  14.590 -1.0456  0.8671  1.2621
11943TIP3   OH257243   3.163   0.836   4.394 -0.0364  0.8187 -0.4012
11943TIP3    H157244   3.216   0.851   4.472  1.3388  0.4305 -1.2226
11943TIP3    H257245   3.224   0.800   4.330 -1.4613 -0.4087 -1.1413
11944TIP3   OH257246   1.095   6.637  14.748 -0.3378 -0.7556 -0.3896
11944TIP3    H157247   1.142   6.562  14.711 -0.0353  0.1665 -1.9971
11944TIP3    H257248   1.041   6.669  14.676  1.5000  2.1221 -0.6322
11945TIP3   OH257249   3.030   5.283  13.218  0.8914 -0.1388  0.1037
11945TIP3    H157250   3.091   5.283  13.144  1.2102 -1.6487  0.3531
11945TIP3    H257251   3.003   5.192  13.227 -1.2353  0.4428  0.1516
11946TIP3   OH257252   2.071   5.359   1.260  0.2954  0.2369 -0.1049
11946TIP3    H157253   2.142   5.295   1.250  2.6915  2.4395  1.3892
11946TIP3    H257254   2.016   5.323   1.329  1.9122 -0.0311  1.1195
11947TIP3   OH257255   2.609   3.545  12.131 -0.0225  0.0043  0.4942
11947TIP3    H157256   2.548   3.557  12.059 -0.5030  0.0584  0.9075
11947TIP3    H257257   2.555   3.514  12.204  0.3983  0.3240  0.9472
11948TIP3   OH257258   3.410   1.105   4.323  0.1054  0.0797  0.3730
11948TIP3    H157259   3.456   1.065   4.396 -1.0249  0.1550  1.1593
11948TIP3    H257260   3.456   1.188   4.308  2.7056 -1.5559 -1.5249
11949TIP3   OH257261   2.733   2.001   9.817 -0.4734  0.4833 -0.0775
11949TIP3    H157262   2.807   1.944   9.837  0.6578  1.3803 -1.5453
11949TIP3    H257263   2.657   1.953   9.850  0.8277  0.1539  2.7347
11950TIP3   OH257264   2.821   1.353  16.513 -0.6694 -0.9074  0.2649
11950TIP3    H157265   2.835   1.406  16.434  0.2448 -0.7786  0.5073
11950TIP3    H257266   2.726   1.354  16.526 -0.6667  0.7789  0.3388
11951TIP3   OH257267   0.953   0.762  15.934 -0.0512 -0.5265  0.0211
11951TIP3    H157268   0.868   0.747  15.894  0.4143  0.0304 -1.2433
11951TIP3    H257269   0.933   0.788  16.024 -1.2121 -0.3375 -0.2755
11952TIP3   OH257270   3.686   4.308   2.125  0.0916 -0.2488  0.2293
11952TIP3    H157271   3.703   4.322   2.218  0.0120 -1.1443  0.3864
11952TIP3    H257272   3.613   4.246   2.123  1.0668 -1.4248 -0.4117
11953TIP3   OH257273   1.044   2.504  14.381  0.4054  0.3279 -0.3855
11953TIP3    H157274   1.018   2.467  14.465  0.8563 -0.1123 -0.4373
11953TIP3    H257275   1.103   2.576  14.403  1.0459 -0.1991 -0.3337
11954TIP3   OH257276   4.140   5.627  16.339  0.7184  0.1274  0.9871
11954TIP3    H157277   4.195   5.703  16.321  0.0771  0.4955  0.5213
11954TIP3    H257278   4.071   5.632  16.272  0.7668 -0.9575  0.8483
11955TIP3   OH257279   0.683   2.955  14.498  0.2935  0.7822  0.2077
11955TIP3    H157280   0.591   2.947  14.525  0.8702  0.8917  2.3461
11955TIP3    H257281   0.728   2.885  14.545  1.3254  0.7431 -0.8024
11956TIP3   OH257282   0.519   1.093  17.075 -0.2373 -0.2080  0.3194
11956TIP3    H157283   0.578   1.090  17.151 -0.6772  1.1729  0.7430
11956TIP3    H257284   0.572   1.062  17.002 -0.3608 -3.5869  1.4700
11957TIP3   OH257285   4.657   4.405   6.236 -0.4084  0.2869 -0.5785
11957TIP3    H157286   4.705   4.438   6.312 -1.6216  1.5391 -0.3129
11957TIP3    H257287   4.670   4.472   6.169  2.5323 -1.8293 -2.3579
11958TIP3   OH257288   3.168   2.041  12.915  0.2136  0.1764 -0.6289
11958TIP3    H157289   3.147   1.971  12.853  0.4294  0.2626 -0.7992
11958TIP3    H257290   3.119   2.117  12.883 -1.2900 -0.2869  0.4401
11959TIP3   OH257291   3.733   4.102  14.223  0.2145 -0.3948  0.1855
11959TIP3    H157292   3.719   4.178  14.280  0.5165 -0.5540  0.4721
11959TIP3    H257293   3.659   4.045  14.242 -0.9146  0.5085 -1.1854
11960TIP3   OH257294   4.087   6.707   4.474 -0.0304  0.5533  0.2468
11960TIP3    H157295   4.175   6.733   4.503 -0.0900 -0.6936  1.6910
11960TIP3    H257296   4.102   6.629   4.421 -0.2842  0.1523  0.7610
11961TIP3   OH257297   0.459   6.655   5.877 -0.8354  0.0703 -0.0873
11961TIP3    H157298   0.480   6.747   5.896  1.6654 -0.2493 -1.0421
11961TIP3    H257299   0.365   6.656   5.860 -0.9684  2.3591  0.4077
11962TIP3   OH257300   4.498   3.274  12.452  0.2632 -0.3274 -0.3427
11962TIP3    H157301   4.421   3.227  12.421 -0.1154  1.0175 -1.5466
11962TIP3    H257302   4.548   3.294  12.373  2.3569 -1.9438  0.4860
11963TIP3   OH257303   1.500   6.701   2.911  0.6109  0.1516 -0.2373
11963TIP3    H157304   1.587   6.741   2.918 -0.3051  2.1633  0.4933
11963TIP3    H257305   1.443   6.773   2.884 -1.1727 -0.5831  1.3297
11964TIP3   OH257306   3.636   0.862   5.978  0.3242 -0.0756 -0.3207
11964TIP3    H157307   3.639   0.938   6.036  1.1042  0.1534 -0.6440
11964TIP3    H257308   3.663   0.789   6.033 -3.0509 -0.6558  0.7347
11965TIP3   OH257309   2.980   5.810   6.042  0.0998  0.4391  0.7185
11965TIP3    H157310   2.884   5.806   6.039  0.1668 -1.0113 -0.8444
11965TIP3    H257311   3.003   5.777   6.129 -0.8232  2.5693  1.8579
11966TIP3   OH257312   2.543   0.273   4.622  0.0410  0.2814 -0.5977
11966TIP3    H157313   2.490   0.322   4.685  1.0930  1.6480 -0.7432
11966TIP3    H257314   2.508   0.184   4.626 -1.8697  0.9950 -0.2588
11967TIP3   OH257315   5.343   2.987  10.813  0.2099  0.2565 -0.2812
11967TIP3    H157316   5.435   2.960  10.823 -0.2047 -1.4034 -0.6218
11967TIP3    H257317   5.348   3.081  10.796  1.7898  0.3798  0.5843
11968TIP3   OH257318   2.487   4.776   2.427 -0.7537  0.2230 -0.1072
11968TIP3    H157319   2.504   4.705   2.365  0.2538  0.0218  0.3784
11968TIP3    H257320   2.444   4.844   2.375 -2.9250 -1.2087 -0.3232
11969TIP3   OH257321   5.445   5.526  16.585 -0.2304 -0.9508 -0.4806
11969TIP3    H157322   5.516   5.554  16.642 -1.0921 -0.5428  0.4037
11969TIP3    H257323   5.482   5.534  16.496  0.3755  0.5628 -0.1206
11970TIP3   OH257324   3.996   6.264   1.538 -0.0854 -0.1958  0.3382
11970TIP3    H157325   3.966   6.269   1.629 -0.0505 -0.0908  0.3433
11970TIP3    H257326   3.936   6.321   1.490 -0.3850 -0.6033  0.2251
11971TIP3   OH257327   2.013   0.868  13.965 -0.0450 -0.1624 -0.2460
11971TIP3    H157328   1.966   0.861  14.048  1.4780  0.9664  0.7552
11971TIP3    H257329   2.098   0.827  13.982  0.6351  0.9042 -0.9467
11972TIP3   OH257330   5.952   4.765   2.512 -0.3485  1.0139 -0.0488
11972TIP3    H157331   5.891   4.786   2.442 -0.2332  2.3772  0.2364
11972TIP3    H257332   5.918   4.810   2.589 -0.2432 -0.1227  0.6835
11973TIP3   OH257333   3.613   3.848  16.488 -0.3007 -0.3008  0.6460
11973TIP3    H157334   3.619   3.943  16.482  2.2609 -0.3988  0.2930
11973TIP3    H257335   3.693   3.816  16.446 -0.7880 -2.5954  1.2961
11974TIP3   OH257336   0.135   4.444  14.780 -0.1714  0.0583  0.5727
11974TIP3    H157337   0.084   4.490  14.847  0.7763  1.9542  0.0831
11974TIP3    H257338   0.224   4.479  14.790  0.1533 -0.1938 -1.1702
11975TIP3   OH257339   2.519   1.744  12.425  0.3018  0.6691  0.4028
11975TIP3    H157340   2.601   1.753  12.474  1.5115  0.0456 -1.3886
11975TIP3    H257341   2.524   1.812  12.358 -0.4490  0.3392 -0.0007
11976TIP3   OH257342   6.730   2.514   3.300 -0.2277 -0.5260 -0.0480
11976TIP3    H157343   6.728   2.421   3.322 -2.8985 -1.2541 -2.7764
11976TIP3    H257344   6.754   2.516   3.207 -2.5792  1.2644 -0.7038
11977TIP3   OH257345   1.058   3.641  16.795  0.0933 -0.0295 -0.0351
11977TIP3    H157346   1.049   3.567  16.855  0.3627 -0.5039 -0.5696
11977TIP3    H257347   1.086   3.602  16.712  0.4751  0.6917 -0.2610
11978TIP3   OH257348   4.328   4.675  16.101 -0.1323 -0.1308 -0.2095
11978TIP3    H157349   4.328   4.667  16.197  1.7409  1.3312 -0.0124
11978TIP3    H257350   4.365   4.592  16.070 -0.5583 -0.5369  0.3532
11979TIP3   OH257351   2.540   2.129  14.588  0.2648  0.0370  0.4320
11979TIP3    H157352   2.544   2.136  14.684  0.6916  0.0499  0.4164
11979TIP3    H257353   2.626   2.095  14.563  0.3357  0.5125  0.0119
11980TIP3   OH257354   2.919   2.577   1.786  0.8872  0.1993  0.1840
11980TIP3    H157355   2.890   2.627   1.709  0.1957  0.8365  0.8409
11980TIP3    H257356   2.990   2.522   1.753  0.2144  0.0210 -1.0481
11981TIP3   OH257357   0.685   5.351  16.376 -0.0467 -0.2977 -0.3502
11981TIP3    H157358   0.730   5.328  16.457  0.2888 -0.2994 -0.5375
11981TIP3    H257359   0.645   5.269  16.346 -0.1514 -0.3013 -0.2010
11982TIP3   OH257360   3.805   3.795   5.640  0.1037  0.0577 -0.1636
11982TIP3    H157361   3.727   3.801   5.585  1.8000 -1.0863 -2.9279
11982TIP3    H257362   3.798   3.710   5.683 -0.1532 -0.0511 -0.4167
11983TIP3   OH257363   3.610   1.637  15.315  0.6663  0.4503 -0.2679
11983TIP3    H157364   3.557   1.618  15.393  1.2927  0.3844  0.1440
11983TIP3    H257365   3.613   1.733  15.311 -0.0549  0.4703 -0.6944
11984TIP3   OH257366   3.951   5.411   0.692 -0.2615  0.1114 -0.7454
11984TIP3    H157367   3.862   5.430   0.664  0.0841  1.4758 -0.9646
11984TIP3    H257368   3.944   5.392   0.785 -0.6434  1.3700 -0.5023
11985TIP3   OH257369   5.662   0.304   1.072  0.0290 -0.8075 -0.2671
11985TIP3    H157370   5.573   0.271   1.061 -0.2332  0.3336 -1.8543
11985TIP3    H257371   5.663   0.341   1.160 -0.6795 -1.9151  0.2378
11986TIP3   OH257372   3.909   1.428   0.428 -0.1860 -0.1574 -0.5293
11986TIP3    H157373   3.985   1.484   0.413  1.0945 -1.5100  0.5064
11986TIP3    H257374   3.847   1.452   0.360  0.9307  1.4081 -1.0505
11987TIP3   OH257375   6.502   2.269  16.815  0.5493 -0.4542  0.0076
11987TIP3    H157376   6.470   2.288  16.903 -1.5898  0.8036 -0.9852
11987TIP3    H257377   6.471   2.180  16.796  0.0210 -0.2867  0.0922
11988TIP3   OH257378   6.069   2.328   1.683  0.0292  0.5575  0.2322
11988TIP3    H157379   6.116   2.259   1.728 -1.6566  0.5866  2.2280
11988TIP3    H257380   6.049   2.292   1.597  0.8002 -0.6906  0.5518
11989TIP3   OH257381   5.790   5.958   2.992  0.2064  0.1448 -0.1907
11989TIP3    H157382   5.748   6.037   2.959 -1.4996 -0.2244  0.9531
11989TIP3    H257383   5.737   5.886   2.957  0.3011 -0.3734  0.6832
11990TIP3   OH257384   5.239   6.740   5.159  0.2559  0.0415  0.0108
11990TIP3    H157385   5.230   6.835   5.159 -1.5261 -0.0948  0.3767
11990TIP3    H257386   5.231   6.716   5.066 -1.1715  0.1280  0.0911
11991TIP3   OH257387   4.859   3.409   3.323 -0.0487  0.2290  0.2638
11991TIP3    H157388   4.888   3.327   3.284 -1.5180  0.0687 -0.5723
11991TIP3    H257389   4.920   3.475   3.290 -1.0652  0.0563 -2.1573
11992TIP3   OH257390   0.523   3.567   2.060  0.1991  0.8459 -0.3375
11992TIP3    H157391   0.557   3.653   2.035  1.8484  0.2076 -0.4370
11992TIP3    H257392   0.596   3.525   2.105 -0.0361 -1.0866 -1.6472
11993TIP3   OH257393   6.208   3.420   6.474 -0.1940 -0.4567 -0.0469
11993TIP3    H157394   6.154   3.439   6.397  0.4489 -1.0406 -0.6629
11993TIP3    H257395   6.279   3.484   6.471 -0.0354 -0.6301 -0.0879
11994TIP3   OH257396   1.214   2.565  13.025 -0.0061  0.6095  0.2099
11994TIP3    H157397   1.261   2.592  12.946  2.2620 -0.9623  0.9318
11994TIP3    H257398   1.134   2.524  12.992  0.2974  1.1000 -1.2102
11995TIP3   OH257399   0.745   6.546  16.371 -0.3913 -0.3086 -0.0135
11995TIP3    H157400   0.748   6.483  16.299  0.8703 -0.8722  0.5061
11995TIP3    H257401   0.673   6.516  16.427 -0.7151 -0.4572 -0.5070
11996TIP3   OH257402   2.782   5.971   2.677 -0.1769 -0.0350  0.9034
11996TIP3    H157403   2.762   5.879   2.660  1.7255 -0.4252  0.4931
11996TIP3    H257404   2.878   5.975   2.678 -0.1207  2.2898 -1.2448
11997TIP3   OH257405   1.604   4.931  14.686 -0.3293 -0.6228 -0.1238
11997TIP3    H157406   1.566   4.871  14.751 -0.0485 -0.7596 -0.0842
11997TIP3    H257407   1.653   4.875  14.627  0.2549 -0.3906  0.1390
11998TIP3   OH257408   5.408   6.022   5.442 -0.0975  0.1642  0.3243
11998TIP3    H157409   5.488   6.070   5.420 -1.0769  1.5470 -0.3700
11998TIP3    H257410   5.407   6.020   5.538 -0.3563  2.1896  0.4132
11999TIP3   OH257411   0.301   5.271   1.316  0.1446  0.4905 -0.3845
11999TIP3    H157412   0.266   5.185   1.292 -0.5569  0.0811  1.8136
11999TIP3    H257413   0.386   5.275   1.272 -0.4787 -0.6636 -1.7745
12000TIP3   OH257414   4.911   3.154   2.724  0.0315  0.6199 -0.4961
12000TIP3    H157415   4.912   3.059   2.710 -0.1379  0.4692  0.4701
12000TIP3    H257416   4.818   3.177   2.725  0.0092  0.5191  1.0140
12001TIP3   OH257417   5.352   2.880   6.384  0.0344 -0.1239 -0.2165
12001TIP3    H157418   5.275   2.923   6.346  1.1864  2.4640  0.1642
12001TIP3    H257419   5.368   2.928   6.465  2.0850 -0.5477 -0.3329
12002TIP3   OH257420   2.899   1.787  16.543  0.0081  0.2652  0.3156
12002TIP3    H157421   2.818   1.737  16.532  0.1105 -0.1060  1.1217
12002TIP3    H257422   2.967   1.720  16.549  0.7190  0.5922 -2.5106
12003TIP3   OH257423   5.452   0.176   2.435  0.8533  0.0635  0.2843
12003TIP3    H157424   5.401   0.255   2.416  0.3296 -0.1802  0.6604
12003TIP3    H257425   5.521   0.175   2.369  3.2487  2.9107  2.4402
12004TIP3   OH257426   1.568   4.056  11.617  0.0345 -0.1217 -0.0113
12004TIP3    H157427   1.561   4.139  11.665  0.1109  0.3365 -0.7733
12004TIP3    H257428   1.479   4.021  11.617  0.4201 -1.3194  2.4867
12005TIP3   OH257429   3.052   6.716  11.638 -0.0234 -0.0156  0.3487
12005TIP3    H157430   3.126   6.773  11.617 -0.0484 -0.4352 -0.9628
12005TIP3    H257431   2.983   6.743  11.578 -0.9096  0.2707  1.4596
12006TIP3   OH257432   5.235   5.354   3.109  0.7109 -0.1944  0.4702
12006TIP3    H157433   5.205   5.382   3.196  1.3480  0.1011  0.6008
12006TIP3    H257434   5.262   5.435   3.066 -0.6393 -0.1857 -0.4341
12007TIP3   OH257435   3.469   4.851   1.929 -0.2937  0.1479  0.3460
12007TIP3    H157436   3.386   4.878   1.967 -0.0495 -0.1843  1.1370
12007TIP3    H257437   3.452   4.844   1.835 -0.8035  1.3590  0.3325
12008TIP3   OH257438   1.926   0.403   6.040  0.3868 -0.6173  0.3326
12008TIP3    H157439   1.864   0.423   6.110  0.0947  0.2609 -0.1587
12008TIP3    H257440   2.010   0.436   6.071  0.0626  0.7009 -0.1322
12009TIP3   OH257441   5.074   4.522  17.150 -0.2201 -0.0308  0.0541
12009TIP3    H157442   5.118   4.552  17.229  0.3612  3.2430 -1.3490
12009TIP3    H257443   5.016   4.594  17.125 -0.8683 -1.2116 -2.1236
12010TIP3   OH257444   5.075   2.015   0.680  0.2457 -0.3804 -0.2900
12010TIP3    H157445   5.035   1.950   0.738 -0.2023 -0.0322 -0.2039
12010TIP3    H257446   5.001   2.052   0.630  0.5765 -0.4047 -0.8111
12011TIP3   OH257447   5.252   1.777  11.581 -0.8601 -0.2900  0.5830
12011TIP3    H157448   5.312   1.844  11.613  0.4076 -0.9989 -0.2271
12011TIP3    H257449   5.195   1.823  11.520  0.0696  0.0526 -0.0519
12012TIP3   OH257450   1.418   6.074  12.261  0.1044  0.0260 -0.2413
12012TIP3    H157451   1.467   6.065  12.343 -1.7701 -1.6992  0.7842
12012TIP3    H257452   1.433   5.991  12.215  2.2008  1.4637 -2.3708
12013TIP3   OH257453   0.930   2.788  16.577 -0.1888  0.0280  0.0054
12013TIP3    H157454   0.995   2.817  16.641  0.7460  0.2175 -1.0060
12013TIP3    H257455   0.890   2.710  16.617 -0.3079  0.6885  1.2248
12014TIP3   OH257456   2.445   5.434  15.474 -0.0964  0.3097  0.2970
12014TIP3    H157457   2.363   5.451  15.520 -0.2858 -0.8269  0.4107
12014TIP3    H257458   2.492   5.517  15.477 -1.0091  0.8251  0.7040
12015TIP3   OH257459   5.760   4.699  11.198  0.0794  0.4993  0.2141
12015TIP3    H157460   5.831   4.643  11.228  1.6044  0.2811 -3.3139
12015TIP3    H257461   5.757   4.770  11.262  2.9149  0.0654  0.9763
12016TIP3   OH257462   4.845   2.382  14.923 -0.2401 -0.7649  0.3531
12016TIP3    H157463   4.868   2.454  14.981  1.1498 -0.2985 -0.7337
12016TIP3    H257464   4.875   2.410  14.836 -2.4587 -1.3293 -0.6748
12017TIP3   OH257465   0.237   2.927   2.536 -0.7147  0.1623 -0.1493
12017TIP3    H157466   0.151   2.901   2.502 -0.9792  0.3263  0.3928
12017TIP3    H257467   0.251   3.015   2.502 -0.6536  0.0488 -0.4265
12018TIP3   OH257468   3.118   6.442   1.421  0.3187  0.0619  0.1319
12018TIP3    H157469   3.041   6.391   1.444  0.9638 -0.6076  0.9007
12018TIP3    H257470   3.157   6.466   1.505  0.4026  1.2722 -0.2259
12019TIP3   OH257471   4.919   5.783  15.609 -0.3234 -0.3664 -0.1152
12019TIP3    H157472   4.945   5.728  15.536 -0.2061 -1.4273  0.6991
12019TIP3    H257473   4.826   5.767  15.620  0.2494 -2.8551  2.0451
12020TIP3   OH257474   3.700   5.128  10.943 -0.0139 -0.2871 -0.4049
12020TIP3    H157475   3.723   5.035  10.942 -0.3583 -0.4679  2.4198
12020TIP3    H257476   3.780   5.173  10.914  0.5595 -1.3754 -0.5415
12021TIP3   OH257477   6.031   0.023  11.560 -0.1912  0.1033  0.1262
12021TIP3    H157478   6.113   0.060  11.592 -0.5138  0.7483  0.2194
12021TIP3    H257479   5.971   0.097  11.559 -1.0654 -0.5758  1.0385
12022TIP3   OH257480   2.624   3.253   2.903 -0.2014 -0.2240 -0.1443
12022TIP3    H157481   2.611   3.198   2.980  1.8732 -0.6594 -0.0584
12022TIP3    H257482   2.655   3.337   2.938 -2.0108  0.5956 -0.3682
12023TIP3   OH257483   4.554   3.210  15.249  0.9992 -0.0211 -0.3181
12023TIP3    H157484   4.503   3.130  15.259  0.6052  0.3593  0.8693
12023TIP3    H257485   4.578   3.212  15.156 -2.2956  0.4738 -1.3087
12024TIP3   OH257486   3.935   5.498   1.455 -0.0145  0.0435 -0.2048
12024TIP3    H157487   3.974   5.413   1.472 -2.2131 -1.0785 -0.3869
12024TIP3    H257488   3.848   5.478   1.421 -1.5081  2.3152  1.9004
12025TIP3   OH257489   3.381   2.737  11.702  0.0316 -0.4001 -0.2360
12025TIP3    H157490   3.462   2.787  11.709 -0.5916  0.4731  1.1373
12025TIP3    H257491   3.367   2.701  11.789 -1.4552  0.1212 -0.2370
12026TIP3   OH257492   5.144   1.509   1.963 -0.1656 -0.1074 -0.8733
12026TIP3    H157493   5.163   1.484   1.873  1.7004 -1.4276 -0.1985
12026TIP3    H257494   5.157   1.428   2.013  0.6837  0.9765  0.7724
12027TIP3   OH257495   2.205   3.503   3.070 -0.1492 -0.1648 -0.1300
12027TIP3    H157496   2.272   3.515   3.003 -0.3855  2.7348  0.0469
12027TIP3    H257497   2.198   3.408   3.080  0.8895 -0.6602 -3.1554
12028TIP3   OH257498   4.550   5.517   3.907 -0.5043  0.2081 -0.2753
12028TIP3    H157499   4.641   5.487   3.911 -0.5338  0.1967  1.7089
12028TIP3    H257500   4.519   5.492   3.820  1.2071 -0.3166 -0.7656
12029TIP3   OH257501   1.138   3.545  16.550  0.4225 -0.4634 -0.4968
12029TIP3    H157502   1.096   3.579  16.470  0.4774  2.3815  0.6018
12029TIP3    H257503   1.229   3.530  16.524  0.4343  0.3898 -0.9803
12030TIP3   OH257504   1.535   3.884  10.442 -0.1878  0.5998  0.2245
12030TIP3    H157505   1.551   3.829  10.518  0.1364 -0.5443 -0.6418
12030TIP3    H257506   1.622   3.908  10.411 -0.3117  0.8390  0.0598
12031TIP3   OH257507   0.704   5.194  14.241 -0.0958  0.1917  0.3701
12031TIP3    H157508   0.671   5.159  14.324  1.1579  1.5214  1.4900
12031TIP3    H257509   0.647   5.268  14.221 -0.4806 -0.2109 -0.0351
12032TIP3   OH257510   6.021   1.702  16.438  0.5005 -0.1278  0.2923
12032TIP3    H157511   6.002   1.691  16.345  0.9452  1.6210 -0.0466
12032TIP3    H257512   6.054   1.617  16.466 -0.8706 -1.0758 -0.8183
12033TIP3   OH257513   2.148   3.486   0.243  0.0415 -0.1640 -0.1588
12033TIP3    H157514   2.210   3.546   0.202  1.4145 -1.4310 -0.0181
12033TIP3    H257515   2.142   3.516   0.334  0.3429  0.0393 -0.2048
12034TIP3   OH257516   5.115   1.767   4.202  0.2321 -0.3199  0.3585
12034TIP3    H157517   5.185   1.823   4.170 -1.5017  0.2264 -2.9016
12034TIP3    H257518   5.069   1.820   4.267  0.2449  1.0565 -0.7166
12035TIP3   OH257519   0.838   1.372   1.337 -0.2926  0.2549  0.8518
12035TIP3    H157520   0.927   1.384   1.371 -0.8821 -0.0201  2.6152
12035TIP3    H257521   0.816   1.456   1.297  1.1213 -0.0068 -0.5476
12036TIP3   OH257522   4.711   2.637  12.798 -0.1156 -0.3608  0.8636
12036TIP3    H157523   4.652   2.711  12.812 -2.0340 -1.7786  0.6705
12036TIP3    H257524   4.653   2.561  12.789  1.7728 -1.9155  1.1094
12037TIP3   OH257525   2.854   4.229  10.972 -0.6000  0.1455 -0.3001
12037TIP3    H157526   2.915   4.283  11.022 -0.5331  0.9372 -1.2099
12037TIP3    H257527   2.823   4.286  10.902 -1.6369 -0.5544 -0.4430
12038TIP3   OH257528   0.381   5.534   1.317 -0.3110 -0.1934  0.3701
12038TIP3    H157529   0.346   5.447   1.335 -2.8946  0.8330  0.8913
12038TIP3    H257530   0.350   5.587   1.391 -1.0186  1.6685 -1.1730
12039TIP3   OH257531   3.148   5.729  16.915 -0.4711  0.9068  0.1127
12039TIP3    H157532   3.192   5.762  16.836  0.8649 -0.9185  0.0156
12039TIP3    H257533   3.110   5.646  16.887  0.1569  0.1587  1.4219
12040TIP3   OH257534   4.969   3.202   3.894  0.0764  0.3515  0.0966
12040TIP3    H157535   5.038   3.246   3.944 -1.4795  1.3524  1.4800
12040TIP3    H257536   4.893   3.202   3.953 -0.3766 -3.1499 -0.3064
12041TIP3   OH257537   2.998   4.535   0.507  0.0872 -0.4430  0.5522
12041TIP3    H157538   3.071   4.515   0.449 -0.3673  1.1983 -0.6651
12041TIP3    H257539   2.947   4.454   0.512  1.1736 -1.1563  0.2253
12042TIP3   OH257540   0.910   4.333   1.785  0.3404 -0.3296  0.3011
12042TIP3    H157541   0.920   4.362   1.875  1.8822 -1.7753  0.6360
12042TIP3    H257542   0.999   4.320   1.754 -0.0759  1.4012 -1.9004
12043TIP3   OH257543   2.487   4.585  12.923  0.5020 -0.4953 -0.1480
12043TIP3    H157544   2.512   4.668  12.883  0.3211 -1.7996 -3.2575
12043TIP3    H257545   2.441   4.538  12.854 -1.2382 -2.3996  2.1397
12044TIP3   OH257546   2.738   5.326   3.375 -0.7131  0.1020 -0.1101
12044TIP3    H157547   2.725   5.312   3.281 -1.0167 -1.0549  0.0868
12044TIP3    H257548   2.833   5.328   3.386 -0.6345 -1.5283 -0.2299
12045TIP3   OH257549   0.988   0.660   3.885 -0.2052 -0.0975  0.0235
12045TIP3    H157550   0.993   0.699   3.799 -0.9903 -0.6268 -0.2729
12045TIP3    H257551   1.079   0.652   3.913  0.0958 -0.5045 -1.0242
12046TIP3   OH257552   2.733   4.914   5.562 -0.1571  0.3745 -0.8246
12046TIP3    H157553   2.778   4.916   5.477 -0.3805 -0.1467 -0.9579
12046TIP3    H257554   2.674   4.989   5.560  0.1905  0.6484 -0.9339
12047TIP3   OH257555   5.600   0.908  16.566 -0.7267 -0.4256  0.5814
12047TIP3    H157556   5.572   0.999  16.578 -0.3212  0.0477 -1.5620
12047TIP3    H257557   5.534   0.871  16.506 -0.2488 -1.1844  0.5138
12048TIP3   OH257558   3.934   2.224  14.770  0.4285 -0.5029  0.5207
12048TIP3    H157559   3.880   2.185  14.701  1.0162 -0.9378  0.3012
12048TIP3    H257560   4.012   2.170  14.772  1.9609  1.4969 -0.8131
12049TIP3   OH257561   5.607   1.927   1.365 -0.6836  0.2742  0.2942
12049TIP3    H157562   5.641   1.839   1.382 -0.8725  0.2543  0.5653
12049TIP3    H257563   5.675   1.968   1.312  0.0802  0.4599  1.4018
12050TIP3   OH257564   3.961   4.011  16.869 -0.2942 -0.5777  0.1170
12050TIP3    H157565   3.887   3.990  16.927 -0.5931  0.0187 -0.0464
12050TIP3    H257566   4.028   3.947  16.893  0.4397  1.0003  2.7061
12051TIP3   OH257567   3.103   4.356  14.670  0.1069  0.3451  0.8654
12051TIP3    H157568   3.126   4.282  14.614 -0.2989  0.9677 -0.1480
12051TIP3    H257569   3.150   4.339  14.752 -0.7174 -1.5089  1.0111
12052TIP3   OH257570   4.722   4.469   0.665  0.1054  0.4593  0.3471
12052TIP3    H157571   4.654   4.424   0.615 -1.2900  1.9529  0.8199
12052TIP3    H257572   4.728   4.555   0.624 -0.1699  1.2696  1.9262
12053TIP3   OH257573   0.799   0.527   3.149 -0.3830  0.0393 -0.1558
12053TIP3    H157574   0.736   0.498   3.215  0.5112  0.7535  1.0680
12053TIP3    H257575   0.828   0.613   3.180  0.1395  0.3524 -1.4420
12054TIP3   OH257576   5.864   5.804  12.185 -0.8877  0.0924 -0.4346
12054TIP3    H157577   5.908   5.819  12.102  0.6542 -0.6980  0.1968
12054TIP3    H257578   5.772   5.789  12.162 -0.4671 -0.2352 -1.9830
12055TIP3   OH257579   4.074   1.449  15.018 -0.3108  0.1042 -0.5307
12055TIP3    H157580   4.058   1.356  15.000  1.1066 -0.1266 -0.7572
12055TIP3    H257581   3.993   1.480  15.058 -0.0770 -1.7682  1.6182
12056TIP3   OH257582   4.784   1.423   3.328 -0.2281 -0.2372  0.2907
12056TIP3    H157583   4.806   1.439   3.236  0.7905 -1.3517  0.3008
12056TIP3    H257584   4.821   1.498   3.375 -0.4722  0.1767 -0.1693
12057TIP3   OH257585   0.012   1.224   1.950 -0.0181  0.4453  0.4698
12057TIP3    H157586  -0.057   1.205   2.014 -2.0437  2.9396 -0.7941
12057TIP3    H257587   0.088   1.246   2.004 -0.4011 -1.5268  1.9228
12058TIP3   OH257588   1.321   1.335   2.592 -0.5707 -0.4257  0.2517
12058TIP3    H157589   1.366   1.333   2.676  1.9612 -1.2407 -1.0088
12058TIP3    H257590   1.291   1.425   2.582  2.2656  0.6443  0.5304
12059TIP3   OH257591   0.422   0.871   3.716  0.5838  0.1373 -0.0556
12059TIP3    H157592   0.460   0.843   3.799 -1.0935  0.4104  0.8482
12059TIP3    H257593   0.415   0.790   3.665 -0.9615 -0.5622  1.1759
12060TIP3   OH257594   2.341   1.726   1.292 -0.3219 -0.3335  0.2839
12060TIP3    H157595   2.314   1.816   1.276 -0.9033 -0.3851  0.9035
12060TIP3    H257596   2.294   1.675   1.226  0.4424 -0.1283 -0.4261
12061TIP3   OH257597   1.310   0.768   2.012  0.4399 -0.4294 -0.1620
12061TIP3    H157598   1.226   0.726   1.997 -1.0780  1.3813  2.4448
12061TIP3    H257599   1.321   0.827   1.937 -0.2631 -1.1649 -0.8590
12062TIP3   OH257600   0.420   1.605   5.569 -0.0400  0.1527 -0.3039
12062TIP3    H157601   0.417   1.560   5.484  2.5310 -1.8593  0.5282
12062TIP3    H257602   0.372   1.547   5.628  2.0589 -0.8841  0.4786
12063TIP3   OH257603   4.441   4.178  12.208 -0.4867  0.0286 -0.3248
12063TIP3    H157604   4.464   4.094  12.167 -2.2944 -1.2263  1.1325
12063TIP3    H257605   4.514   4.195  12.268 -0.4781 -0.8994 -0.0533
12064TIP3   OH257606   5.006   6.590  13.032 -0.0147 -0.8697 -0.1654
12064TIP3    H157607   5.083   6.627  13.074  0.7170  0.1293 -2.2552
12064TIP3    H257608   4.934   6.647  13.059  0.5842  0.2513 -0.8327
12065TIP3   OH257609   2.345   2.251  15.576 -0.4544  0.1546 -0.5616
12065TIP3    H157610   2.332   2.287  15.664  0.6785 -3.0840  1.0887
12065TIP3    H257611   2.285   2.177  15.570 -0.0731 -0.0754 -2.3099
12066TIP3   OH257612   5.647   3.262  16.002 -0.1033 -0.0509 -0.0020
12066TIP3    H157613   5.648   3.276  15.908  1.6108  1.4747  0.1871
12066TIP3    H257614   5.737   3.278  16.030 -0.1158 -2.3998  1.6592
12067TIP3   OH257615   0.813   1.950  14.705  0.1328  0.6202 -0.7081
12067TIP3    H157616   0.853   1.997  14.778  2.3087 -3.9907  1.4715
12067TIP3    H257617   0.880   1.950  14.637  0.2183  0.4817 -0.6237
12068TIP3   OH257618   4.780   4.687  16.110 -0.3028 -0.2911  0.6077
12068TIP3    H157619   4.804   4.765  16.159  0.8562 -1.5717  2.1844
12068TIP3    H257620   4.833   4.691  16.030  1.2910 -0.4565  1.6249
12069TIP3   OH257621   3.930   5.813   0.923 -0.6489 -0.3467 -0.0171
12069TIP3    H157622   3.843   5.773   0.915 -0.4753 -0.5577 -1.0131
12069TIP3    H257623   3.990   5.747   0.887 -0.2778  0.4806 -0.9669
12070TIP3   OH257624   4.464   6.207  10.339 -0.4988 -0.5581 -0.1464
12070TIP3    H157625   4.549   6.221  10.296  0.4037 -1.9140  1.1070
12070TIP3    H257626   4.481   6.221  10.432 -2.3894  2.1843 -0.0900
12071TIP3   OH257627   3.855   6.174  13.150  0.7674  0.1784  0.1962
12071TIP3    H157628   3.930   6.117  13.168  0.5018  0.1312  1.2379
12071TIP3    H257629   3.792   6.153  13.219 -0.6260 -0.4870 -1.2138
12072TIP3   OH257630   4.989   4.253  16.246 -0.7280  0.1809 -0.1699
12072TIP3    H157631   5.072   4.206  16.237 -0.8238  0.0191 -0.2086
12072TIP3    H257632   4.985   4.276  16.338 -1.6427 -1.6808  0.3051
12073TIP3   OH257633   2.109   3.798  16.267  0.5863 -0.1029  0.1368
12073TIP3    H157634   2.128   3.800  16.173  1.5543  0.8417  0.3229
12073TIP3    H257635   2.080   3.887  16.287 -0.5116 -0.5419  0.5782
12074TIP3   OH257636   4.712   1.985   0.085  0.0952 -0.3113  0.4783
12074TIP3    H157637   4.753   2.034   0.157  1.3953  0.0094 -0.4359
12074TIP3    H257638   4.694   2.050   0.018 -0.2780 -0.7402  0.1514
12075TIP3   OH257639   2.626   3.374  17.218  0.1963 -0.4370 -0.5165
12075TIP3    H157640   2.635   3.451  17.161 -0.3363 -0.6262 -0.8635
12075TIP3    H257641   2.716   3.355  17.247  0.1307  1.5444  1.2242
12076TIP3   OH257642   4.133   6.650   5.574 -0.3104  0.1069  0.0165
12076TIP3    H157643   4.135   6.743   5.595  0.9706  0.6144 -2.0642
12076TIP3    H257644   4.128   6.607   5.660  0.1061  2.0555  1.0951
12077TIP3   OH257645   3.375   4.374   5.314  0.1825  0.3948  0.5687
12077TIP3    H157646   3.331   4.458   5.330  0.6586  0.5089  1.3394
12077TIP3    H257647   3.336   4.341   5.233  1.7848  2.5871 -1.2482
12078TIP3   OH257648   1.835   6.216   1.117 -0.5774 -0.1790  0.7911
12078TIP3    H157649   1.840   6.275   1.193  2.1677  0.6073  0.1207
12078TIP3    H257650   1.907   6.154   1.131 -0.2978 -0.2851 -0.9429
12079TIP3   OH257651   4.120   0.630   0.235  0.1531  0.0147  0.0225
12079TIP3    H157652   4.164   0.659   0.155 -0.6669  0.6580 -0.2061
12079TIP3    H257653   4.130   0.535   0.235  1.7535  0.1556  0.1109
12080TIP3   OH257654   3.746   1.419  17.048  0.3499  0.4791 -0.4914
12080TIP3    H157655   3.727   1.507  17.080 -1.8160 -0.1887  0.2341
12080TIP3    H257656   3.777   1.432  16.958 -0.2427  1.9670 -0.5041
12081TIP3   OH257657   1.712   4.157  12.218  0.4459 -0.6046  0.8814
12081TIP3    H157658   1.647   4.213  12.175 -0.9940 -1.5715  1.7193
12081TIP3    H257659   1.786   4.215  12.233  0.1934  0.2927 -0.9835
12082TIP3   OH257660   5.382   0.849  15.279 -0.6742  0.1251 -0.2005
12082TIP3    H157661   5.451   0.811  15.224 -0.1920  0.6472  0.0260
12082TIP3    H257662   5.305   0.853  15.222 -0.1428  0.7917 -0.8964
12083TIP3   OH257663   2.191   3.321  11.656 -0.3251  0.0344 -1.0312
12083TIP3    H157664   2.098   3.330  11.635 -0.6074  1.2492  0.5708
12083TIP3    H257665   2.229   3.407  11.634  0.1335  0.0160 -0.3389
12084TIP3   OH257666   4.244   1.207   4.514  0.0694  0.1983 -0.2814
12084TIP3    H157667   4.311   1.141   4.498 -0.6504 -0.5637 -0.1807
12084TIP3    H257668   4.226   1.202   4.608 -1.1370 -0.5973 -0.5366
12085TIP3   OH257669   2.179   6.547  12.717 -0.7546  0.5356 -0.0224
12085TIP3    H157670   2.220   6.564  12.632 -0.9173  0.3853 -0.1310
12085TIP3    H257671   2.090   6.582  12.708 -0.8874  0.1967 -0.0361
12086TIP3   OH257672   3.521   2.290  10.813 -0.8513 -0.2408  0.7337
12086TIP3    H157673   3.509   2.276  10.719 -0.9636 -0.1784  0.7377
12086TIP3    H257674   3.594   2.351  10.820  1.3845 -2.7617  0.8041
12087TIP3   OH257675   2.212   6.749   1.667  0.1838 -0.4442  0.0835
12087TIP3    H157676   2.143   6.722   1.728  0.8244  1.8124  1.9509
12087TIP3    H257677   2.228   6.841   1.689  3.0110 -0.5770 -1.0624
12088TIP3   OH257678   4.234   4.171  16.919 -0.2508  0.1899 -0.7713
12088TIP3    H157679   4.169   4.153  16.987  0.9745  0.4680  0.5478
12088TIP3    H257680   4.287   4.092  16.915  1.2097  1.0347  0.4474
12089TIP3   OH257681   4.477   5.323   3.703 -0.0732  0.2953 -0.3209
12089TIP3    H157682   4.546   5.274   3.748 -0.7589 -1.9924 -1.6027
12089TIP3    H257683   4.473   5.284   3.615 -1.4410  1.9232 -1.0339
12090TIP3   OH257684   5.117   5.635  13.064  0.0833 -0.8813 -0.3278
12090TIP3    H157685   5.037   5.676  13.028  1.1555  0.4315 -1.3532
12090TIP3    H257686   5.088   5.591  13.143 -1.7905 -1.0057 -1.0288
12091TIP3   OH257687   3.263   3.479  11.567 -0.9006 -0.7688  0.0195
12091TIP3    H157688   3.190   3.506  11.512 -0.2852  0.2552 -0.3342
12091TIP3    H257689   3.261   3.383  11.566 -1.0478 -0.7686 -1.6165
12092TIP3   OH257690   3.800   2.454  14.048  0.2202  0.2212  0.5821
12092TIP3    H157691   3.809   2.372  14.095 -1.2466 -0.0436  0.4178
12092TIP3    H257692   3.754   2.512  14.109  0.1816  0.5389  0.2554
12093TIP3   OH257693   1.987   3.272  15.674 -0.7215 -0.1283  0.0519
12093TIP3    H157694   1.992   3.301  15.765 -3.2326 -0.2304  0.2808
12093TIP3    H257695   1.926   3.334  15.632 -0.3562 -0.6633 -1.3310
12094TIP3   OH257696   1.437   1.187   0.235 -0.0780  0.4029  0.0113
12094TIP3    H157697   1.417   1.197   0.142  1.5961 -1.5884 -0.6361
12094TIP3    H257698   1.514   1.242   0.249 -1.2348  1.9571  0.6748
12095TIP3   OH257699   0.266   5.500  14.009 -0.7841  0.2356  0.2535
12095TIP3    H157700   0.233   5.590  13.998 -2.2210 -0.4717 -1.9575
12095TIP3    H257701   0.188   5.446  14.009  0.1650 -1.1885 -0.5971
12096TIP3   OH257702   5.918   2.787   1.391 -0.0800 -0.1698  0.7888
12096TIP3    H157703   5.926   2.881   1.408  3.1621 -0.2214  0.3082
12096TIP3    H257704   5.860   2.782   1.315 -2.7879  1.1260  2.6407
12097TIP3   OH257705   4.825   0.176   6.027 -0.6670  0.3252 -0.0956
12097TIP3    H157706   4.899   0.142   6.078  0.8313  0.4901 -2.0373
12097TIP3    H257707   4.834   0.271   6.032 -1.0230  0.3548  0.0080
12098TIP3   OH257708   5.511   5.528  16.325  0.2734 -0.3390  0.3821
12098TIP3    H157709   5.436   5.544  16.268  0.2398  0.7762  0.7236
12098TIP3    H257710   5.575   5.483  16.268  0.8799  2.1400 -1.0279
12099TIP3   OH257711   3.404   5.501   4.651 -0.3904 -0.2239 -0.4858
12099TIP3    H157712   3.344   5.492   4.576 -1.7869  0.4413  0.5121
12099TIP3    H257713   3.426   5.594   4.653 -0.1204 -0.2922 -0.2543
12100TIP3   OH257714   4.508   5.589  10.528 -0.7591 -0.0798  0.0351
12100TIP3    H157715   4.575   5.657  10.519 -0.0181 -0.9223 -1.1222
12100TIP3    H257716   4.430   5.629  10.490 -0.0332 -0.2260 -1.7426
12101TIP3   OH257717   5.062   1.993  16.347  0.0409  0.2357 -0.5359
12101TIP3    H157718   5.153   2.023  16.342  0.2992 -0.6329 -1.2842
12101TIP3    H257719   5.014   2.068  16.380  1.2297  0.3012  1.2101
12102TIP3   OH257720   0.101   0.687  13.929 -0.4043  0.4257  0.3821
12102TIP3    H157721   0.193   0.706  13.908 -0.9374  2.7830 -0.1228
12102TIP3    H257722   0.106   0.619  13.995  1.7572  0.8480  0.7522
12103TIP3   OH257723   1.546   6.152   1.026  0.0288  0.1999 -0.2299
12103TIP3    H157724   1.630   6.137   1.068 -0.0224  1.7876  0.4946
12103TIP3    H257725   1.483   6.157   1.098 -0.8306 -1.6133 -0.7880
12104TIP3   OH257726   4.567   6.446  15.638 -0.0536 -0.0485 -0.4770
12104TIP3    H157727   4.530   6.364  15.604 -0.7918  1.0330 -2.5153
12104TIP3    H257728   4.490   6.498  15.662  0.4199 -0.0584  1.1562
12105TIP3   OH257729   2.130   5.517   5.478 -0.3042 -0.3989  0.2499
12105TIP3    H157730   2.130   5.488   5.569 -0.5323 -0.5529  0.2030
12105TIP3    H257731   2.104   5.440   5.428 -1.7278  0.0691  0.1908
12106TIP3   OH257732   5.692   1.366   1.193 -0.7833  0.3793 -0.2969
12106TIP3    H157733   5.719   1.296   1.133  0.2574  0.8009 -0.3357
12106TIP3    H257734   5.724   1.338   1.278  1.8754  1.9296 -0.6910
12107TIP3   OH257735   6.485   2.147  14.215  0.2651 -0.0373 -0.3144
12107TIP3    H157736   6.530   2.099  14.285  1.2756  0.0707 -0.8585
12107TIP3    H257737   6.495   2.239  14.238 -0.1381 -0.0258 -0.1753
12108TIP3   OH257738   4.422   2.676  17.283 -0.0989 -0.3419 -0.2064
12108TIP3    H157739   4.445   2.666  17.376 -0.6865 -0.0954 -0.0293
12108TIP3    H257740   4.379   2.594  17.260  0.3695 -0.5488 -0.3655
12109TIP3   OH257741   1.113   3.398  15.860  0.0476 -0.0543  0.0130
12109TIP3    H157742   1.184   3.392  15.924 -0.8902 -4.5347  0.9688
12109TIP3    H257743   1.034   3.406  15.912 -0.4925 -0.0540 -0.7828
12110TIP3   OH257744   2.073   2.155  11.219  0.3139  0.2650 -0.0500
12110TIP3    H157745   2.095   2.180  11.309  1.5556 -0.4076 -0.1468
12110TIP3    H257746   2.087   2.235  11.168  4.5767 -0.4523 -0.4179
12111TIP3   OH257747   2.864   3.528  13.840 -0.2394 -0.0747 -0.8463
12111TIP3    H157748   2.773   3.523  13.868 -0.1153  0.4120 -0.3343
12111TIP3    H257749   2.913   3.486  13.911 -0.2229 -2.3105 -2.0923
12112TIP3   OH257750   3.350   1.586   1.554  0.4905  0.2736 -0.0677
12112TIP3    H157751   3.438   1.593   1.518  0.2699  0.1701 -0.6339
12112TIP3    H257752   3.292   1.605   1.480  0.0300 -0.1058  0.1908
12113TIP3   OH257753   0.822   1.495   5.700  0.3329  0.3489 -0.2862
12113TIP3    H157754   0.899   1.478   5.755 -1.6251 -1.5262  2.1322
12113TIP3    H257755   0.840   1.448   5.618  1.7921  0.0125  0.2021
12114TIP3   OH257756   5.028   3.212  16.689 -0.3135  0.0742 -0.6845
12114TIP3    H157757   5.011   3.188  16.780  2.0744 -1.1102 -0.4784
12114TIP3    H257758   4.998   3.137  16.638 -1.4815  0.6623 -0.9108
12115TIP3   OH257759   1.335   4.225  14.318  0.2138 -0.1372 -0.1903
12115TIP3    H157760   1.369   4.228  14.229 -0.0497 -1.6358 -0.3656
12115TIP3    H257761   1.281   4.146  14.321  1.0116 -0.6693  1.5752
12116TIP3   OH257762   0.992   2.969  13.161 -0.6318 -0.0363 -0.2024
12116TIP3    H157763   0.929   2.914  13.207  1.6113 -2.9151 -0.2526
12116TIP3    H257764   1.074   2.957  13.210  1.1387 -0.8356 -3.1100
12117TIP3   OH257765   0.399   3.287   0.341  0.4011  0.4747 -0.1290
12117TIP3    H157766   0.462   3.262   0.408 -0.3426  0.7768  0.7100
12117TIP3    H257767   0.425   3.237   0.263  0.7082 -0.6413  0.6589
12118TIP3   OH257768   5.245   5.763   0.192 -0.0253 -1.1381  0.2713
12118TIP3    H157769   5.280   5.789   0.277 -0.3495  1.2526 -0.2666
12118TIP3    H257770   5.300   5.808   0.128 -1.6774 -0.3558 -0.6842
12119TIP3   OH257771   0.434   2.148   0.202  0.6871  0.3622  0.5712
12119TIP3    H157772   0.379   2.075   0.173 -1.2788  1.4848  1.2661
12119TIP3    H257773   0.523   2.113   0.199 -0.1151 -1.8474  0.2499
12120TIP3   OH257774   4.948   0.292   1.486 -0.0844 -0.2845 -0.1869
12120TIP3    H157775   4.952   0.371   1.541 -0.1497  0.4815 -1.2467
12120TIP3    H257776   5.009   0.231   1.527 -1.0707 -0.2232  1.4616
12121TIP3   OH257777   0.301   5.159  13.773  0.5261 -0.1344 -0.0577
12121TIP3    H157778   0.287   5.212  13.694 -0.6013 -1.3526 -0.7173
12121TIP3    H257779   0.372   5.204  13.819  0.2323  1.4305 -1.0303
12122TIP3   OH257780   0.559   5.238  14.614 -0.0460 -0.8479 -0.3307
12122TIP3    H157781   0.579   5.215  14.705 -1.8597  1.1622  0.6894
12122TIP3    H257782   0.467   5.265  14.616  0.2971  0.7870 -2.4266
12123TIP3   OH257783   5.088   1.249  12.074 -0.3992 -0.4130  0.1894
12123TIP3    H157784   5.056   1.338  12.058  0.9855  0.4353  1.8665
12123TIP3    H257785   5.179   1.260  12.100 -0.0161 -2.3897 -0.1903
12124TIP3   OH257786   4.922   3.377   0.125 -0.3949 -0.4517  0.0888
12124TIP3    H157787   4.840   3.388   0.077 -1.2387 -2.8028  0.8401
12124TIP3    H257788   4.960   3.297   0.089  0.7266 -0.3061  0.9033
12125TIP3   OH257789   0.906   2.030   2.968  0.1286 -0.4258 -0.0774
12125TIP3    H157790   0.881   2.122   2.982 -0.2103 -0.7454  1.7821
12125TIP3    H257791   0.977   2.015   3.031  0.3293 -1.3838 -0.5122
12126TIP3   OH257792   6.605   5.289   4.693  0.0837  0.3915 -0.1916
12126TIP3    H157793   6.631   5.288   4.785  0.2188  0.5088 -0.2286
12126TIP3    H257794   6.565   5.203   4.678  1.0334 -0.0498 -0.2976
12127TIP3   OH257795   3.677   1.760  14.856  0.0725 -0.3407 -0.4724
12127TIP3    H157796   3.700   1.807  14.776 -1.1778  1.4590  0.1722
12127TIP3    H257797   3.581   1.763  14.859  0.0737 -0.9132  0.7992
12128TIP3   OH257798   3.329   0.094  15.216 -0.1514  0.3091  0.1264
12128TIP3    H157799   3.270   0.071  15.144  0.6465  1.8151 -1.0608
12128TIP3    H257800   3.409   0.125  15.174  1.3049 -1.0727  1.7028
12129TIP3   OH257801   4.242   5.338   4.675  0.0469  0.3964 -0.4029
12129TIP3    H157802   4.158   5.362   4.712 -1.0199 -2.1792 -0.9236
12129TIP3    H257803   4.223   5.315   4.584  1.0598 -1.2345 -0.2593
12130TIP3   OH257804   2.231   0.245  16.719 -0.4854 -0.3500  0.2519
12130TIP3    H157805   2.281   0.299  16.658 -1.4824 -0.5212 -0.7414
12130TIP3    H257806   2.297   0.190  16.762  0.2857  0.1279 -0.3005
12131TIP3   OH257807   2.049   4.139  15.184  0.5263  0.7261  0.3016
12131TIP3    H157808   2.058   4.049  15.216  4.6546  0.2382 -1.5539
12131TIP3    H257809   2.005   4.129  15.099 -3.4414  1.1885  2.0951
12132TIP3   OH257810   1.806   4.179  11.165 -0.4614  0.3270 -0.6103
12132TIP3    H157811   1.743   4.116  11.200 -1.1353  1.7321  0.8365
12132TIP3    H257812   1.790   4.179  11.071 -1.4610 -0.5560 -0.4608
12133TIP3   OH257813   1.422   5.362   4.875  0.2371 -0.0954 -0.3017
12133TIP3    H157814   1.374   5.323   4.801  0.0810 -1.6109  0.5577
12133TIP3    H257815   1.364   5.431   4.907  0.3578  0.6689 -1.6393
12134TIP3   OH257816   2.775   6.420  13.258 -0.0627  0.5764 -0.2351
12134TIP3    H157817   2.824   6.381  13.331  1.6286 -0.8183 -1.9918
12134TIP3    H257818   2.819   6.503  13.241 -0.0341  0.5966 -0.0585
12135TIP3   OH257819   3.570   2.910  14.829  0.8104  0.3336 -0.3705
12135TIP3    H157820   3.521   2.928  14.748  0.5163 -0.9497 -0.4877
12135TIP3    H257821   3.661   2.910  14.802  0.9173  2.3325 -0.2257
12136TIP3   OH257822   4.855   2.582  12.214 -0.7912  0.4694  0.0984
12136TIP3    H157823   4.876   2.671  12.242 -2.1055  0.9228 -0.2825
12136TIP3    H257824   4.852   2.588  12.118 -1.0241  0.0596  0.0803
12137TIP3   OH257825   4.694   4.108   4.987  0.3406 -0.2836  0.5278
12137TIP3    H157826   4.738   4.189   4.961  1.1665 -0.2261  1.9862
12137TIP3    H257827   4.753   4.039   4.956 -1.0588 -0.4663 -2.0228
12138TIP3   OH257828   2.488   2.378   6.288  0.4173  0.4070 -0.2026
12138TIP3    H157829   2.474   2.469   6.315  1.9108  0.3626  0.8491
12138TIP3    H257830   2.400   2.344   6.272 -0.1269  2.3664 -1.8028
12139TIP3   OH257831   3.633   2.669   3.877 -0.3190  0.3352  0.0246
12139TIP3    H157832   3.713   2.632   3.838 -0.2206  1.1672 -0.5824
12139TIP3    H257833   3.570   2.671   3.805 -0.3956  1.1061  0.1040
12140TIP3   OH257834   0.385   0.286  11.850  0.3332 -0.4713  0.6463
12140TIP3    H157835   0.341   0.290  11.765  0.3575 -0.7927  0.6161
12140TIP3    H257836   0.323   0.328  11.910  1.1577  1.5850  0.1457
12141TIP3   OH257837   4.895   4.200   4.294  0.3594 -0.7297  0.3339
12141TIP3    H157838   4.981   4.238   4.313  1.3236 -1.9268 -1.3544
12141TIP3    H257839   4.889   4.125   4.353  2.0192 -2.6303 -1.7041
12142TIP3   OH257840   1.962   3.454  16.851  0.6881  0.0296  0.1573
12142TIP3    H157841   2.042   3.407  16.831  0.3503 -0.3798 -0.2566
12142TIP3    H257842   1.948   3.439  16.944  1.1675  0.2236  0.2628
12143TIP3   OH257843   0.047   5.611  11.190  0.5613  0.3470 -0.2731
12143TIP3    H157844   0.133   5.582  11.218 -0.0731  0.1447  1.6093
12143TIP3    H257845   0.052   5.707  11.194 -0.1500  0.3582  2.9117
12144TIP3   OH257846   5.291   5.784  15.905  0.2183 -0.0510 -0.0971
12144TIP3    H157847   5.315   5.849  15.971  0.1583  0.9674 -1.0565
12144TIP3    H257848   5.204   5.755  15.931  0.3395  0.0802  0.4662
12145TIP3   OH257849   5.911   5.504   5.401  0.1487 -0.1101  0.3768
12145TIP3    H157850   5.954   5.447   5.464 -0.4618 -1.2504 -0.2058
12145TIP3    H257851   5.876   5.576   5.453 -0.2295 -0.9612  1.3267
12146TIP3   OH257852   4.266   3.578   1.708 -0.3450 -0.2769  0.0314
12146TIP3    H157853   4.263   3.662   1.754 -3.6955 -0.5267  0.5039
12146TIP3    H257854   4.288   3.515   1.776 -0.5037 -0.0752  0.2738
12147TIP3   OH257855   2.901   5.802   1.731  0.2675  0.2106  0.1533
12147TIP3    H157856   2.986   5.798   1.688 -0.3125  0.5877 -1.0890
12147TIP3    H257857   2.885   5.896   1.743  0.0001  0.1448  0.3115
12148TIP3   OH257858   1.926   4.169  14.935 -0.7859  0.3335 -0.4407
12148TIP3    H157859   1.978   4.197  14.860  0.0368  0.3929  0.1436
12148TIP3    H257860   1.885   4.249  14.967 -0.1051  0.5247 -0.0418
12149TIP3   OH257861   0.576   2.902   4.184  0.1001  0.1017 -0.1174
12149TIP3    H157862   0.583   2.964   4.112 -2.2397  1.6681  0.8498
12149TIP3    H257863   0.665   2.893   4.218  0.8481  1.1591 -1.7137
12150TIP3   OH257864   2.939   6.754   2.182 -0.3717 -0.6629  0.8256
12150TIP3    H157865   2.888   6.808   2.123 -1.1858  0.0645  2.1367
12150TIP3    H257866   3.030   6.777   2.163 -0.6334 -0.2340  0.0610
12151TIP3   OH257867   2.724   3.307  13.589 -0.8575 -0.4943 -0.0556
12151TIP3    H157868   2.705   3.395  13.556 -0.7709 -0.7646 -0.8494
12151TIP3    H257869   2.681   3.304  13.675  1.1315  1.1408  1.0973
12152TIP3   OH257870   1.017   4.662  13.674  0.3441 -0.2413  0.4740
12152TIP3    H157871   1.089   4.639  13.732 -0.3195 -0.3371  1.2710
12152TIP3    H257872   1.058   4.669  13.587  1.5261  0.8686  1.0873
12153TIP3   OH257873   0.568   2.048  14.748 -0.0783  0.0566  0.1704
12153TIP3    H157874   0.562   2.008  14.835  0.2195 -0.3359  0.0136
12153TIP3    H257875   0.652   2.018  14.714 -0.5812 -0.5125 -0.6108
12154TIP3   OH257876   6.682   5.862  13.566  0.2478 -0.2539 -0.1912
12154TIP3    H157877   6.669   5.769  13.548  0.0013 -0.0667 -1.0861
12154TIP3    H257878   6.747   5.866  13.635  0.1663 -1.0963 -0.0650
12155TIP3   OH257879   3.128   1.721  15.350 -0.1213 -0.1476 -0.0872
12155TIP3    H157880   3.205   1.668  15.334  1.0440  0.5600  2.6516
12155TIP3    H257881   3.151   1.808  15.318 -0.4394 -0.3051 -0.7646
12156TIP3   OH257882   5.266   4.800  15.869  0.2419 -0.0888  0.1639
12156TIP3    H157883   5.212   4.858  15.922 -0.6093 -0.9121  0.2179
12156TIP3    H257884   5.243   4.823  15.779 -0.8946 -1.0489  0.1887
12157TIP3   OH257885   3.000   6.254  11.677  0.1220  0.4358 -0.0387
12157TIP3    H157886   3.061   6.182  11.691 -0.1619  0.2703  0.3536
12157TIP3    H257887   3.033   6.325  11.733  1.0868  1.0322 -1.3149
12158TIP3   OH257888   3.045   3.712   5.282 -0.6074  0.6353  0.4972
12158TIP3    H157889   3.074   3.796   5.319 -0.3026  0.2776  1.0848
12158TIP3    H257890   2.959   3.731   5.245  0.2713  1.6747 -1.1147
12159TIP3   OH257891   1.565   3.711  15.171 -0.2143  0.1592 -0.1087
12159TIP3    H157892   1.474   3.690  15.148  0.2281 -1.2536 -0.6780
12159TIP3    H257893   1.613   3.699  15.089  0.7848 -1.0814  0.6273
12160TIP3   OH257894   2.971   0.234  15.326  1.3601 -0.7773  0.0624
12160TIP3    H157895   3.035   0.292  15.368  0.8411  0.4140 -0.7217
12160TIP3    H257896   3.022   0.183  15.264  1.7549 -0.7993  0.4011
12161TIP3   OH257897   2.082   5.284  12.012 -0.0776  0.0578 -0.1376
12161TIP3    H157898   2.090   5.336  11.932  1.2215  0.8728  0.4808
12161TIP3    H257899   2.004   5.231  11.999  0.2306  0.0161 -2.0368
12162TIP3   OH257900   2.185   4.045   2.647 -0.3667 -0.3073  0.4697
12162TIP3    H157901   2.186   4.040   2.551 -1.4002  1.6468  0.3033
12162TIP3    H257902   2.094   4.025   2.670 -0.3762  0.2613  0.9480
12163TIP3   OH257903   4.753   3.210   4.066 -0.4620  0.5059  0.2538
12163TIP3    H157904   4.745   3.115   4.054 -1.2953  0.4089  1.4481
12163TIP3    H257905   4.747   3.223   4.161  0.0684  1.7227  0.1389
12164TIP3   OH257906   3.499   1.396   1.190 -0.2359 -0.4140 -0.0299
12164TIP3    H157907   3.589   1.365   1.196 -0.2036 -0.4312 -0.5436
12164TIP3    H257908   3.446   1.320   1.213 -0.1112 -0.1355  1.2755
12165TIP3   OH257909   5.868   2.520  15.936 -0.1939  0.2312  0.0317
12165TIP3    H157910   5.949   2.470  15.935 -0.9192 -0.9724 -0.2306
12165TIP3    H257911   5.822   2.494  15.856 -1.0517  0.5189  0.4150
12166TIP3   OH257912   2.997   5.465   3.503  0.3705  0.3146  0.2894
12166TIP3    H157913   3.015   5.532   3.568  0.5310  0.2388  0.3245
12166TIP3    H257914   3.025   5.503   3.420  2.7005 -0.5585  0.5891
12167TIP3   OH257915   4.653   3.124  13.321 -0.3775  0.4573 -0.4761
12167TIP3    H157916   4.670   3.208  13.363 -0.6433  0.5087 -0.4704
12167TIP3    H257917   4.589   3.144  13.253  0.2926  0.4348 -1.1226
12168TIP3   OH257918   5.492   0.110  12.564 -0.1705  0.4624  0.1639
12168TIP3    H157919   5.543   0.113  12.483 -2.1353  2.1417 -1.1060
12168TIP3    H257920   5.507   0.195  12.606 -0.4162  0.2267  0.7455
12169TIP3   OH257921   3.004   3.844   3.636  0.0326 -0.6366  0.3801
12169TIP3    H157922   2.915   3.854   3.603  0.4276 -0.0134 -0.5363
12169TIP3    H257923   3.041   3.772   3.584  0.2086 -0.6008  0.4547
12170TIP3   OH257924   4.596   6.030   6.342 -0.1280  0.0499  0.6100
12170TIP3    H157925   4.673   6.058   6.293 -1.6439  2.6521 -0.5124
12170TIP3    H257926   4.579   5.940   6.313  2.8146 -0.8818  1.4588
12171TIP3   OH257927   4.651   4.798   5.717  0.0825 -0.5102  0.0195
12171TIP3    H157928   4.595   4.774   5.791  0.5724  0.8508  0.8502
12171TIP3    H257929   4.736   4.759   5.737  0.6256  1.0563  0.9285
12172TIP3   OH257930   1.255   1.278   2.059  0.4330  0.0022 -0.0434
12172TIP3    H157931   1.169   1.240   2.040  0.4082  0.7595 -1.6098
12172TIP3    H257932   1.247   1.312   2.148 -0.2696 -1.5830  0.5325
12173TIP3   OH257933   2.834   0.164   2.761 -0.2161  0.4287  0.2795
12173TIP3    H157934   2.750   0.201   2.785  0.8737  1.8766  2.1805
12173TIP3    H257935   2.876   0.143   2.844  0.0688 -3.4141 -0.6335
12174TIP3   OH257936   4.995   3.297   4.762  0.0428  0.2588 -0.0670
12174TIP3    H157937   4.947   3.261   4.836 -0.0811  1.5030  0.4847
12174TIP3    H257938   5.039   3.375   4.797  1.4375 -0.1208 -0.8652
12175TIP3   OH257939   2.603   0.988  17.282 -0.4112  0.1912 -0.7256
12175TIP3    H157940   2.569   0.944  17.360  1.9842  0.9568  0.8555
12175TIP3    H257941   2.650   0.919  17.235  1.8672  0.5772  0.8536
12176TIP3   OH257942   5.539   2.782  13.061  0.3513 -0.3567  0.0321
12176TIP3    H157943   5.588   2.766  13.142  1.8029  0.1190 -0.7042
12176TIP3    H257944   5.530   2.877  13.057 -1.4613 -0.4788  0.5927
12177TIP3   OH257945   4.828   0.294  12.301  0.1628 -0.2640  0.4286
12177TIP3    H157946   4.908   0.250  12.330  1.9143  0.4921 -2.8214
12177TIP3    H257947   4.840   0.384  12.329  0.5705 -0.1080 -0.2309
12178TIP3   OH257948   6.529   4.459   2.547  0.2722  0.7358  0.7581
12178TIP3    H157949   6.542   4.366   2.532  1.2286  0.9295  0.3865
12178TIP3    H257950   6.508   4.465   2.641 -1.1896  0.0182  0.5056
12179TIP3   OH257951   6.498   4.748  15.304  0.6656 -0.2072  0.0649
12179TIP3    H157952   6.522   4.835  15.273 -1.3594  0.2260 -0.4365
12179TIP3    H257953   6.572   4.720  15.357  1.5979  1.5841 -0.2261
12180TIP3   OH257954   2.087   0.396   0.214  0.3883  0.5757 -0.5892
12180TIP3    H157955   2.131   0.351   0.286  0.5476 -1.4590 -1.8671
12180TIP3    H257956   2.056   0.478   0.252  0.7069 -0.2905  1.6926
12181TIP3   OH257957   2.112   4.888  15.883 -0.6524  0.6185  0.2200
12181TIP3    H157958   2.136   4.973  15.846 -0.3515 -0.1402 -1.4186
12181TIP3    H257959   2.058   4.847  15.815  0.8828 -1.3181  0.0840
12182TIP3   OH257960   1.546   4.783   3.271 -0.7903 -0.0694  0.7972
12182TIP3    H157961   1.502   4.718   3.326 -0.8479 -0.0777  0.7418
12182TIP3    H257962   1.565   4.737   3.189  0.7669 -0.5482  1.3959
12183TIP3   OH257963   1.236   5.465   4.227  0.1308  0.2863  0.0495
12183TIP3    H157964   1.216   5.557   4.240 -0.0407  0.2723 -0.1219
12183TIP3    H257965   1.244   5.430   4.316 -0.5343  0.3050  0.1202
12184TIP3   OH257966   5.056   3.001  13.583  0.4217  0.7179  0.2777
12184TIP3    H157967   5.112   2.993  13.660  1.8228  1.1664 -0.6588
12184TIP3    H257968   5.085   3.081  13.540 -1.0398  1.0233 -0.1842
12185TIP3   OH257969   4.139   6.432   2.706  0.7513 -0.0966  0.0011
12185TIP3    H157970   4.054   6.432   2.748  0.7036  0.4877 -0.0782
12185TIP3    H257971   4.199   6.400   2.773  0.5370 -0.0667  0.2089
12186TIP3   OH257972   2.574   1.989   4.206  0.3581 -0.0369 -0.1942
12186TIP3    H157973   2.557   2.055   4.274 -0.1268  0.3705 -0.7040
12186TIP3    H257974   2.614   1.916   4.253 -0.0295  0.2175  0.5451
12187TIP3   OH257975   6.732   2.386   6.744  0.4563  0.0108 -0.3328
12187TIP3    H157976   6.781   2.326   6.687  0.4430  0.0328 -0.3674
12187TIP3    H257977   6.715   2.463   6.690  1.2959  0.4430  0.0007
12188TIP3   OH257978   6.272   0.149   0.954 -0.3062 -0.5940 -0.6112
12188TIP3    H157979   6.241   0.078   1.011 -0.6786  0.1126  0.0868
12188TIP3    H257980   6.359   0.121   0.927 -0.9355 -1.9155 -1.3787
12189TIP3   OH257981   6.485   0.289   4.922  0.4153 -0.1032 -0.1289
12189TIP3    H157982   6.514   0.228   4.989 -0.9898 -0.5219  0.1324
12189TIP3    H257983   6.432   0.354   4.968  0.1250  0.0823 -0.7008
12190TIP3   OH257984   6.042   3.467  16.532  0.2119 -0.4110 -0.1613
12190TIP3    H157985   6.023   3.375  16.549  0.1822 -0.4191 -0.2408
12190TIP3    H257986   6.088   3.468  16.448 -1.8484 -0.1529 -1.3633
12191TIP3   OH257987   4.310   4.350   1.858 -0.4343  0.2986  0.0911
12191TIP3    H157988   4.297   4.300   1.778  2.5436 -1.3031  0.4452
12191TIP3    H257989   4.384   4.408   1.837 -2.0131  2.6127  0.5826
12192TIP3   OH257990   6.741   6.281  15.302 -0.6663  0.5393  0.4142
12192TIP3    H157991   6.691   6.246  15.228 -0.2984  0.8608  0.0025
12192TIP3    H257992   6.675   6.312  15.364 -1.0406 -1.8892  1.3323
12193TIP3   OH257993   2.776   6.391  17.277  0.0481  0.2203  0.6453
12193TIP3    H157994   2.734   6.360  17.358 -0.5130 -0.3342  0.1463
12193TIP3    H257995   2.866   6.360  17.284 -0.1616 -0.3819  0.7750
12194TIP3   OH257996   4.882   1.261   1.896 -0.1132 -0.4354 -0.2556
12194TIP3    H157997   4.789   1.240   1.888 -0.2038 -0.6538  1.1678
12194TIP3    H257998   4.926   1.176   1.898 -0.1601 -0.4587  1.8808
12195TIP3   OH257999   5.346   5.886   3.965 -0.2673 -0.3878 -0.2268
12195TIP3    H158000   5.385   5.910   4.049 -1.7190  0.0379  0.3578
12195TIP3    H258001   5.409   5.916   3.900 -0.7344  2.5921  0.5673
12196TIP3   OH258002   2.803   5.389   5.415  0.0743 -0.7528  0.0164
12196TIP3    H158003   2.854   5.310   5.433  0.8199 -0.4043 -0.5566
12196TIP3    H258004   2.777   5.382   5.323 -0.4084 -0.6379  0.1375
12197TIP3   OH258005   1.298   2.621   2.307 -0.3647  0.3464  0.2532
12197TIP3    H158006   1.216   2.602   2.351  0.1758 -0.5698  0.8972
12197TIP3    H258007   1.331   2.536   2.280  0.5412  0.6624  0.3246
12198TIP3   OH258008   6.409   5.533   6.208 -0.2653  0.8244  0.1147
12198TIP3    H158009   6.393   5.495   6.295  0.5608  2.5012  1.0334
12198TIP3    H258010   6.385   5.463   6.147 -1.5989 -0.1290  1.6574
12199TIP3   OH258011   4.975   2.656   2.516  0.5129 -0.0408  0.2045
12199TIP3    H158012   4.987   2.589   2.583  0.7990 -1.1621 -0.9242
12199TIP3    H258013   5.035   2.630   2.446  2.1721  2.5240  0.5266
12200TIP3   OH258014   5.772   1.628  12.097  0.2538  0.3409  0.0975
12200TIP3    H158015   5.777   1.629  12.192 -1.3355 -2.2962  0.3241
12200TIP3    H258016   5.678   1.625  12.078  0.4914  1.9295 -1.6439
12201TIP3   OH258017   4.765   4.823   5.460 -0.0558 -0.0356 -0.6477
12201TIP3    H158018   4.744   4.840   5.552  1.0207 -0.7682 -0.2470
12201TIP3    H258019   4.835   4.885   5.440 -0.7648  0.6018 -1.1930
12202TIP3   OH258020   5.894   4.397   5.623  0.9735 -0.1115  0.2193
12202TIP3    H158021   5.969   4.368   5.676  0.8481 -0.9772 -0.0700
12202TIP3    H258022   5.873   4.484   5.658  1.0436 -0.5627  1.4326
12203TIP3   OH258023   0.774   2.641   4.572  0.1483 -0.2252 -0.7759
12203TIP3    H158024   0.735   2.557   4.595  1.5704 -0.4537  1.0325
12203TIP3    H258025   0.699   2.699   4.555 -0.9056 -1.2596  0.1827
12204TIP3   OH258026   4.794   2.167   3.813 -0.1501 -0.1917  0.0578
12204TIP3    H158027   4.715   2.158   3.866  0.9417 -1.2241  1.5888
12204TIP3    H258028   4.787   2.099   3.746 -0.4248 -0.4741  0.3746
12205TIP3   OH258029   4.410   2.231  12.704  0.0786  0.1706 -1.2354
12205TIP3    H158030   4.504   2.225  12.687  0.0821  0.5158 -1.3399
12205TIP3    H258031   4.381   2.140  12.711  0.5784  0.0816 -0.3085
12206TIP3   OH258032   0.129   5.751  12.480  0.0874  0.2156  0.0894
12206TIP3    H158033   0.064   5.788  12.540 -0.7669  0.6377 -1.0409
12206TIP3    H258034   0.203   5.728  12.535 -0.3466  1.3234  1.1807
12207TIP3   OH258035   1.082   0.369   2.828  0.2872  0.0969 -0.1743
12207TIP3    H158036   1.004   0.317   2.808  0.0032  0.5160 -0.1687
12207TIP3    H258037   1.134   0.365   2.748 -0.0069  0.2871 -0.3764
12208TIP3   OH258038   3.693   1.452   6.215  0.6282  0.4084 -0.5248
12208TIP3    H158039   3.689   1.445   6.311  0.8445  0.2527 -0.5283
12208TIP3    H258040   3.602   1.439   6.187  0.3812  1.5108 -0.2697
12209TIP3   OH258041   1.151   0.488  15.153 -0.3228  0.1958 -0.1510
12209TIP3    H158042   1.067   0.441  15.154 -0.9875  1.2844  2.4480
12209TIP3    H258043   1.132   0.568  15.105 -0.3952 -0.1452 -0.7038
12210TIP3   OH258044   4.296   1.932   4.457 -0.4978 -0.2757 -0.2133
12210TIP3    H158045   4.332   1.960   4.373 -0.4072 -1.3013 -0.5312
12210TIP3    H258046   4.201   1.943   4.447 -0.3656  1.8505  0.4116
12211TIP3   OH258047   1.035   1.213  13.236 -0.3617  0.3480  0.2114
12211TIP3    H158048   0.963   1.177  13.184 -0.1610  0.9594 -0.5015
12211TIP3    H258049   1.018   1.307  13.239 -0.2932  0.3454  1.1511
12212TIP3   OH258050   3.565   5.637   1.471 -0.2290  0.1707 -0.3767
12212TIP3    H158051   3.504   5.571   1.502  0.1226 -0.6738 -1.4105
12212TIP3    H258052   3.622   5.655   1.546 -0.2147 -0.8365 -0.1407
12213TIP3   OH258053   2.216   4.686  15.191  0.5293 -0.0625  0.3299
12213TIP3    H158054   2.300   4.694  15.145  0.7136 -1.6616  0.3374
12213TIP3    H258055   2.175   4.608  15.153 -0.4756  0.0753  1.0850
12214TIP3   OH258056   5.431   6.582  11.008  0.4011  0.8767  0.4841
12214TIP3    H158057   5.506   6.637  10.984 -0.0740  1.8645  1.1916
12214TIP3    H258058   5.470   6.505  11.048  1.1489 -0.0785 -1.9118
12215TIP3   OH258059   6.516   1.924  13.389  0.2202 -0.0743  0.1781
12215TIP3    H158060   6.566   1.843  13.382 -0.9180 -0.7164 -0.8371
12215TIP3    H258061   6.470   1.916  13.473  0.1573 -0.4476  0.1090
12216TIP3   OH258062   6.115   2.028   0.207  0.1343  0.5135  0.1303
12216TIP3    H158063   6.089   2.108   0.161  3.6347  1.7952  0.0766
12216TIP3    H258064   6.167   1.980   0.143 -0.2064 -0.8281  0.8318
12217TIP3   OH258065   5.609   0.414  12.138  0.2155 -0.1861 -0.4688
12217TIP3    H158066   5.646   0.383  12.056  1.7470  1.8918 -0.6531
12217TIP3    H258067   5.514   0.413  12.124  0.4312 -0.4740 -2.0330
12218TIP3   OH258068   5.952   4.426   3.265  0.3077  0.1207 -0.5393
12218TIP3    H158069   5.881   4.397   3.208  0.5418 -2.1120  0.1991
12218TIP3    H258070   5.924   4.511   3.298 -2.7799 -1.3238  0.8885
12219TIP3   OH258071   1.703   5.544  14.876 -0.0305 -0.3302  0.3329
12219TIP3    H158072   1.689   5.473  14.940 -0.3626 -0.5221  0.0470
12219TIP3    H258073   1.616   5.563  14.842 -0.0936  0.9260  1.1569
12220TIP3   OH258074   3.796   5.759   2.523  0.7427  0.3413  0.3087
12220TIP3    H158075   3.799   5.669   2.557  2.1161 -0.3349 -1.4619
12220TIP3    H258076   3.845   5.810   2.587  0.1943 -0.1895  1.1858
12221TIP3   OH258077   0.054   0.800   3.846  0.3275  0.2922 -0.0442
12221TIP3    H158078   0.071   0.712   3.813  1.1847  1.2112 -2.2171
12221TIP3    H258079  -0.024   0.790   3.901 -0.9685 -1.4678 -2.0196
12222TIP3   OH258080   2.385   4.429  10.689  0.7032 -0.2507  0.1454
12222TIP3    H158081   2.397   4.369  10.763 -0.4755  0.0194  0.5871
12222TIP3    H258082   2.380   4.373  10.612  0.3102 -0.6745  0.4730
12223TIP3   OH258083   2.546   2.762  11.820  0.6855 -0.2935  0.3593
12223TIP3    H158084   2.594   2.680  11.805 -0.2178 -0.9520  0.9510
12223TIP3    H258085   2.481   2.739  11.887  1.0653  1.1598  1.2610
12224TIP3   OH258086   4.151   0.444  17.169 -0.1161 -0.6785 -0.4077
12224TIP3    H158087   4.074   0.465  17.222  0.3037  2.0216 -0.7213
12224TIP3    H258088   4.170   0.353  17.190 -3.7826 -1.7114 -0.8546
12225TIP3   OH258089   0.426   3.541  16.490  0.0898 -0.5924 -0.0117
12225TIP3    H158090   0.459   3.494  16.566 -0.4332  0.4453  0.8852
12225TIP3    H258091   0.364   3.480  16.450 -0.0368 -0.9561  0.7141
12226TIP3   OH258092   1.831   3.692  14.500 -0.2796  0.6447 -0.0298
12226TIP3    H158093   1.853   3.776  14.539 -1.8743  0.5648  1.1433
12226TIP3    H258094   1.748   3.708  14.453 -0.4796 -0.2005  0.0169
12227TIP3   OH258095   3.332   5.579   0.775 -0.6433 -0.3300 -0.7901
12227TIP3    H158096   3.276   5.649   0.809  0.0108 -0.0676 -0.2275
12227TIP3    H258097   3.325   5.587   0.680 -1.3002 -0.0877 -0.7235
12228TIP3   OH258098   3.875   4.130  12.019  0.4941  0.0402  0.4677
12228TIP3    H158099   3.886   4.125  12.114  2.1875  0.0553  0.3024
12228TIP3    H258100   3.855   4.041  11.992 -0.4254  0.1104  0.8577
12229TIP3   OH258101   1.546   1.679   5.555 -0.1365  0.1534 -0.1130
12229TIP3    H158102   1.601   1.609   5.590 -0.9207  0.4852  1.9631
12229TIP3    H258103   1.574   1.757   5.603 -1.9544  0.4416  0.5552
12230TIP3   OH258104   6.695   0.731  16.821  0.0149  0.5312 -0.0511
12230TIP3    H158105   6.620   0.673  16.804 -3.0659  3.5057  2.1234
12230TIP3    H258106   6.693   0.794  16.749  1.2548 -0.0686 -0.6298
12231TIP3   OH258107   4.931   4.478  15.050  0.5663 -0.0466 -0.7591
12231TIP3    H158108   4.954   4.434  14.968  2.9271 -1.2435  0.4525
12231TIP3    H258109   4.990   4.440  15.115 -1.8477  0.1614  1.7398
12232TIP3   OH258110   3.129   1.846  12.728  0.4784 -0.0477  0.0385
12232TIP3    H158111   3.044   1.836  12.687  0.2141  0.5469  0.4232
12232TIP3    H258112   3.192   1.815  12.663  0.0172  0.1868 -0.5218
12233TIP3   OH258113   1.154   0.812   3.267 -0.0732  0.0844  0.0434
12233TIP3    H158114   1.113   0.764   3.339  1.2769 -0.3546  0.5469
12233TIP3    H258115   1.169   0.746   3.200 -0.1002  0.2223 -0.0981
12234TIP3   OH258116   1.701   5.938   5.618 -0.0880 -0.2079 -0.3672
12234TIP3    H158117   1.725   5.985   5.538  0.7921 -2.7104 -1.6915
12234TIP3    H258118   1.765   5.967   5.683  1.5128 -0.7683 -1.6206
12235TIP3   OH258119   4.180   6.637  15.277  0.1303 -0.1642 -0.1429
12235TIP3    H158120   4.112   6.586  15.232 -2.0157  2.7971 -0.5597
12235TIP3    H258121   4.191   6.592  15.361 -1.4849 -1.4256 -0.5407
12236TIP3   OH258122   3.951   1.867  14.923 -0.2967 -0.2236 -0.4701
12236TIP3    H158123   3.956   1.954  14.961 -0.3510 -0.9157  1.1983
12236TIP3    H258124   3.867   1.832  14.955 -0.3496 -0.8279 -1.2489
12237TIP3   OH258125   4.008   1.391   0.013 -0.0933  0.1863 -0.1128
12237TIP3    H158126   4.043   1.387  -0.075 -0.8536 -3.2490 -0.4024
12237TIP3    H258127   4.084   1.378   0.070  0.2421  1.2925 -0.2987
12238TIP3   OH258128   0.852   1.473  12.750  0.1890  0.4022  0.0644
12238TIP3    H158129   0.799   1.408  12.704  0.2594 -0.2331  0.8565
12238TIP3    H258130   0.817   1.558  12.723  0.8263  0.0879 -1.8758
12239TIP3   OH258131   0.896   4.867   0.092  0.1100  0.1182 -0.1941
12239TIP3    H158132   0.841   4.876   0.170 -1.7781  0.0064 -1.4461
12239TIP3    H258133   0.851   4.801   0.039  0.9542  0.6909 -1.6806
12240TIP3   OH258134   0.721   1.886  10.958 -0.4469  0.4779  0.0906
12240TIP3    H158135   0.656   1.837  11.009 -0.4856  1.9189  1.5272
12240TIP3    H258136   0.805   1.854  10.991 -0.3033 -1.8622 -2.2272
12241TIP3   OH258137   5.419   6.604   0.769 -0.2623  0.4519 -0.2916
12241TIP3    H158138   5.366   6.684   0.763 -2.0575 -0.6063  0.3587
12241TIP3    H258139   5.359   6.534   0.742  0.0744 -1.0740  2.5021
12242TIP3   OH258140   2.734   5.792   0.921  0.1262 -0.2634  0.0283
12242TIP3    H158141   2.716   5.857   0.990  2.2623 -1.1825  1.5694
12242TIP3    H258142   2.649   5.752   0.903 -0.9342  1.7216  0.2954
12243TIP3   OH258143   3.787   2.136   1.994 -0.4886 -0.1076 -0.4130
12243TIP3    H158144   3.715   2.139   1.931 -2.4258  0.0446  1.6964
12243TIP3    H258145   3.788   2.223   2.035 -0.6939 -0.8385  1.2303
12244TIP3   OH258146   1.209   1.110   4.842 -0.1124 -0.8998  0.8430
12244TIP3    H158147   1.191   1.188   4.895 -0.2245 -0.6579  0.4559
12244TIP3    H258148   1.235   1.145   4.757 -1.2231 -1.2989  0.3248
12245TIP3   OH258149   5.628   6.358  15.561 -0.1400  0.2149  0.5892
12245TIP3    H158150   5.630   6.379  15.654  2.1499 -1.5818  1.0265
12245TIP3    H258151   5.651   6.440  15.518  3.7139  0.0327  1.9522
12246TIP3   OH258152   4.664   1.170  13.953 -0.2685 -0.5137 -0.5943
12246TIP3    H158153   4.582   1.215  13.933  0.9943  1.9667 -0.4801
12246TIP3    H258154   4.685   1.121  13.873 -1.7065 -0.9950 -0.7022
12247TIP3   OH258155   5.304   2.771   0.304  0.2512  0.0667 -0.0899
12247TIP3    H158156   5.297   2.867   0.301  0.2826  0.0556 -2.0324
12247TIP3    H258157   5.299   2.744   0.212  0.6388 -1.7789  0.3886
12248TIP3   OH258158   3.532   0.187   0.640 -0.2255  0.1793  0.3189
12248TIP3    H158159   3.490   0.165   0.723 -0.1506  0.2765  0.3836
12248TIP3    H258160   3.622   0.208   0.664 -0.7288  2.3534  0.5274
12249TIP3   OH258161   2.349   0.515  13.744  0.0884  0.0233 -0.3689
12249TIP3    H158162   2.439   0.545  13.735  0.0944  0.7851  1.6379
12249TIP3    H258163   2.357   0.424  13.772  0.1845 -0.2892 -1.3742
12250TIP3   OH258164   4.108   5.995   0.323 -0.2308 -0.8776 -0.3090
12250TIP3    H158165   4.085   5.906   0.348  0.1865 -0.5430  1.4477
12250TIP3    H258166   4.203   5.999   0.334 -0.2945 -0.1081  0.0726
12251TIP3   OH258167   4.000   3.373  14.591  0.3505  0.2256 -0.1886
12251TIP3    H158168   3.912   3.370  14.628 -0.0837  2.9057 -0.8283
12251TIP3    H258169   3.986   3.369  14.496  1.0096 -0.2704 -0.2754
12252TIP3   OH258170   3.581   0.508  13.110  0.1048  0.5059 -0.2761
12252TIP3    H158171   3.572   0.435  13.171  0.9869 -0.1136 -0.8611
12252TIP3    H258172   3.659   0.554  13.138  1.1623 -0.4200 -1.5278
12253TIP3   OH258173   1.994   2.502  10.475 -0.3302  0.0346 -0.4672
12253TIP3    H158174   1.956   2.517  10.388 -0.7338  1.6795 -0.0549
12253TIP3    H258175   1.976   2.584  10.522 -0.4378 -0.9621  1.2812
12254TIP3   OH258176   5.173   4.572   2.495  0.2657 -0.2429  0.3231
12254TIP3    H158177   5.173   4.558   2.589  0.8292  0.0892  0.3779
12254TIP3    H258178   5.213   4.659   2.484 -0.5974  0.1033 -0.1640
12255TIP3   OH258179   1.250   6.564  16.620  0.3615 -0.4399  0.2932
12255TIP3    H158180   1.155   6.563  16.623  0.2675 -0.5830 -1.6050
12255TIP3    H258181   1.277   6.503  16.689 -0.8077  1.3067  2.4117
12256TIP3   OH258182   0.013   5.000   1.151 -0.0561 -0.1534 -0.1812
12256TIP3    H158183   0.006   5.013   1.245 -0.7972  0.9148 -0.3644
12256TIP3    H258184  -0.065   4.948   1.128 -0.8977  1.1788 -0.4502
12257TIP3   OH258185   1.190   2.160  17.042 -0.3378  0.6718  0.4762
12257TIP3    H158186   1.191   2.197  16.953 -1.4354  0.3476  0.3195
12257TIP3    H258187   1.217   2.069  17.030 -4.1153 -0.5438 -0.1362
12258TIP3   OH258188   2.215   3.205   0.278  0.0576  0.0280 -0.1788
12258TIP3    H158189   2.298   3.203   0.326 -0.4917  1.3505  0.8981
12258TIP3    H258190   2.201   3.298   0.258 -0.9239 -0.2281 -0.7649
12259TIP3   OH258191   6.067   6.521   4.711  0.0674  0.1927  0.0941
12259TIP3    H158192   6.025   6.583   4.652  1.7277  2.5450  1.2234
12259TIP3    H258193   6.038   6.435   4.681 -0.2811  1.3373 -3.2126
12260TIP3   OH258194   2.332   4.110  13.457 -0.2234 -0.1853 -0.0273
12260TIP3    H158195   2.401   4.053  13.422  0.0942  0.4975 -0.5406
12260TIP3    H258196   2.351   4.196  13.420 -0.7356  0.2453  0.6808
12261TIP3   OH258197   6.616   3.963   0.973  0.4667  0.0703  0.1721
12261TIP3    H158198   6.634   4.052   1.001 -0.8504  0.1189  0.9425
12261TIP3    H258199   6.581   3.972   0.885  0.9900  0.2504 -0.0190
12262TIP3   OH258200   1.591   4.834  16.012  0.0783 -0.7556 -0.2005
12262TIP3    H158201   1.625   4.848  16.101 -0.0012 -0.2162 -0.2527
12262TIP3    H258202   1.668   4.809  15.961  1.0511  2.9635 -0.9199
12263TIP3   OH258203   0.311   5.760   2.014 -0.1900  0.0863 -0.1463
12263TIP3    H158204   0.245   5.700   1.979 -1.8904  0.7920  1.6279
12263TIP3    H258205   0.391   5.708   2.020 -0.7362 -1.0191 -1.6795
12264TIP3   OH258206   2.418   6.344   2.228  0.0646  0.2301  0.5280
12264TIP3    H158207   2.426   6.422   2.282 -0.1923 -0.4850  1.6370
12264TIP3    H258208   2.498   6.295   2.245  0.7104  0.7065 -0.9596
12265TIP3   OH258209   3.058   5.063   0.139 -0.0279 -0.1747 -0.3221
12265TIP3    H158210   3.029   5.121   0.210  4.0251  0.0050  1.4740
12265TIP3    H258211   3.022   4.978   0.161  0.8055 -0.0261  1.8475
12266TIP3   OH258212   2.283   3.251   4.643 -0.4933 -0.5169 -0.2817
12266TIP3    H158213   2.264   3.211   4.558  0.2650 -1.6442  0.0571
12266TIP3    H258214   2.333   3.330   4.621 -2.1507  0.3878 -0.9653
12267TIP3   OH258215   1.975   5.485  14.757 -0.4424  0.9776  0.0695
12267TIP3    H158216   1.994   5.559  14.700  1.6175  1.4726  1.2899
12267TIP3    H258217   1.886   5.501  14.788 -0.7443  1.8866 -1.1844
12268TIP3   OH258218   1.653   0.099  16.727  0.2532 -0.4375 -0.0293
12268TIP3    H158219   1.691   0.074  16.643 -0.2166 -1.6460  0.0919
12268TIP3    H258220   1.559   0.108  16.709 -0.1929 -2.7919  0.7538
12269TIP3   OH258221   4.809   4.653   4.653  0.1405  0.0141 -0.5720
12269TIP3    H158222   4.751   4.663   4.729  0.1539 -1.4667 -0.3256
12269TIP3    H258223   4.814   4.558   4.640 -0.6361  0.2263 -3.0247
12270TIP3   OH258224   2.560   3.970  13.082 -0.0215  0.0193 -0.3180
12270TIP3    H158225   2.498   4.038  13.057  0.6951  0.3510 -1.2189
12270TIP3    H258226   2.584   3.993  13.172  0.3998  1.1088 -0.6889
12271TIP3   OH258227   3.354   3.491   0.876  0.1248 -0.0908  0.3980
12271TIP3    H158228   3.270   3.471   0.835 -0.9663 -0.1987  2.5437
12271TIP3    H258229   3.416   3.431   0.835 -0.4023  1.2028 -2.5283
12272TIP3   OH258230   6.457   0.523   1.715  0.0125 -0.4788  0.3264
12272TIP3    H158231   6.550   0.545   1.722  0.0912 -0.7027  0.0076
12272TIP3    H258232   6.426   0.572   1.639  0.1564 -1.3451 -0.3019
12273TIP3   OH258233   2.981   0.087   2.991  0.1492  0.2892  0.2495
12273TIP3    H158234   3.070   0.067   3.018  0.1252  0.4922  0.4790
12273TIP3    H258235   2.927   0.019   3.032  0.3151 -0.4587 -0.7464
12274TIP3   OH258236   4.793   2.634   3.226  0.4448  0.0348  0.2795
12274TIP3    H158237   4.807   2.642   3.320 -1.9093  0.7593  0.6257
12274TIP3    H258238   4.719   2.574   3.217  1.1801 -0.7349 -1.1919
12275TIP3   OH258239   1.222   1.840   2.160  0.4789  0.5532 -0.7310
12275TIP3    H158240   1.228   1.921   2.210  1.1256  0.7195 -1.0568
12275TIP3    H258241   1.181   1.777   2.220 -0.2619  1.1808 -0.5638
12276TIP3   OH258242   6.451   3.239  14.673 -0.1814 -0.4000 -0.3027
12276TIP3    H158243   6.486   3.245  14.762 -0.1988  0.0976 -0.3299
12276TIP3    H258244   6.361   3.211  14.684 -0.5784  0.8995 -0.0907
12277TIP3   OH258245   0.359   4.594   5.877  0.3704  0.1069  0.1731
12277TIP3    H158246   0.310   4.609   5.958  0.3969 -1.4392  0.4981
12277TIP3    H258247   0.394   4.506   5.886 -0.8092 -0.6745 -2.1537
12278TIP3   OH258248   2.530   4.249   0.997  0.0018  0.6354 -0.6890
12278TIP3    H158249   2.597   4.317   0.997  0.9556 -0.2934  0.0762
12278TIP3    H258250   2.570   4.174   1.040 -1.8702  0.3907  0.7848
12279TIP3   OH258251   2.310   0.454  10.444  0.0705 -0.3815 -0.1023
12279TIP3    H158252   2.312   0.548  10.428 -1.4388 -0.2161  0.4987
12279TIP3    H258253   2.383   0.419  10.393  1.0798  1.1849  0.1973
12280TIP3   OH258254   3.550   3.079   3.726 -0.2280 -0.1781  0.4709
12280TIP3    H158255   3.622   3.103   3.668  0.2428 -0.9298  0.7378
12280TIP3    H258256   3.480   3.051   3.667 -0.0922 -0.0214  0.2338
12281TIP3   OH258257   0.288   0.899   1.063  0.4011  0.0287 -0.1254
12281TIP3    H158258   0.376   0.899   1.102  0.5034 -0.8540 -0.3236
12281TIP3    H258259   0.303   0.883   0.970  0.2161  2.9481 -0.7584
12282TIP3   OH258260   6.035   1.722   5.467 -0.2417 -0.2746 -0.2205
12282TIP3    H158261   5.976   1.734   5.541  0.4329  0.8550  0.1524
12282TIP3    H258262   6.078   1.807   5.457  1.2350 -1.0443 -0.5637
12283TIP3   OH258263   2.592   6.312   3.012 -0.0629 -0.2337 -0.0039
12283TIP3    H158264   2.557   6.241   2.957 -0.7506  1.4412 -1.8270
12283TIP3    H258265   2.516   6.345   3.059  0.0520  0.0218  0.0002
12284TIP3   OH258266   3.601   3.478   5.384  0.1931  0.4982 -0.0100
12284TIP3    H158267   3.590   3.491   5.289 -2.8513  1.1741  0.3028
12284TIP3    H258268   3.695   3.483   5.398  0.7669  0.3570 -2.9968
12285TIP3   OH258269   4.115   5.289  16.840 -0.0769 -0.4589  0.4188
12285TIP3    H158270   4.096   5.203  16.876  1.8500 -0.5393  1.3780
12285TIP3    H258271   4.115   5.348  16.916 -3.2042  0.8405 -0.4100
12286TIP3   OH258272   0.506   2.630   0.179  0.2204 -0.2579 -0.1125
12286TIP3    H158273   0.462   2.548   0.157 -1.5481 -0.0316  2.2039
12286TIP3    H258274   0.508   2.632   0.274  0.4796  2.2451 -0.0932
12287TIP3   OH258275   1.486   0.723  16.050 -0.6411  0.5165 -0.2011
12287TIP3    H158276   1.468   0.662  15.977 -0.3138  0.8408 -0.5555
12287TIP3    H258277   1.578   0.709  16.071 -0.4734  1.1241 -0.5098
12288TIP3   OH258278   3.830   2.685   1.167 -0.2411 -0.5175 -0.0032
12288TIP3    H158279   3.910   2.700   1.117 -0.9930 -1.8485 -1.6841
12288TIP3    H258280   3.794   2.604   1.132 -2.2217 -0.0805  0.8610
12289TIP3   OH258281   6.316   2.453   0.584 -0.1767  0.5967 -0.1510
12289TIP3    H158282   6.391   2.427   0.637  1.2713  0.4506 -2.1380
12289TIP3    H258283   6.276   2.526   0.632  2.9128  2.5633 -0.2721
12290TIP3   OH258284   1.389   3.196  14.403 -0.3538 -0.1008  0.0461
12290TIP3    H158285   1.385   3.284  14.366 -0.6136 -0.2186 -0.2082
12290TIP3    H258286   1.305   3.156  14.380 -0.9723  0.1754  1.6446
12291TIP3   OH258287   0.673   0.170  12.088  0.3314 -0.7633  0.5671
12291TIP3    H158288   0.733   0.125  12.029  0.2241 -1.4516  0.9731
12291TIP3    H258289   0.691   0.263  12.074  0.1762 -0.8977 -0.6849
12292TIP3   OH258290   4.102   3.249   1.568  0.1526 -0.6141 -0.1250
12292TIP3    H158291   4.069   3.303   1.640  0.5501  0.9419 -1.0734
12292TIP3    H258292   4.058   3.164   1.580  0.2532 -0.4133  1.9513
12293TIP3   OH258293   4.316   3.486  12.502 -0.1203  0.5720  0.0176
12293TIP3    H158294   4.231   3.442  12.502 -1.2741  2.4710 -3.0565
12293TIP3    H258295   4.379   3.416  12.516 -2.0754 -1.1455  0.8219
12294TIP3   OH258296   4.581   5.951  11.879  0.1387 -0.1421  0.1493
12294TIP3    H158297   4.615   5.925  11.793  1.2665 -0.8221  0.7702
12294TIP3    H258298   4.498   5.906  11.887  0.1207 -0.2315 -0.5063
12295TIP3   OH258299   3.725   6.555  12.135  0.6618 -0.2176 -0.0050
12295TIP3    H158300   3.729   6.465  12.167  0.4959 -0.8763 -1.7354
12295TIP3    H258301   3.803   6.597  12.171  0.8948 -1.1275  0.5809
12296TIP3   OH258302   6.762   3.783   5.436  0.2752 -0.1528 -0.0708
12296TIP3    H158303   6.810   3.836   5.499  1.0929 -0.9910  0.0389
12296TIP3    H258304   6.670   3.805   5.450  0.6011  1.3082 -0.1162
12297TIP3   OH258305   0.252   2.374   0.969 -0.2731  0.2178  0.6676
12297TIP3    H158306   0.223   2.333   0.887  1.9641  1.3701 -0.8021
12297TIP3    H258307   0.282   2.301   1.023  0.5893 -0.4087 -0.6010
12298TIP3   OH258308   1.923   6.581  12.629  1.0331  0.3051 -0.2037
12298TIP3    H158309   1.931   6.609  12.537 -0.8465 -0.6158 -0.6770
12298TIP3    H258310   1.831   6.595  12.651  1.5821  1.1828  1.8101
12299TIP3   OH258311   4.967   3.428  13.737  0.2130  0.2697 -0.1245
12299TIP3    H158312   4.930   3.341  13.751 -0.1592 -0.0678 -2.6295
12299TIP3    H258313   5.028   3.441  13.809 -2.4889 -0.4359  2.5048
12300TIP3   OH258314   3.414   1.837  14.831  0.3216 -0.1051 -0.0590
12300TIP3    H158315   3.334   1.824  14.780  1.2864 -0.6074 -1.5231
12300TIP3    H258316   3.427   1.932  14.833  1.0393 -0.1081 -2.0985
12301TIP3   OH258317   5.437   1.366   4.790  0.1288  0.0923  0.1675
12301TIP3    H158318   5.401   1.447   4.826 -1.9197 -1.5827  2.1212
12301TIP3    H258319   5.406   1.365   4.699  0.6042  1.6771 -0.0536
12302TIP3   OH258320   3.852   1.875   0.440  0.1026 -0.0002  0.2076
12302TIP3    H158321   3.825   1.941   0.376  0.7058  0.3268  0.2835
12302TIP3    H258322   3.770   1.845   0.479 -0.2885 -0.3238 -0.8231
12303TIP3   OH258323   2.757   5.108   1.182 -0.1515  0.4698  0.4924
12303TIP3    H158324   2.677   5.058   1.164 -0.9401  2.2749 -1.3276
12303TIP3    H258325   2.821   5.074   1.119 -0.0922  0.4276  0.5748
12304TIP3   OH258326   5.051   6.091   5.807 -0.1203 -0.5805 -0.2384
12304TIP3    H158327   5.056   6.072   5.900  1.2410  0.4536 -0.0720
12304TIP3    H258328   5.140   6.078   5.774  0.1550  1.9606 -0.7596
12305TIP3   OH258329   6.302   3.136   2.190 -0.2510  0.7471  0.1236
12305TIP3    H158330   6.376   3.100   2.142 -0.0995  0.7970  0.3207
12305TIP3    H258331   6.315   3.231   2.187 -1.7684  0.9756 -2.2668
12306TIP3   OH258332   0.500   2.975  11.099 -0.2662  0.0214  0.0147
12306TIP3    H158333   0.468   3.064  11.114 -1.2479 -0.5352  1.3565
12306TIP3    H258334   0.496   2.964  11.004 -2.8518  0.4437  0.0119
12307TIP3   OH258335   3.756   1.737   2.965 -0.5350 -0.6392 -0.2759
12307TIP3    H158336   3.845   1.705   2.947 -0.1372 -0.3926  1.1530
12307TIP3    H258337   3.746   1.812   2.906 -0.4189 -1.6335 -1.6015
12308TIP3   OH258338   5.446   6.571  14.191 -0.0520  0.0746  0.2106
12308TIP3    H158339   5.539   6.576  14.172 -0.2254 -1.2472 -1.1755
12308TIP3    H258340   5.405   6.630  14.128 -0.2306 -0.1579  0.1083
12309TIP3   OH258341   6.568   0.163  13.826 -0.2909  0.1340  0.1961
12309TIP3    H158342   6.544   0.129  13.739  0.3014  0.6138 -0.1637
12309TIP3    H258343   6.640   0.107  13.854 -1.6058 -1.1463  1.1661
12310TIP3   OH258344   3.822   3.093  11.528 -0.0860 -0.3547  0.3333
12310TIP3    H158345   3.912   3.068  11.546 -0.0060 -0.2666  0.0532
12310TIP3    H258346   3.813   3.088  11.433 -0.6173 -1.1735  0.4118
12311TIP3   OH258347   2.397   1.761  11.526 -0.0684 -0.1435 -0.7055
12311TIP3    H158348   2.422   1.703  11.598 -0.6022  0.3297 -0.1334
12311TIP3    H258349   2.480   1.783  11.484  0.3226  0.1085  0.1766
12312TIP3   OH258350   4.113   5.659  10.524  0.1888 -0.4466 -0.4519
12312TIP3    H158351   4.162   5.721  10.469 -0.3275  1.9220  1.5585
12312TIP3    H258352   4.173   5.639  10.596 -0.8752  0.5812  0.7696
12313TIP3   OH258353   4.904   3.991  13.254  0.5479 -0.1807 -0.3785
12313TIP3    H158354   4.823   4.039  13.269  0.7713  0.4980 -1.2813
12313TIP3    H258355   4.973   4.049  13.285  0.7705 -0.1929 -0.8323
12314TIP3   OH258356   4.026   2.815  17.291 -0.0634  0.1915 -1.0095
12314TIP3    H158357   3.953   2.875  17.310 -0.3582 -0.2728 -0.6746
12314TIP3    H258358   4.104   2.867  17.308 -0.3180  0.5255 -0.8416
12315TIP3   OH258359   5.976   5.723   0.147  0.6309  0.2030  0.0171
12315TIP3    H158360   5.918   5.742   0.221 -1.3104  0.7874 -1.5707
12315TIP3    H258361   5.928   5.659   0.095  0.8672  1.5094 -1.9224
12316TIP3   OH258362   6.545   4.600  11.323  0.7293  0.3149 -0.0248
12316TIP3    H158363   6.599   4.634  11.252  1.9714  3.9741  2.3546
12316TIP3    H258364   6.471   4.660  11.328 -0.0843 -0.7188  0.8975
12317TIP3   OH258365   4.803   4.929  12.878  0.1007 -0.2848  0.4328
12317TIP3    H158366   4.884   4.939  12.928 -0.1179 -0.7852  0.9072
12317TIP3    H258367   4.831   4.915  12.788  0.5226  0.1128  0.5019
12318TIP3   OH258368   6.334   6.237   0.914  0.3990  0.0382  0.4665
12318TIP3    H158369   6.388   6.304   0.957 -0.8889  1.3427  0.1535
12318TIP3    H258370   6.366   6.236   0.824  0.0659  0.6447  0.3360
12319TIP3   OH258371   3.779   2.858  14.134  0.6273 -0.0377  0.2271
12319TIP3    H158372   3.799   2.898  14.050 -0.1577 -0.0874  0.0111
12319TIP3    H258373   3.723   2.922  14.178  0.0178 -0.5439  0.2013
12320TIP3   OH258374   2.255   2.705  16.012  0.1511 -0.3346  0.0603
12320TIP3    H158375   2.301   2.783  15.982 -1.4557  0.6395  0.0124
12320TIP3    H258376   2.322   2.638  16.018  1.4281  0.8422 -0.6687
12321TIP3   OH258377   1.291   5.593   1.403 -0.0688 -0.0805 -0.1037
12321TIP3    H158378   1.261   5.503   1.392  0.6180 -0.2016 -1.1075
12321TIP3    H258379   1.354   5.606   1.332 -1.4790  1.7747 -1.0828
12322TIP3   OH258380   6.673   4.367   1.931 -0.1650 -0.4239  0.2034
12322TIP3    H158381   6.748   4.377   1.990 -0.2271  0.8719  0.0855
12322TIP3    H258382   6.599   4.401   1.981 -0.9100 -2.6337  0.7147
12323TIP3   OH258383   1.641   5.674   5.584 -0.1942 -0.0238  0.0024
12323TIP3    H158384   1.580   5.686   5.511 -2.1409 -1.0072  1.3926
12323TIP3    H258385   1.669   5.762   5.607 -1.5943  0.5177 -0.2882
12324TIP3   OH258386   4.834   5.977  12.556 -0.3624  0.0867  0.3687
12324TIP3    H158387   4.901   5.915  12.526  0.8797  0.5652  1.9704
12324TIP3    H258388   4.878   6.027  12.625 -0.9745  3.4360 -1.4968
12325TIP3   OH258389   2.243   2.544   2.212  0.2594  0.6363 -0.0994
12325TIP3    H158390   2.263   2.637   2.214 -1.2385  1.0782  4.0409
12325TIP3    H258391   2.277   2.510   2.295 -2.2929 -1.7021  0.1312
12326TIP3   OH258392   2.162   1.406  16.087  0.2238  0.2857 -0.1632
12326TIP3    H158393   2.158   1.466  16.012 -0.4656  0.2411 -0.1746
12326TIP3    H258394   2.202   1.326  16.052  1.5229  0.8691 -0.0508
12327TIP3   OH258395   5.211   2.834  16.040 -0.2607  0.2934 -0.2918
12327TIP3    H158396   5.275   2.839  16.111 -0.8325  1.8868  0.1518
12327TIP3    H258397   5.192   2.740  16.032  0.8599 -0.0482  0.6942
12328TIP3   OH258398   2.596   1.375   6.091 -0.5771 -0.0127 -0.1148
12328TIP3    H158399   2.589   1.470   6.093 -0.4744 -0.0176  1.1225
12328TIP3    H258400   2.514   1.343   6.129  0.1880 -0.3503  1.3303
12329TIP3   OH258401   1.197   0.346  10.783  0.0045  0.2128  0.0251
12329TIP3    H158402   1.206   0.441  10.788  1.0411  0.1001  0.6863
12329TIP3    H258403   1.123   0.325  10.840 -1.3982  0.7608 -1.5360
12330TIP3   OH258404   3.825   3.775   0.207 -0.2091  0.2443  0.3441
12330TIP3    H158405   3.910   3.735   0.224  0.4833  2.0606  1.3254
12330TIP3    H258406   3.762   3.707   0.232  0.9133 -0.9879 -0.0232
12331TIP3   OH258407   5.740   3.640   4.568  0.3523  0.2204  0.2217
12331TIP3    H158408   5.797   3.611   4.640  0.1762  0.3101  0.4006
12331TIP3    H258409   5.652   3.609   4.594  0.4307 -0.5287 -0.3886
12332TIP3   OH258410   6.303   0.253  11.273 -0.0327  0.4506  0.0357
12332TIP3    H158411   6.254   0.293  11.200  0.5660  0.8312 -0.1621
12332TIP3    H258412   6.388   0.232  11.237 -0.7923 -2.4455 -0.2933
12333TIP3   OH258413   1.370   2.500  15.925  0.1046  0.4129 -0.1590
12333TIP3    H158414   1.374   2.588  15.961  0.3047  0.5618 -0.5387
12333TIP3    H258415   1.333   2.512  15.838 -3.3881 -0.2610  1.0779
12334TIP3   OH258416   3.152   1.717  14.558  0.6314 -0.2869  0.1328
12334TIP3    H158417   3.088   1.712  14.487  0.2337 -0.3350  0.4976
12334TIP3    H258418   3.175   1.626  14.576  1.7133 -0.2301 -0.8155
12335TIP3   OH258419   6.143   2.244   0.503 -0.0202  0.0958 -0.0143
12335TIP3    H158420   6.192   2.325   0.518 -1.0453  0.8178 -0.4472
12335TIP3    H258421   6.208   2.183   0.468  0.8961  0.5354  0.8442
12336TIP3   OH258422   1.611   1.353   4.873 -0.6553  0.4240 -0.0632
12336TIP3    H158423   1.583   1.386   4.959 -2.3171  0.4801 -0.5964
12336TIP3    H258424   1.693   1.307   4.891 -1.2028  0.0302  1.6336
12337TIP3   OH258425   6.133   5.290  14.566 -0.6468  0.0990 -0.4818
12337TIP3    H158426   6.099   5.211  14.523  0.9236 -0.3494 -0.9879
12337TIP3    H258427   6.161   5.260  14.653  0.6358 -0.1140 -0.9386
12338TIP3   OH258428   5.625   2.197  16.502 -0.1527 -0.4073 -0.0996
12338TIP3    H158429   5.583   2.251  16.435 -1.5447 -0.0867  0.9709
12338TIP3    H258430   5.707   2.169  16.462 -1.0510 -0.4675 -2.0419
12339TIP3   OH258431   1.809   6.682  12.403 -0.3318 -0.1419  0.6299
12339TIP3    H158432   1.742   6.747  12.423 -1.6780 -0.6371 -1.8611
12339TIP3    H258433   1.761   6.607  12.366  1.4576 -1.0785  0.0427
12340TIP3   OH258434   5.842   4.683   3.260  0.3927  0.8368 -0.4918
12340TIP3    H158435   5.845   4.709   3.168  0.5591  2.4442 -0.0513
12340TIP3    H258436   5.888   4.752   3.306  0.9122 -0.2966  0.7491
12341TIP3   OH258437   6.427   3.524  13.936  0.2042  0.3059 -0.0085
12341TIP3    H158438   6.366   3.460  13.898 -0.2400  0.6113  0.1768
12341TIP3    H258439   6.402   3.528  14.028  0.2845  0.6797 -0.0021
12342TIP3   OH258440   4.708   5.404   1.746  0.2652 -0.0786 -0.7405
12342TIP3    H158441   4.634   5.372   1.695  0.2061  1.8097 -1.9415
12342TIP3    H258442   4.668   5.438   1.826  0.0760 -0.8249 -0.5085
12343TIP3   OH258443   1.812   6.032   6.220  0.0933  0.8575 -0.5301
12343TIP3    H158444   1.859   5.954   6.190  1.4007  2.3483 -2.6733
12343TIP3    H258445   1.721   6.005   6.224  0.4064 -0.5861 -1.9740
12344TIP3   OH258446   2.661   2.552  13.824  0.1253 -0.1437 -0.0827
12344TIP3    H158447   2.661   2.468  13.870  1.3422 -0.4872 -0.6659
12344TIP3    H258448   2.578   2.593  13.849  0.6229 -0.4102  2.2207
12345TIP3   OH258449   5.044   3.268  11.239 -0.2934  0.7253 -0.2380
12345TIP3    H158450   5.139   3.274  11.244 -0.2223  0.3625 -1.0640
12345TIP3    H258451   5.027   3.177  11.212 -0.9106  0.5213  0.7438
12346TIP3   OH258452   6.377   5.089  13.434  0.1456  0.1163  0.4468
12346TIP3    H158453   6.295   5.063  13.392  0.2735  1.2862 -0.5963
12346TIP3    H258454   6.363   5.180  13.459  1.0822  0.3008  0.3373
12347TIP3   OH258455   4.095   1.540  14.009  0.0074  0.0822 -0.1768
12347TIP3    H158456   4.053   1.623  14.034  1.0823 -0.2544  3.2993
12347TIP3    H258457   4.169   1.532  14.069  2.2483 -1.6535 -2.9197
12348TIP3   OH258458   4.168   1.678  14.347  0.0166  0.4451  0.7385
12348TIP3    H158459   4.082   1.649  14.375 -0.2325  0.8094  0.3745
12348TIP3    H258460   4.209   1.601  14.309 -0.2149  0.3138  0.7569
12349TIP3   OH258461   2.988   2.123   4.023  0.3072  0.7489  0.4577
12349TIP3    H158462   2.899   2.093   4.005  1.1577 -1.8905  0.2819
12349TIP3    H258463   3.005   2.190   3.958 -0.6577 -0.6061 -1.2613
12350TIP3   OH258464   3.998   1.380  11.374  0.4296  0.7319 -0.6330
12350TIP3    H158465   3.983   1.380  11.279  1.9738  1.5707 -0.9056
12350TIP3    H258466   4.053   1.304  11.390 -1.6995 -0.7895 -0.0128
12351TIP3   OH258467   4.729   6.743   4.612  0.2376 -0.1344  0.2439
12351TIP3    H158468   4.743   6.710   4.523 -0.9025 -0.4392  0.1732
12351TIP3    H258469   4.811   6.789   4.633  0.2881  0.4863 -1.1988
12352TIP3   OH258470   6.143   4.949   5.945 -0.6675  0.1160  0.2321
12352TIP3    H158471   6.058   4.970   5.983 -0.2980  0.6621  0.7757
12352TIP3    H258472   6.178   4.879   6.000 -1.2352 -0.8879 -0.6583
12353TIP3   OH258473   4.276   5.631   2.194 -0.1349  0.6685  0.2148
12353TIP3    H158474   4.218   5.632   2.270 -0.7315 -0.9073 -0.1797
12353TIP3    H258475   4.242   5.702   2.138 -2.0045 -0.4650 -0.1882
12354TIP3   OH258476   6.562   5.862  17.237 -0.2878  0.0208  0.0147
12354TIP3    H158477   6.590   5.848  17.147 -0.9562  1.1383 -0.3835
12354TIP3    H258478   6.531   5.776  17.267  2.5628 -1.0707  0.1657
12355TIP3   OH258479   4.453   6.122   3.368 -0.0314  0.1890  0.0782
12355TIP3    H158480   4.507   6.191   3.329  0.7176  0.1622  1.0358
12355TIP3    H258481   4.496   6.040   3.342  0.6576  0.1805  1.1963
12356TIP3   OH258482   2.694   6.091   3.860 -0.4146  0.2966  0.1686
12356TIP3    H158483   2.668   6.030   3.929 -1.0680  0.2858 -0.0760
12356TIP3    H258484   2.644   6.061   3.783 -0.2739  0.7685 -0.1046
12357TIP3   OH258485   5.413   3.050   1.599 -0.1173  0.3063 -0.5088
12357TIP3    H158486   5.411   2.999   1.519 -1.0334  0.2847 -0.4812
12357TIP3    H258487   5.499   3.093   1.598 -0.5252  1.1735 -2.0428
12358TIP3   OH258488   1.174   4.708   2.425 -0.2786 -0.1836  0.0933
12358TIP3    H158489   1.136   4.663   2.350  1.9177 -0.7143 -0.7852
12358TIP3    H258490   1.205   4.792   2.390 -0.1476  0.0039  0.6445
12359TIP3   OH258491   4.606   1.658   2.139 -0.0097 -0.2081  0.2009
12359TIP3    H158492   4.695   1.684   2.162  0.7232 -1.1868 -1.4145
12359TIP3    H258493   4.594   1.689   2.050 -0.3442 -2.2820 -0.5239
12360TIP3   OH258494   5.999   0.907   1.732  0.0839 -0.0304  0.1509
12360TIP3    H158495   5.980   0.890   1.824  2.9345 -0.3739  0.7436
12360TIP3    H258496   5.970   0.997   1.718 -0.4754 -0.0045  1.3371
12361TIP3   OH258497   4.863   6.655  16.503 -0.1571 -0.5552  0.1363
12361TIP3    H158498   4.907   6.733  16.537  0.6451 -0.3076 -1.3894
12361TIP3    H258499   4.927   6.585  16.515 -0.0106 -0.5356 -0.5179
12362TIP3   OH258500   5.080   4.029  15.465  0.1520 -0.0036 -0.5008
12362TIP3    H158501   5.159   4.083  15.470  1.5134 -1.5572 -3.1616
12362TIP3    H258502   5.009   4.092  15.452  1.1536  1.3156  0.1595
12363TIP3   OH258503   6.266   5.495  13.441 -0.1524 -0.2069  0.5103
12363TIP3    H158504   6.312   5.579  13.432  0.9320 -0.7253  1.0326
12363TIP3    H258505   6.280   5.470  13.532 -0.5295 -0.9165  0.3764
12364TIP3   OH258506   3.139   5.615  15.036 -0.3361  1.1014  0.2001
12364TIP3    H158507   3.046   5.592  15.037 -0.0931 -0.1022 -1.3574
12364TIP3    H258508   3.166   5.610  15.128 -1.5242  0.2128  0.5306
12365TIP3   OH258509   2.523   2.280   2.094 -0.6058 -0.0681  1.0534
12365TIP3    H158510   2.577   2.331   2.034  0.3688 -1.4665  0.6859
12365TIP3    H258511   2.584   2.248   2.160 -0.9575 -1.6098  0.6759
12366TIP3   OH258512   1.375   2.207  10.903  0.0679  0.8370  0.0116
12366TIP3    H158513   1.461   2.246  10.894  0.2811  0.0461 -1.8144
12366TIP3    H258514   1.340   2.204  10.814 -1.2058 -0.2602  0.5070
12367TIP3   OH258515   2.435   4.746   2.013 -0.6913  0.2787  0.2017
12367TIP3    H158516   2.416   4.653   1.998 -2.3043  0.5065  0.7427
12367TIP3    H258517   2.358   4.792   1.981  0.4636  1.5243 -0.8925
12368TIP3   OH258518   0.599   3.359   0.869 -0.3585  0.1736 -0.4627
12368TIP3    H158519   0.665   3.324   0.810 -0.2626 -0.1149 -0.1870
12368TIP3    H258520   0.576   3.286   0.926 -2.6362 -0.4171 -2.0294
12369TIP3   OH258521   4.425   2.369   4.338 -0.4381  0.1863 -0.1059
12369TIP3    H158522   4.376   2.303   4.289  0.6752  0.4072 -1.5638
12369TIP3    H258523   4.401   2.452   4.297 -0.7883  0.5645  0.8376
12370TIP3   OH258524   3.344   0.587   4.437  0.1282 -0.0725 -0.0194
12370TIP3    H158525   3.376   0.630   4.516 -1.4323 -1.7743  1.6510
12370TIP3    H258526   3.353   0.652   4.368  2.7553  1.0635  1.2478
12371TIP3   OH258527   4.695   0.604  17.052  0.5496 -0.0211 -0.4356
12371TIP3    H158528   4.611   0.632  17.089 -0.3855  0.2220 -2.5872
12371TIP3    H258529   4.679   0.514  17.022  0.8808  0.1812 -1.2656
12372TIP3   OH258530   4.661   6.340   3.411  0.3885  0.3997 -0.1466
12372TIP3    H158531   4.655   6.373   3.501  1.5162 -0.0461  0.1112
12372TIP3    H258532   4.629   6.412   3.357  0.9352  1.1744  0.5321
12373TIP3   OH258533   0.079   3.811   0.300  0.0251  0.1157  0.5774
12373TIP3    H158534   0.086   3.720   0.329 -1.4560  0.0936  0.9895
12373TIP3    H258535   0.151   3.856   0.344  0.0661 -0.6471  1.3255
12374TIP3   OH258536   1.006   2.999   2.900 -0.7262  0.2708  0.8421
12374TIP3    H158537   0.961   2.925   2.941  1.0881 -1.2333  0.2510
12374TIP3    H258538   1.003   2.979   2.806  2.0762 -0.5214  0.8276
12375TIP3   OH258539   0.721   2.776  15.143  0.1214 -0.3214  0.2953
12375TIP3    H158540   0.741   2.869  15.137 -0.9482  0.0100  1.4275
12375TIP3    H258541   0.803   2.732  15.122  0.6761  0.8682 -0.1186
12376TIP3   OH258542   0.909   2.378   3.493 -0.5695  0.1778 -0.4625
12376TIP3    H158543   0.966   2.302   3.479 -1.2148 -0.9263  2.1593
12376TIP3    H258544   0.824   2.350   3.459 -1.3765 -1.2939  2.4211
12377TIP3   OH258545   0.484   1.189   4.626 -0.1906  0.3127 -0.3761
12377TIP3    H158546   0.497   1.135   4.704  3.0381  0.9803 -0.2831
12377TIP3    H258547   0.475   1.278   4.659  0.2603  0.4884 -0.7070
12378TIP3   OH258548   3.740   5.627  12.947  0.8325 -0.1931  0.2504
12378TIP3    H158549   3.686   5.685  12.892 -3.4591 -2.4946  1.5263
12378TIP3    H258550   3.782   5.568  12.885 -1.1019 -0.5320 -0.8464
12379TIP3   OH258551   5.453   2.732  14.464  0.6492  0.1578  0.2305
12379TIP3    H158552   5.478   2.798  14.400  1.9325  0.8489  1.4082
12379TIP3    H258553   5.528   2.672  14.467 -0.0590 -0.7730 -0.0417
12380TIP3   OH258554   4.899   1.977   1.993  0.4760 -0.6536  0.2725
12380TIP3    H158555   4.958   1.979   2.068  2.5316 -3.7884 -1.0439
12380TIP3    H258556   4.952   2.009   1.920 -0.5466 -0.3879 -0.3766
12381TIP3   OH258557   1.844   2.577  15.484  0.2479 -0.1227  0.2953
12381TIP3    H158558   1.783   2.515  15.446 -0.7302  0.7254  0.4355
12381TIP3    H258559   1.913   2.523  15.524 -0.1870 -1.0744 -0.2306
12382TIP3   OH258560   6.228   6.121  13.396  0.4287 -0.4757 -0.1219
12382TIP3    H158561   6.275   6.105  13.314  1.4089 -2.3251  0.7426
12382TIP3    H258562   6.286   6.180  13.445 -0.6129  1.4442 -1.0911
12383TIP3   OH258563   3.158   6.304   3.196 -0.4445 -0.1908 -0.1691
12383TIP3    H158564   3.172   6.265   3.110  0.2333  1.3548 -0.8019
12383TIP3    H258565   3.102   6.242   3.242 -0.3820 -1.3055 -1.5295
12384TIP3   OH258566   0.889   6.545   1.388  0.1297  0.1347  0.2119
12384TIP3    H158567   0.943   6.587   1.320 -0.3682 -0.1348 -0.3599
12384TIP3    H258568   0.896   6.451   1.370  1.7305 -0.1247  1.8532
12385TIP3   OH258569   0.946   2.632  15.048  0.8089 -0.5411  0.1071
12385TIP3    H158570   1.016   2.692  15.023  1.4046 -0.5319  1.6701
12385TIP3    H258571   0.975   2.547  15.015  0.9908 -0.3387 -0.2609
12386TIP3   OH258572   4.890   3.134  12.247 -0.5788  0.3787  0.5453
12386TIP3    H158573   4.971   3.132  12.196 -1.8473  0.9737 -1.6312
12386TIP3    H258574   4.866   3.227  12.250 -0.6564  0.3344  2.1034
12387TIP3   OH258575   4.134   4.957  14.194 -0.4478 -0.2725 -0.1457
12387TIP3    H158576   4.043   4.933  14.210 -0.8728  0.5595 -1.1975
12387TIP3    H258577   4.181   4.874  14.193 -1.0434 -0.6602  1.1783
12388TIP3   OH258578   1.471   0.970  16.419  0.3858  0.2120 -0.1443
12388TIP3    H158579   1.515   0.954  16.502 -0.4760  0.7133  0.4285
12388TIP3    H258580   1.537   0.952  16.352  0.4422 -2.5839  0.5276
12389TIP3   OH258581   4.941   4.202   3.004 -0.0217  0.1071  0.1616
12389TIP3    H158582   4.864   4.177   2.954 -1.1206  0.7463  1.4928
12389TIP3    H258583   4.956   4.294   2.982  2.8962 -0.9248 -3.2624
12390TIP3   OH258584   3.941   2.747   2.372  0.0077  0.0277  0.1607
12390TIP3    H158585   3.985   2.784   2.295  1.3289 -1.8687 -0.0581
12390TIP3    H258586   3.972   2.799   2.445  0.5729  0.3784 -0.3187
12391TIP3   OH258587   2.381   2.781  13.113 -0.1182 -0.0641 -0.3155
12391TIP3    H158588   2.434   2.839  13.060  0.6038  0.0343  0.4966
12391TIP3    H258589   2.410   2.796  13.203 -2.2153  0.7456  0.2931
12392TIP3   OH258590   4.398   5.694  17.273  0.2140  0.3129  0.0764
12392TIP3    H158591   4.422   5.616  17.224  1.8892 -0.1349  1.5087
12392TIP3    H258592   4.411   5.767  17.212  0.0521 -0.3983 -0.8149
12393TIP3   OH258593   2.819   5.236  16.104 -0.5727 -0.4315 -0.1985
12393TIP3    H158594   2.770   5.296  16.160  2.1378  1.2332  0.5623
12393TIP3    H258595   2.817   5.152  16.151  0.5035  0.5825  1.7719
12394TIP3   OH258596   1.934   1.492   2.565  0.2191 -0.1797 -0.5301
12394TIP3    H158597   1.981   1.546   2.628 -1.2073  0.4935 -0.0011
12394TIP3    H258598   1.999   1.469   2.499  1.1805  1.0196 -0.0202
12395TIP3   OH258599   0.113   2.459   0.129 -0.2027 -0.1719 -0.9461
12395TIP3    H158600   0.096   2.467   0.223  0.0658 -1.1715 -0.7898
12395TIP3    H258601   0.091   2.368   0.109  1.0224 -0.3511 -1.5646
12396TIP3   OH258602   0.534   3.888  12.904 -0.2170 -0.3634 -0.2204
12396TIP3    H158603   0.627   3.874  12.921 -0.5324 -2.3833  0.1342
12396TIP3    H258604   0.497   3.910  12.989 -0.1351  0.0607 -0.2916
12397TIP3   OH258605   2.763   0.275   2.289 -0.3406 -0.4501  0.5712
12397TIP3    H158606   2.673   0.249   2.310 -0.5822  0.1765  0.3063
12397TIP3    H258607   2.815   0.199   2.315 -0.9621 -0.8957  0.5462
12398TIP3   OH258608   5.099   2.937  17.204  0.2719 -0.2950 -0.0668
12398TIP3    H158609   5.006   2.924  17.187  0.1926  2.4464 -2.5607
12398TIP3    H258610   5.105   2.944  17.300 -1.8494 -1.7336  0.2234
12399TIP3   OH258611   4.093   2.423  15.174 -0.6406  0.7716  1.1377
12399TIP3    H158612   4.022   2.467  15.128 -1.2971 -0.4881  0.8879
12399TIP3    H258613   4.130   2.363  15.110  1.7548  2.4939  0.7553
12400TIP3   OH258614   2.640   0.281  13.982  0.0707 -0.0551 -0.0781
12400TIP3    H158615   2.629   0.187  13.993 -1.1649 -0.2030 -2.1964
12400TIP3    H258616   2.574   0.306  13.919  2.1986  1.7606 -1.7479
12401TIP3   OH258617   1.348   5.892  15.142 -0.1200  0.0784 -0.3583
12401TIP3    H158618   1.373   5.927  15.228  0.1132 -1.6270  0.2967
12401TIP3    H258619   1.421   5.917  15.085  0.8209 -0.6946  0.4629
12402TIP3   OH258620   3.607   2.855  12.775 -0.1290 -0.0326  0.3387
12402TIP3    H158621   3.659   2.813  12.706 -0.9740  0.3391 -0.5588
12402TIP3    H258622   3.544   2.788  12.801 -0.5364  0.1868 -0.0618
12403TIP3   OH258623   1.796   2.819  11.302  0.5345  0.5802 -0.3320
12403TIP3    H158624   1.817   2.904  11.341  1.3939  0.0222  0.4475
12403TIP3    H258625   1.839   2.755  11.358 -0.9470 -0.4449 -0.3135
12404TIP3   OH258626   6.756   5.247  13.279  0.2039  0.1671 -0.2337
12404TIP3    H158627   6.661   5.256  13.282  0.1819  0.9317 -2.0255
12404TIP3    H258628   6.786   5.324  13.231  1.5800 -0.8138 -1.0096
12405TIP3   OH258629   1.274   1.778  12.419  0.8542 -0.2362 -0.0316
12405TIP3    H158630   1.212   1.847  12.441  0.1198 -0.3166 -1.6903
12405TIP3    H258631   1.225   1.718  12.363  1.9806 -1.1424 -0.0931
12406TIP3   OH258632   3.386   0.623  12.965 -0.0332  0.3163 -0.3037
12406TIP3    H158633   3.451   0.583  13.022  1.1756  1.2982 -0.9335
12406TIP3    H258634   3.419   0.608  12.876 -1.8358 -1.1295 -0.8043
12407TIP3   OH258635   6.390   2.606  12.638 -0.1633 -0.4435  0.3949
12407TIP3    H158636   6.432   2.686  12.670  0.0225 -0.0271 -0.8534
12407TIP3    H258637   6.391   2.547  12.713  1.6669 -0.0501  0.7151
12408TIP3   OH258638   3.361   0.605   2.913 -0.4797 -0.0352  0.1356
12408TIP3    H158639   3.324   0.561   2.837 -0.8362  0.1092  0.2269
12408TIP3    H258640   3.393   0.689   2.878  0.2173 -0.3664 -0.0424
12409TIP3   OH258641   3.287   0.097   4.581 -0.3650 -0.3349 -0.1695
12409TIP3    H158642   3.216   0.094   4.646  0.6695  1.4189  1.1302
12409TIP3    H258643   3.287   0.187   4.550  2.1924  0.1249  0.9499
12410TIP3   OH258644   5.883   5.538  17.243 -0.5912  0.0389  0.0275
12410TIP3    H158645   5.857   5.622  17.206 -0.1443 -0.2231 -0.9059
12410TIP3    H258646   5.947   5.503  17.181 -1.7152 -1.5830 -0.2526
12411TIP3   OH258647   5.829   6.471  15.952  0.3036 -0.1323 -0.2718
12411TIP3    H158648   5.908   6.420  15.932 -0.0077 -0.1959 -1.4178
12411TIP3    H258649   5.838   6.493  16.044  4.0241  3.8714 -1.2756
12412TIP3   OH258650   2.873   4.687   1.658  0.2508 -0.2259 -0.1142
12412TIP3    H158651   2.851   4.602   1.619  1.6707 -0.7149  0.0908
12412TIP3    H258652   2.896   4.742   1.583 -1.7555  0.3561 -0.3497
12413TIP3   OH258653   3.981   0.922   5.281 -0.2250 -0.7132  0.7745
12413TIP3    H158654   4.047   0.952   5.344 -0.3444 -0.5710  0.8333
12413TIP3    H258655   3.906   0.899   5.334 -0.8468  0.7700  0.5968
12414TIP3   OH258656   2.769   1.985   3.245 -0.7285 -0.3357  0.3317
12414TIP3    H158657   2.700   1.978   3.179 -0.3420 -1.7383  0.0342
12414TIP3    H258658   2.798   1.894   3.258  1.0100  0.2161  0.4959
12415TIP3   OH258659   1.783   0.103  15.744 -0.1405  0.1575 -0.3943
12415TIP3    H158660   1.703   0.086  15.693 -0.1778 -0.4103 -0.1589
12415TIP3    H258661   1.772   0.050  15.823 -0.2851  1.3824  0.4285
12416TIP3   OH258662   6.580   3.723  10.885 -0.0463 -0.6878 -0.0882
12416TIP3    H158663   6.512   3.740  10.819 -0.1741 -0.3515  0.1287
12416TIP3    H258664   6.661   3.716  10.835  0.1919  1.5426 -0.1250
12417TIP3   OH258665   6.019   0.907   4.280 -0.1987  0.1909 -0.6617
12417TIP3    H158666   5.985   0.820   4.301 -0.2320  0.4707  0.5411
12417TIP3    H258667   6.102   0.912   4.327 -0.5411  1.0623 -0.1052
12418TIP3   OH258668   5.417   3.948  14.725 -0.0423 -0.5725 -0.3875
12418TIP3    H158669   5.478   3.964  14.797 -0.2971  0.4706 -0.3869
12418TIP3    H258670   5.336   3.992  14.752 -0.8926 -2.1247 -0.2821
12419TIP3   OH258671   3.372   5.423   6.921  0.4695 -0.2806  0.1338
12419TIP3    H158672   3.415   5.354   6.972  0.2286 -0.5889 -0.0770
12419TIP3    H258673   3.419   5.503   6.945  0.9016 -0.5514  0.2014
12420TIP3   OH258674   0.164   2.066  11.382  0.0080 -0.5215 -0.3603
12420TIP3    H158675   0.167   2.012  11.303  1.1007  0.6005 -1.1220
12420TIP3    H258676   0.085   2.038  11.427 -0.4971 -1.3812 -1.7128
12421TIP3   OH258677   6.505   4.648   4.150 -0.0532 -0.0575  0.0704
12421TIP3    H158678   6.491   4.561   4.111  2.1125 -0.6555  0.5032
12421TIP3    H258679   6.525   4.705   4.076 -0.3834 -0.1657 -0.1057
12422TIP3   OH258680   6.505   3.776  16.265 -0.5063 -0.2082 -0.2186
12422TIP3    H158681   6.436   3.838  16.244 -0.2686  0.4610  0.8734
12422TIP3    H258682   6.497   3.763  16.360 -0.1538 -1.3564 -0.3360
12423TIP3   OH258683   3.441   1.580  15.527 -0.3886 -0.1674  0.2258
12423TIP3    H158684   3.487   1.603  15.608  1.4859  1.5572 -1.2240
12423TIP3    H258685   3.430   1.485  15.531  1.7295 -0.4142  1.4727
12424TIP3   OH258686   5.567   0.833   1.606 -0.3380  0.1674  0.0681
12424TIP3    H158687   5.648   0.792   1.578 -1.3349  0.3221 -3.4316
12424TIP3    H258688   5.552   0.799   1.694  2.4203 -1.4462  0.0140
12425TIP3   OH258689   2.207   0.149  16.227  0.0243  0.1980  0.4792
12425TIP3    H158690   2.302   0.135  16.228 -0.0495 -0.4793 -0.7055
12425TIP3    H258691   2.181   0.143  16.319  0.7329 -2.3945  0.5711
12426TIP3   OH258692   4.419   6.462  16.071 -0.1091 -0.2935 -0.2902
12426TIP3    H158693   4.409   6.517  16.148  0.1624  0.8094 -1.0145
12426TIP3    H258694   4.330   6.436  16.047 -0.1245 -1.5129  0.9767
12427TIP3   OH258695   2.455   3.163  17.190 -0.0542 -0.3847 -0.0915
12427TIP3    H158696   2.517   3.094  17.166  1.6261 -0.2499  3.2668
12427TIP3    H258697   2.509   3.236  17.217 -1.7366  0.7436  0.4177
12428TIP3   OH258698   3.892   2.823  12.993 -0.1839  0.2401  0.7713
12428TIP3    H158699   3.901   2.891  12.925 -0.0441 -0.3771  0.1592
12428TIP3    H258700   3.981   2.810  13.026 -0.1210 -0.0459  0.4900
12429TIP3   OH258701   5.290   1.598   2.793  0.1117 -0.1728  0.4578
12429TIP3    H158702   5.364   1.604   2.853  0.5059 -0.2749 -0.0100
12429TIP3    H258703   5.320   1.539   2.724 -0.4152 -0.2334  0.2776
12430TIP3   OH258704   4.574   1.348   2.616  0.4693  0.0877  0.0204
12430TIP3    H158705   4.520   1.291   2.670  0.7652 -0.7686 -0.5573
12430TIP3    H258706   4.514   1.415   2.584 -0.0661 -0.3634  0.0716
12431TIP3   OH258707   4.446   4.055   3.286  0.1742  0.1831  0.1980
12431TIP3    H158708   4.528   4.094   3.316  0.7504  1.8182 -3.0156
12431TIP3    H258709   4.430   4.095   3.201 -2.3672 -2.4045 -0.7236
12432TIP3   OH258710   4.831   2.927  13.890 -0.2082  0.5409 -0.2794
12432TIP3    H158711   4.772   2.995  13.923 -2.7378 -0.5151 -2.2569
12432TIP3    H258712   4.862   2.961  13.806  0.3024  0.1819 -0.2407
12433TIP3   OH258713   0.770   5.553   2.480 -0.0924 -0.0987 -0.0694
12433TIP3    H158714   0.825   5.526   2.406  1.8739  0.5152  1.0802
12433TIP3    H258715   0.698   5.601   2.440  1.7358  1.6038 -1.5734
12434TIP3   OH258716   5.306   1.491  10.421  0.4143  0.0600  0.0952
12434TIP3    H158717   5.308   1.568  10.477  2.1147 -0.4278  0.7977
12434TIP3    H258718   5.300   1.417  10.482 -1.6126 -0.3923 -0.5793
12435TIP3   OH258719   4.317   1.671   0.720 -0.1369  0.2625 -0.2439
12435TIP3    H158720   4.305   1.659   0.814  0.8665  0.7020 -0.0421
12435TIP3    H258721   4.245   1.729   0.694 -0.8799 -0.4896  0.0911
12436TIP3   OH258722   0.097   5.538   5.539 -0.6644  0.4935 -0.2489
12436TIP3    H158723   0.111   5.565   5.448  0.8635  1.3287  0.2155
12436TIP3    H258724   0.178   5.494   5.564 -1.2883 -0.2352  0.5504
12437TIP3   OH258725   4.256   5.015   3.721  0.1908 -0.5941  0.4069
12437TIP3    H158726   4.211   5.085   3.673  0.2658  0.0041  1.1948
12437TIP3    H258727   4.296   4.961   3.653  1.3680  0.9508 -0.1894
12438TIP3   OH258728   4.716   2.931   3.986  0.2439 -0.5172  0.2922
12438TIP3    H158729   4.774   2.921   3.911 -0.1015  0.1322 -0.0696
12438TIP3    H258730   4.711   2.843   4.024  0.4098 -0.8570 -0.4485
12439TIP3   OH258731   2.469   6.043  16.397  0.1501 -0.4139 -0.4442
12439TIP3    H158732   2.518   6.110  16.445 -0.7541 -0.3463  0.4261
12439TIP3    H258733   2.377   6.059  16.422 -0.1839 -1.2876 -1.0870
12440TIP3   OH258734   4.241   1.326   5.973  0.0559 -0.1433  0.3100
12440TIP3    H158735   4.282   1.402   6.014 -0.5413 -0.8208  2.2726
12440TIP3    H258736   4.300   1.253   5.993 -0.2860 -0.5014  0.0191
12441TIP3   OH258737   1.933   2.168   3.365 -0.1602  0.0812  0.2287
12441TIP3    H158738   1.907   2.227   3.436  2.3343  0.7362  0.6921
12441TIP3    H258739   1.967   2.090   3.409  0.7877  0.2172 -0.2341
12442TIP3   OH258740   3.932   5.022   3.836 -0.2247  0.0688 -0.3849
12442TIP3    H158741   3.918   4.928   3.825  0.3758  0.0011 -0.6563
12442TIP3    H258742   4.021   5.037   3.803  0.2912  0.4776  1.1275
12443TIP3   OH258743   0.499   2.000   5.658 -0.8436 -0.0411  0.3159
12443TIP3    H158744   0.488   2.082   5.706  1.0047  0.6542 -0.3693
12443TIP3    H258745   0.416   1.953   5.672 -1.8747  1.8374  0.8770
12444TIP3   OH258746   0.706   4.934  15.427 -0.1068 -0.6850  0.4395
12444TIP3    H158747   0.738   4.844  15.420  1.2238 -0.2640  0.7939
12444TIP3    H258748   0.664   4.951  15.343 -0.3569 -1.6290  0.3664
12445TIP3   OH258749   0.726   1.864  16.845  0.5298  0.0690  0.3257
12445TIP3    H158750   0.679   1.921  16.783  0.2562 -1.7350 -1.2257
12445TIP3    H258751   0.669   1.861  16.922 -1.2848 -0.9283 -0.9670
12446TIP3   OH258752   4.468   3.351   5.227  0.4283  0.2918  0.4743
12446TIP3    H158753   4.433   3.282   5.170  0.6165  0.8759 -0.3683
12446TIP3    H258754   4.542   3.386   5.178 -0.4693  1.9958  0.2621
12447TIP3   OH258755   2.845   3.496   1.658 -0.2290  0.0555 -0.9730
12447TIP3    H158756   2.780   3.457   1.600 -1.0440 -0.1381  0.0594
12447TIP3    H258757   2.876   3.423   1.711 -0.4771  0.4861 -0.2341
12448TIP3   OH258758   1.390   1.625   3.600 -0.3723 -0.4163  0.0864
12448TIP3    H158759   1.346   1.708   3.614 -2.5334 -1.4997  0.0960
12448TIP3    H258760   1.394   1.585   3.688  1.7416  0.1258  0.3004
12449TIP3   OH258761   0.043   5.630  16.328 -0.6859  0.4165  0.2983
12449TIP3    H158762   0.064   5.562  16.392 -0.8499  0.0116 -0.0757
12449TIP3    H258763   0.128   5.665  16.302 -0.6520  1.7686  1.9732
12450TIP3   OH258764   4.478   5.375   1.155 -0.4056 -0.2720 -0.5853
12450TIP3    H158765   4.565   5.361   1.194  1.1916 -1.3760 -4.0780
12450TIP3    H258766   4.459   5.467   1.172  1.6592  0.1192 -0.0300
12451TIP3   OH258767   5.321   0.113  13.039 -0.2452  0.0697  0.5715
12451TIP3    H158768   5.252   0.146  13.096 -0.8114 -2.2690  1.3524
12451TIP3    H258769   5.402   0.141  13.082 -0.6758 -0.8306  2.0439
12452TIP3   OH258770   5.484   4.482   6.452  0.3291 -0.3050  0.3117
12452TIP3    H158771   5.523   4.547   6.510  0.1246  0.5349 -0.4572
12452TIP3    H258772   5.548   4.410   6.449  1.4386  0.6683 -0.2657
12453TIP3   OH258773   2.792   6.571  12.395  0.3051 -0.2389  0.0671
12453TIP3    H158774   2.795   6.549  12.488  1.2960  1.5975  0.5159
12453TIP3    H258775   2.883   6.591  12.372 -0.0517  0.1521 -1.0877
12454TIP3   OH258776   0.357   0.736   0.227 -0.6294  0.3509  0.3752
12454TIP3    H158777   0.378   0.643   0.228 -2.3273 -0.0608  0.5976
12454TIP3    H258778   0.264   0.741   0.253 -0.9414  1.9946 -0.8536
12455TIP3   OH258779   6.505   6.708   4.971 -0.0992 -0.3252 -1.0997
12455TIP3    H158780   6.503   6.771   5.044  0.5161 -1.9894  0.4450
12455TIP3    H258781   6.417   6.712   4.934 -0.2194  1.0749 -0.7230
12456TIP3   OH258782   6.499   5.909  15.705 -0.3296  0.1396 -0.6893
12456TIP3    H158783   6.406   5.890  15.711  0.1552 -2.2946  1.2453
12456TIP3    H258784   6.534   5.841  15.647  0.7343 -1.8722  2.0592
12457TIP3   OH258785   6.124   4.235  15.035  0.1297 -0.4540  0.6832
12457TIP3    H158786   6.171   4.152  15.026 -1.0451 -1.2209  1.3460
12457TIP3    H258787   6.034   4.209  15.054 -0.4398  0.9757  0.0616
12458TIP3   OH258788   6.447   4.045  13.393  0.0590 -0.0260  0.3957
12458TIP3    H158789   6.503   3.969  13.407  1.2280  1.0418  1.9522
12458TIP3    H258790   6.365   4.023  13.436  0.3425 -0.4890  0.7159
12459TIP3   OH258791   4.103   2.483  14.369  0.2957 -0.0348  0.0899
12459TIP3    H158792   4.065   2.421  14.306 -0.4452 -0.4642  0.9331
12459TIP3    H258793   4.059   2.566  14.351 -0.3712 -0.3057  0.4405
12460TIP3   OH258794   0.232   0.080   1.675 -0.2549  0.3125 -0.3808
12460TIP3    H158795   0.209   0.168   1.707  0.0094  0.5204 -0.7569
12460TIP3    H258796   0.327   0.077   1.680 -0.2320  0.2289 -0.8353
12461TIP3   OH258797   5.534   5.288   3.782 -0.0687 -0.3521  0.2276
12461TIP3    H158798   5.438   5.297   3.786  0.0488  1.6626 -0.4230
12461TIP3    H258799   5.567   5.377   3.792  1.8016 -1.1014  1.1844
12462TIP3   OH258800   5.357   1.022  16.806  0.4795  0.2251 -0.0495
12462TIP3    H158801   5.282   1.052  16.858  1.0083  1.6213 -0.0444
12462TIP3    H258802   5.320   0.962  16.742 -0.5523  0.4167  0.3518
12463TIP3   OH258803   2.258   2.121  12.978 -0.5433  0.4552  0.2126
12463TIP3    H158804   2.259   2.157  13.067 -1.4412 -0.7507  0.7328
12463TIP3    H258805   2.213   2.188  12.926 -2.3397  0.0794  1.1942
12464TIP3   OH258806   4.231   1.342  13.790 -0.0768  0.0447  0.1196
12464TIP3    H158807   4.216   1.377  13.702  0.7276  1.3011  0.4494
12464TIP3    H258808   4.167   1.388  13.845  0.4946  0.4942  0.4337
12465TIP3   OH258809   4.588   3.751   0.524  0.6576  0.0113 -0.5693
12465TIP3    H158810   4.555   3.827   0.476 -1.4145  0.5372  1.5079
12465TIP3    H258811   4.657   3.786   0.579 -0.6921  0.6173  0.8289
12466TIP3   OH258812   0.979   3.584   4.424  0.2807  1.1188 -0.0720
12466TIP3    H158813   0.939   3.606   4.340 -2.5036  1.3028  1.1794
12466TIP3    H258814   0.960   3.660   4.480  1.0105  0.5089  1.0412
12467TIP3   OH258815   3.050   5.488   4.747  0.0493 -0.3013 -0.0501
12467TIP3    H158816   3.011   5.564   4.791  0.2472 -1.1393  1.6458
12467TIP3    H258817   3.144   5.506   4.747  0.1120 -0.5996  0.5011
12468TIP3   OH258818   1.587   0.499  14.106  0.3509  0.3140  0.1846
12468TIP3    H158819   1.568   0.592  14.114 -1.5299  0.0940 -0.8682
12468TIP3    H258820   1.645   0.493  14.030  0.5082  0.6215  0.2784
12469TIP3   OH258821   0.170   0.977   3.656  0.1574 -0.4116 -0.0678
12469TIP3    H158822   0.265   0.969   3.664  0.1295  0.7718  2.2540
12469TIP3    H258823   0.135   0.909   3.714 -0.2503  2.3197  3.1837
12470TIP3   OH258824   5.965   6.096   2.743 -0.0566 -0.4992  0.1908
12470TIP3    H158825   5.908   6.026   2.774  1.0086 -1.2488  0.5136
12470TIP3    H258826   6.028   6.109   2.814 -0.2869  0.8553  0.1758
12471TIP3   OH258827   0.939   3.525  12.334 -0.3747  0.0846 -0.5534
12471TIP3    H158828   0.866   3.573  12.293  0.3241  0.4083 -1.4616
12471TIP3    H258829   1.006   3.523  12.266 -0.4931 -2.5170 -0.6808
12472TIP3   OH258830   5.642   2.675   1.527 -0.0633 -0.9032  0.0692
12472TIP3    H158831   5.732   2.659   1.501 -0.1476  0.4621 -1.2000
12472TIP3    H258832   5.626   2.767   1.503 -1.6641 -0.9980  0.6398
12473TIP3   OH258833   3.687   0.049  16.793  0.1435  0.4589  0.2823
12473TIP3    H158834   3.702   0.010  16.879 -0.2564  5.9510  3.2744
12473TIP3    H258835   3.774   0.074  16.762  0.0470  1.4515  0.7787
12474TIP3   OH258836   2.126   5.642   6.277  0.0326 -0.5360 -0.2805
12474TIP3    H158837   2.139   5.562   6.225  0.5883 -1.0713  0.6402
12474TIP3    H258838   2.032   5.654   6.280 -0.0235 -0.7744 -1.0002
12475TIP3   OH258839   3.920   4.290  11.186  0.7670 -0.5927 -0.4597
12475TIP3    H158840   3.827   4.290  11.207  1.0201 -1.1074  0.7740
12475TIP3    H258841   3.932   4.212  11.131  0.4362 -0.4283 -0.7633
12476TIP3   OH258842   5.487   4.117  13.725  0.5630  0.1814  0.1776
12476TIP3    H158843   5.503   4.102  13.632 -1.0897 -1.0194  0.0412
12476TIP3    H258844   5.495   4.031  13.765 -1.1462  0.2448  0.7332
12477TIP3   OH258845   0.982   0.012   1.863  0.3733  0.1758 -0.3297
12477TIP3    H158846   1.060   0.025   1.917  1.3242 -1.6864 -1.1228
12477TIP3    H258847   1.011  -0.051   1.796 -2.2281 -1.8224  0.2979
12478TIP3   OH258848   2.429   6.375   5.662  0.6987 -0.1531  0.5138
12478TIP3    H158849   2.430   6.288   5.623 -0.9690  0.5926 -1.3973
12478TIP3    H258850   2.342   6.384   5.700  0.5734  0.9405  0.0098
12479TIP3   OH258851   1.964   5.633  14.544  0.1604  0.2375  0.1540
12479TIP3    H158852   1.876   5.624  14.507 -0.8603  2.2491  1.8259
12479TIP3    H258853   2.017   5.665  14.472  0.1686 -3.0879 -1.4986
12480TIP3   OH258854   4.854   4.450   2.174  0.2961 -0.1293 -0.2340
12480TIP3    H158855   4.817   4.538   2.174  1.1467  0.3224  2.7362
12480TIP3    H258856   4.778   4.393   2.190  0.1166  0.3105  0.5112
12481TIP3   OH258857   2.076   3.736  14.332 -0.7363  0.1666 -0.3869
12481TIP3    H158858   2.003   3.686  14.366  1.9298 -2.2108  2.4436
12481TIP3    H258859   2.072   3.820  14.379 -1.9337  0.3141 -0.7318
12482TIP3   OH258860   2.248   2.679  13.999  0.4249  0.1135  0.2686
12482TIP3    H158861   2.300   2.600  14.014  0.9427  0.2818 -0.5978
12482TIP3    H258862   2.164   2.646  13.966 -0.0705 -0.1602  1.7465
12483TIP3   OH258863   1.586   4.843   1.699 -0.9015  0.3817  0.2491
12483TIP3    H158864   1.551   4.912   1.755 -2.9272 -0.7887  0.5587
12483TIP3    H258865   1.536   4.851   1.617 -0.9181 -0.4769  0.1618
12484TIP3   OH258866   0.818   1.535  12.399  0.3523  0.3879  0.2724
12484TIP3    H158867   0.834   1.465  12.336  1.0189 -2.5327  3.3893
12484TIP3    H258868   0.905   1.557  12.434 -0.1286  0.7451  1.2966
12485TIP3   OH258869   3.692   4.665  17.241 -0.3633  0.0266 -0.0063
12485TIP3    H158870   3.645   4.624  17.314  1.3101  1.0462  1.7406
12485TIP3    H258871   3.734   4.742  17.280  1.8148 -0.2076 -1.6929
12486TIP3   OH258872   5.698   5.496   5.694  0.2614  0.9560 -0.3300
12486TIP3    H158873   5.654   5.461   5.771  0.9956 -1.8113 -1.0446
12486TIP3    H258874   5.786   5.518   5.724  0.1521  1.1015 -0.1151
12487TIP3   OH258875   0.640   2.659  16.516  0.2620  0.1412  0.3105
12487TIP3    H158876   0.692   2.694  16.443  1.7414 -1.5979  0.4451
12487TIP3    H258877   0.552   2.647  16.479  0.2632  1.8442 -0.3418
12488TIP3   OH258878   6.334   3.975  11.784  0.5980  0.3462 -0.5661
12488TIP3    H158879   6.253   3.945  11.824  1.8249  0.0313  1.8754
12488TIP3    H258880   6.307   4.045  11.725 -1.3646  0.9888  0.9761
12489TIP3   OH258881   2.126   6.366   2.747 -0.1671  0.1144  0.1453
12489TIP3    H158882   2.212   6.368   2.704  0.3028 -3.5410  0.6250
12489TIP3    H258883   2.129   6.289   2.803 -3.7363 -0.0297  0.3651
12490TIP3   OH258884   4.529   3.758   1.805  0.2455  0.6270  0.0427
12490TIP3    H158885   4.574   3.782   1.885 -0.1097 -1.5878  0.9912
12490TIP3    H258886   4.445   3.803   1.810 -0.4459 -0.7560  1.7793
12491TIP3   OH258887   2.715   0.771  17.152 -0.2860  0.1057  0.1997
12491TIP3    H158888   2.793   0.744  17.201  0.4832  0.6733 -0.6821
12491TIP3    H258889   2.748   0.794  17.066 -1.3495  1.0304  0.0247
12492TIP3   OH258890   1.145   0.408   1.874  0.3659  0.3115 -0.2922
12492TIP3    H158891   1.192   0.329   1.851  1.1326  0.5925  0.2505
12492TIP3    H258892   1.079   0.380   1.937  2.2509  0.4162  1.8623
12493TIP3   OH258893   4.072   4.143  15.141  0.4155 -0.1507  0.4734
12493TIP3    H158894   4.033   4.085  15.076 -0.5098 -0.3091  1.1475
12493TIP3    H258895   4.148   4.180  15.097 -0.8678  0.7196 -1.1298
12494TIP3   OH258896   6.460   4.185   3.574 -0.3785 -0.5877 -0.0235
12494TIP3    H158897   6.417   4.103   3.549 -1.8668  0.0848  0.1721
12494TIP3    H258898   6.541   4.159   3.616  0.1881 -1.8792 -1.8061
12495TIP3   OH258899   0.902   0.196  13.861  0.0412 -0.4459 -0.0544
12495TIP3    H158900   0.955   0.252  13.918  0.3769 -0.3207 -0.4833
12495TIP3    H258901   0.854   0.257  13.805 -0.0989 -0.5726 -0.0725
12496TIP3   OH258902   5.245   0.687   1.992 -0.5747  0.5767  0.2095
12496TIP3    H158903   5.209   0.740   2.064 -0.9540  0.1690  0.3250
12496TIP3    H258904   5.230   0.596   2.019  1.4535  0.3514  0.7308
12497TIP3   OH258905   6.442   4.311   5.517  0.5963  0.0179 -0.2442
12497TIP3    H158906   6.482   4.370   5.580 -3.7339  0.7505  2.2328
12497TIP3    H258907   6.469   4.223   5.545 -1.7190  0.2437  3.3926
12498TIP3   OH258908   6.647   5.790  16.892 -0.2055  0.0302  0.3751
12498TIP3    H158909   6.596   5.826  16.820 -0.5833 -0.7959  0.2131
12498TIP3    H258910   6.586   5.732  16.938  0.7739 -1.6163 -0.3081
12499TIP3   OH258911   5.341   0.382   1.617 -0.0541 -0.2835 -0.3466
12499TIP3    H158912   5.279   0.452   1.596  1.8361  0.8426 -2.5921
12499TIP3    H258913   5.380   0.409   1.700  0.3093  1.0964 -0.9437
12500TIP3   OH258914   0.547   2.187  16.524 -0.3889  0.4255  0.1689
12500TIP3    H158915   0.545   2.147  16.611  0.2085 -0.2664 -0.1252
12500TIP3    H258916   0.455   2.211  16.507 -0.4151  1.2027  1.2583
12501TIP3   OH258917   1.921   3.727   2.843  0.3264 -0.6777  0.3534
12501TIP3    H158918   1.827   3.718   2.856  0.1134  0.1607 -0.4746
12501TIP3    H258919   1.949   3.790   2.909 -0.2609  1.4168 -1.2734
12502TIP3   OH258920   1.679   3.715  13.925 -0.1799  0.2121  0.4137
12502TIP3    H158921   1.711   3.721  14.015  0.5632  0.4202  0.1384
12502TIP3    H258922   1.593   3.756  13.928 -0.3134 -0.0930  1.0981
12503TIP3   OH258923   4.592   6.690   4.861  1.0665  0.4426  0.5495
12503TIP3    H158924   4.584   6.769   4.915 -1.9824  1.9642 -1.8070
12503TIP3    H258925   4.645   6.718   4.787 -0.4455  0.5491 -0.5489
12504TIP3   OH258926   6.662   1.667   2.511  0.5876  0.8993 -0.1328
12504TIP3    H158927   6.712   1.585   2.506  0.6314  1.0130 -2.0366
12504TIP3    H258928   6.596   1.659   2.443 -0.9245  1.4997  1.1999
12505TIP3   OH258929   1.304   4.921  15.921 -1.0028  0.4904 -0.1798
12505TIP3    H158930   1.226   4.892  15.970  0.9688 -0.8384  2.4387
12505TIP3    H258931   1.374   4.863  15.950  1.4709  2.9062 -0.8195
12506TIP3   OH258932   2.687   0.243   3.946  0.4513 -0.4476 -0.0119
12506TIP3    H158933   2.768   0.266   3.899  0.1717 -1.5011 -1.0867
12506TIP3    H258934   2.713   0.238   4.038  1.1812  1.0183 -0.1099
12507TIP3   OH258935   3.941   4.399  17.155  0.5702  0.1456 -0.4535
12507TIP3    H158936   3.930   4.492  17.137  0.6195 -0.0409 -1.5169
12507TIP3    H258937   3.853   4.365  17.164  0.5679  0.4021  0.5392
12508TIP3   OH258938   3.822   3.952   2.432  0.3797  0.1029 -0.1168
12508TIP3    H158939   3.898   3.907   2.396  0.1681 -0.3837  0.0341
12508TIP3    H258940   3.850   4.043   2.440  0.0329  0.4999 -2.6302
12509TIP3   OH258941   3.601   3.748  17.281 -0.0790 -0.8194 -0.1862
12509TIP3    H158942   3.668   3.694  17.237  1.5558  1.7822 -1.0904
12509TIP3    H258943   3.645   3.782  17.359 -0.6000  0.3184 -0.3779
12510TIP3   OH258944   3.876   2.568   5.022  0.0592 -0.5554  0.1725
12510TIP3    H158945   3.949   2.561   4.962  1.0430  1.6072  1.0245
12510TIP3    H258946   3.808   2.614   4.973  0.6273  0.6457  0.4900
12511TIP3   OH258947   4.927   1.771  12.787  0.2984  0.4090  0.1444
12511TIP3    H158948   4.836   1.777  12.817  0.9045 -0.7545  2.4532
12511TIP3    H258949   4.925   1.705  12.718 -0.0806 -3.5604  3.4965
12512TIP3   OH258950   2.726   2.932   3.665 -0.3993 -0.2620  0.3055
12512TIP3    H158951   2.696   2.866   3.727 -1.1679  0.2191  0.4615
12512TIP3    H258952   2.800   2.975   3.709 -0.3768 -0.5120  0.5131
12513TIP3   OH258953   6.419   6.537  12.971 -0.3650 -0.1638  0.0483
12513TIP3    H158954   6.457   6.605  12.916  0.9248 -1.1943 -0.3761
12513TIP3    H258955   6.373   6.480  12.909 -1.5445  0.3478  0.4162
12514TIP3   OH258956   2.622   4.076  10.769 -0.0879 -0.0192 -0.4640
12514TIP3    H158957   2.710   4.042  10.784 -0.3747 -0.9605 -0.8436
12514TIP3    H258958   2.585   4.018  10.702 -1.0898  0.1825 -0.1028
12515TIP3   OH258959   4.621   4.240  16.999  0.8545  0.0768  0.5902
12515TIP3    H158960   4.708   4.275  17.015  1.2204 -0.5263 -0.0119
12515TIP3    H258961   4.561   4.313  17.016  1.4088  0.2379  1.8809
12516TIP3   OH258962   6.317   6.072   2.747 -0.1450  0.1658 -0.1086
12516TIP3    H158963   6.329   6.113   2.662 -0.4085  0.6314  0.0736
12516TIP3    H258964   6.377   5.998   2.747 -0.9507 -0.5069 -1.1326
12517TIP3   OH258965   4.430   1.238  16.427 -0.3645 -0.2867  0.3285
12517TIP3    H158966   4.403   1.256  16.337  1.8070 -0.4034 -0.4083
12517TIP3    H258967   4.437   1.324  16.468  3.2762  0.2589 -1.1205
12518TIP3   OH258968   2.860   1.805  16.847  0.1740 -0.2039  0.2559
12518TIP3    H158969   2.880   1.729  16.792  0.4276  0.1541 -0.1601
12518TIP3    H258970   2.797   1.856  16.795  1.2201  0.6832 -0.2041
12519TIP3   OH258971   4.981   3.832  15.820  0.0866 -0.3490  0.1893
12519TIP3    H158972   5.062   3.883  15.820  0.6423 -1.0106 -3.2147
12519TIP3    H258973   5.004   3.750  15.776 -1.8735 -1.6354  1.4001
12520TIP3   OH258974   1.571   6.515   1.497 -0.1423 -0.1719 -0.5217
12520TIP3    H158975   1.631   6.554   1.560  0.9472 -1.4641 -0.7128
12520TIP3    H258976   1.606   6.428   1.481 -1.6298 -0.6780 -1.2644
12521TIP3   OH258977   5.697   3.446  11.111 -0.0839  0.3519  0.2485
12521TIP3    H158978   5.749   3.458  11.191 -0.7871 -0.6038  0.8720
12521TIP3    H258979   5.655   3.531  11.098  0.6023  0.7365  0.4830
12522TIP3   OH258980   0.339   4.378   3.193 -0.4474  0.2106 -0.2194
12522TIP3    H158981   0.274   4.448   3.181 -0.3152  0.1875 -1.2193
12522TIP3    H258982   0.350   4.341   3.105 -0.9072 -1.4357  0.3777
12523TIP3   OH258983   3.683   1.727   3.601  0.2132  0.5195  0.0683
12523TIP3    H158984   3.715   1.792   3.539  1.3809  0.1753  0.2840
12523TIP3    H258985   3.753   1.661   3.605 -0.9233 -0.7464 -0.1254
12524TIP3   OH258986   5.264   5.919  11.485 -0.6260 -0.3876 -0.1332
12524TIP3    H158987   5.177   5.882  11.503 -1.6034  1.6946 -0.2646
12524TIP3    H258988   5.274   5.910  11.391 -1.0451  0.0400 -0.2237
12525TIP3   OH258989   6.220   6.514   1.739  0.0728  0.2784  0.0637
12525TIP3    H158990   6.130   6.530   1.711 -0.5461  1.0370  2.2554
12525TIP3    H258991   6.269   6.589   1.707 -0.4285  0.7140  0.2994
12526TIP3   OH258992   1.390   6.411   4.027 -0.0790  0.3601 -0.6769
12526TIP3    H158993   1.341   6.395   3.946  1.5491  1.0333 -1.8561
12526TIP3    H258994   1.475   6.443   3.997 -0.2152  2.9429  1.3487
12527TIP3   OH258995   6.515   5.663   5.694  0.4487  0.2640  0.0267
12527TIP3    H158996   6.425   5.636   5.673  0.8136 -2.2085  1.2592
12527TIP3    H258997   6.544   5.711   5.616 -1.5278  0.0878 -0.8810
12528TIP3   OH258998   5.242   3.363   0.806 -0.3597 -0.9906 -0.1693
12528TIP3    H158999   5.332   3.341   0.782 -0.7369 -1.7823 -0.9063
12528TIP3    H259000   5.188   3.319   0.741 -1.2075  2.0365 -1.6880
12529TIP3   OH259001   6.136   1.742  13.514 -0.4422  0.9382  0.7231
12529TIP3    H159002   6.153   1.675  13.448  0.3417  0.8211  1.0333
12529TIP3    H259003   6.078   1.699  13.577 -0.8435  0.9142  0.3472
12530TIP3   OH259004   1.826   5.620   0.597  0.1910  0.2170  0.0716
12530TIP3    H159005   1.844   5.703   0.552  1.8277 -1.0768 -1.8543
12530TIP3    H259006   1.731   5.620   0.610  0.2103  2.6080  0.6518
12531TIP3   OH259007   4.117   3.367  13.435 -0.6466 -0.0562 -0.0052
12531TIP3    H159008   4.154   3.356  13.522 -1.7114 -1.7422  0.2816
12531TIP3    H259009   4.034   3.320  13.438 -0.6416 -0.2826 -1.9791
12532TIP3   OH259010   6.295   1.558   3.374  0.0003 -0.0704 -0.4926
12532TIP3    H159011   6.348   1.478   3.377  0.7911  0.3428 -2.2773
12532TIP3    H259012   6.332   1.614   3.443 -0.2653 -1.0360  0.4630
12533TIP3   OH259013   0.122   0.167  16.534  0.4188 -1.2934  0.0906
12533TIP3    H159014   0.102   0.145  16.443  1.0012 -0.4730 -0.2474
12533TIP3    H259015   0.217   0.152  16.542  0.9433  1.3476 -0.2705
12534TIP3   OH259016   0.422   5.406   4.023  0.3773 -0.6286  0.0322
12534TIP3    H159017   0.441   5.405   4.116 -1.1797 -2.4431  0.3961
12534TIP3    H259018   0.467   5.329   3.988  0.1604 -0.5100 -0.5253
12535TIP3   OH259019   0.111   0.714  16.434 -0.5252  0.4526  0.2528
12535TIP3    H159020   0.040   0.651  16.421 -0.6072  0.5604  0.1871
12535TIP3    H259021   0.179   0.663  16.478 -1.0031  0.5867  1.1733
12536TIP3   OH259022   0.190   0.325  13.299  0.0923  0.8541  0.1917
12536TIP3    H159023   0.224   0.375  13.373 -1.4289  2.5778 -0.1947
12536TIP3    H259024   0.262   0.325  13.236  0.8158  0.8389  0.9970
12537TIP3   OH259025   2.280   4.788  12.867 -0.0117 -0.5064 -0.6022
12537TIP3    H159026   2.281   4.712  12.809  0.5551 -1.7836  0.9741
12537TIP3    H259027   2.241   4.755  12.948  1.7849  0.3882  0.6954
12538TIP3   OH259028   1.428   5.897   1.596  0.8809  0.4765 -0.7096
12538TIP3    H159029   1.378   5.946   1.531  0.8721 -0.3905 -1.3651
12538TIP3    H259030   1.366   5.884   1.668  0.1723 -0.4837 -1.4632
12539TIP3   OH259031   5.253   1.470  14.093 -0.8321  0.1186  0.1272
12539TIP3    H159032   5.301   1.552  14.094 -1.5287  0.5443 -0.5417
12539TIP3    H259033   5.174   1.488  14.145 -1.1680 -0.0082 -0.3343
12540TIP3   OH259034   4.338   6.694  17.104 -0.7049  0.0681 -0.1767
12540TIP3    H159035   4.265   6.631  17.101 -0.5206 -0.1651  0.1653
12540TIP3    H259036   4.398   6.664  17.035 -1.1816  0.5713 -0.8164
12541TIP3   OH259037   5.800   1.554  15.708  0.4561 -0.1962 -0.1337
12541TIP3    H159038   5.708   1.578  15.705  0.0785 -1.5458  0.1921
12541TIP3    H259039   5.819   1.519  15.621  0.6290 -0.0358 -0.1613
12542TIP3   OH259040   5.054   2.961  12.803 -0.8249 -0.8385  0.4848
12542TIP3    H159041   5.028   2.895  12.739  4.0124 -2.1944 -0.5010
12542TIP3    H259042   5.029   2.924  12.887 -0.8520 -2.5542 -0.2327
12543TIP3   OH259043   2.365   5.437  16.613 -0.3161  0.0235 -0.2876
12543TIP3    H159044   2.410   5.438  16.698  0.2721  0.1201 -0.5901
12543TIP3    H259045   2.434   5.459  16.550 -0.5713 -0.8140 -0.8760
12544TIP3   OH259046   5.749   5.876  15.469 -0.2869 -0.6358 -0.5752
12544TIP3    H159047   5.707   5.955  15.504  0.0573 -0.3462 -0.8182
12544TIP3    H259048   5.677   5.814  15.456 -0.4449 -0.7095  0.5381
12545TIP3   OH259049   3.417   0.123   1.391  0.0484 -0.5975  0.1966
12545TIP3    H159050   3.388   0.042   1.348  0.8900 -1.2463  0.8232
12545TIP3    H259051   3.497   0.147   1.346 -0.0336 -0.2746  0.2183
12546TIP3   OH259052   0.429   1.166  16.017 -0.2882 -0.2064  0.0755
12546TIP3    H159053   0.379   1.235  15.972  0.3113  0.9440  1.1089
12546TIP3    H259054   0.362   1.111  16.058 -0.7553  1.0176  1.0264
12547TIP3   OH259055   4.884   4.397  16.788 -0.4607  0.1963 -0.1124
12547TIP3    H159056   4.883   4.324  16.850 -3.5337 -0.4021 -0.7005
12547TIP3    H259057   4.793   4.425  16.782 -0.0610  1.2160 -3.2289
12548TIP3   OH259058   5.261   4.154  13.201  0.1252  0.0926  0.6013
12548TIP3    H159059   5.188   4.123  13.147 -1.7670  3.1330  1.1698
12548TIP3    H259060   5.222   4.222  13.257  2.7621 -0.3289  3.2056
12549TIP3   OH259061   5.700   3.834   5.060  0.6105 -1.1844 -0.2223
12549TIP3    H159062   5.706   3.897   5.131  0.2987 -2.0686  0.5982
12549TIP3    H259063   5.784   3.788   5.060  0.4953 -1.4000 -0.2192
12550TIP3   OH259064   6.527   2.519   0.098  0.0286  0.1503  0.1807
12550TIP3    H159065   6.435   2.497   0.113  0.3125 -0.4435  1.1808
12550TIP3    H259066   6.527   2.573   0.019 -1.1007 -0.3969 -0.2080
12551TIP3   OH259067   2.893   4.724   6.131  0.0002 -0.4436 -0.4395
12551TIP3    H159068   2.835   4.668   6.080  0.3714 -0.5463 -0.7530
12551TIP3    H259069   2.855   4.724   6.219 -0.9138  0.1150 -0.8245
12552TIP3   OH259070   0.120   1.043  13.245  0.1599 -0.4322  0.1282
12552TIP3    H159071   0.112   1.041  13.341  1.1694 -1.2419  0.2139
12552TIP3    H259072   0.215   1.042  13.229  0.0968  2.0530 -0.8540
12553TIP3   OH259073   3.669   2.120  13.969  0.1153 -0.5683 -0.1959
12553TIP3    H159074   3.604   2.070  13.921 -1.7496 -0.3989  2.0265
12553TIP3    H259075   3.671   2.082  14.056  1.8683  0.4486  0.2703
12554TIP3   OH259076   2.624   3.503   4.115 -0.2776 -0.3498  0.1351
12554TIP3    H159077   2.616   3.598   4.101  1.5217 -0.2439 -0.4907
12554TIP3    H259078   2.699   3.494   4.175 -1.1708 -1.3461  1.1535
12555TIP3   OH259079   4.707   4.941  12.145  0.6985  0.3123  0.1848
12555TIP3    H159080   4.656   4.980  12.075 -2.3451  0.9686  2.5643
12555TIP3    H259081   4.718   4.849  12.119 -1.2793  0.2802 -0.6854
12556TIP3   OH259082   3.739   2.363   0.170  0.3532 -0.1401  0.4065
12556TIP3    H159083   3.760   2.455   0.154  0.7164 -0.2289  0.3722
12556TIP3    H259084   3.645   2.357   0.153  0.5829 -0.0784 -0.9715
12557TIP3   OH259085   0.705   6.350  15.564  0.5512  0.6587  0.0458
12557TIP3    H159086   0.729   6.403  15.640  3.2499  0.5719 -0.6194
12557TIP3    H259087   0.783   6.297  15.547 -1.5313 -2.6826 -0.0945
12558TIP3   OH259088   5.887   4.645  15.056  0.6205 -0.0979  0.3750
12558TIP3    H159089   5.956   4.666  15.119  0.8820 -0.8132  0.3301
12558TIP3    H259090   5.884   4.721  14.998  2.5797 -0.7707 -0.7017
12559TIP3   OH259091   4.495   0.862  15.392  0.0759 -0.1279 -0.1891
12559TIP3    H159092   4.569   0.867  15.452  1.2762 -0.4109 -1.6116
12559TIP3    H259093   4.530   0.887  15.307 -2.1397  2.9016 -0.4035
12560TIP3   OH259094   4.412   2.809   2.854  0.0642 -0.7774  0.0908
12560TIP3    H159095   4.438   2.771   2.770 -4.4334 -1.8109 -1.0903
12560TIP3    H259096   4.421   2.903   2.841  2.1196 -0.9904 -0.4378
12561TIP3   OH259097   1.208   5.937  12.712 -0.2948 -0.3035 -0.1979
12561TIP3    H159098   1.139   5.941  12.646  0.2689  1.5182 -0.7506
12561TIP3    H259099   1.178   5.871  12.774 -1.1436 -1.6126 -1.9087
12562TIP3   OH259100   0.042   0.892   2.745 -0.0744  0.0675  0.7252
12562TIP3    H159101   0.120   0.922   2.791  0.4945  0.9912 -0.7649
12562TIP3    H259102  -0.031   0.936   2.790  0.3735  0.2527  1.2892
12563TIP3   OH259103   1.371   6.617  11.121 -0.5726 -0.5228  0.1930
12563TIP3    H159104   1.290   6.619  11.070 -0.9607 -0.1163  0.8164
12563TIP3    H259105   1.428   6.681  11.079 -0.1590 -1.5610 -0.8974
12564TIP3   OH259106   2.764   2.208   4.894 -0.6562 -0.2557 -0.1551
12564TIP3    H159107   2.848   2.226   4.936 -0.0037 -0.5232 -1.3205
12564TIP3    H259108   2.715   2.290   4.902 -0.7977 -0.4724  1.6457
12565TIP3   OH259109   1.980   0.388  13.645  0.0606  0.3005  0.6295
12565TIP3    H159110   1.934   0.401  13.562  1.4037  0.8631 -0.0645
12565TIP3    H259111   1.974   0.473  13.689  0.4726  0.3836  0.5222
12566TIP3   OH259112   3.655   0.095   0.890 -0.3278 -0.1074 -1.0551
12566TIP3    H159113   3.564   0.065   0.885 -0.5455  0.6759 -1.9571
12566TIP3    H259114   3.707   0.019   0.864 -0.6302 -0.9089  0.5002
12567TIP3   OH259115   6.349   5.254   2.968 -0.1980 -0.0499 -0.1569
12567TIP3    H159116   6.430   5.297   2.996  0.9158 -0.7160 -2.1637
12567TIP3    H259117   6.366   5.227   2.877 -3.6972  2.4882 -1.8202
12568TIP3   OH259118   5.340   0.538  13.811 -0.5667 -0.1368 -0.1852
12568TIP3    H159119   5.430   0.513  13.830  0.3273  2.4219 -0.6891
12568TIP3    H259120   5.306   0.465  13.759  1.7693 -0.4410 -1.4445
12569TIP3   OH259121   4.638   2.472   0.316  0.0804 -0.3841  0.4855
12569TIP3    H159122   4.596   2.387   0.332  0.0404 -0.6307 -0.7800
12569TIP3    H259123   4.663   2.469   0.223  1.7048  0.2858  0.8762
12570TIP3   OH259124   6.097   5.981   4.889 -0.3784 -0.0375  0.6381
12570TIP3    H159125   6.067   6.064   4.854  1.3711  0.4468  0.1779
12570TIP3    H259126   6.129   5.932   4.813 -0.4332 -0.7022  1.0319
12571TIP3   OH259127   2.903   3.836  14.319 -0.4839 -0.4178  0.4549
12571TIP3    H159128   2.940   3.767  14.265 -0.4037 -1.6974  2.0843
12571TIP3    H259129   2.809   3.833  14.299 -0.6472 -1.7763  1.3268
12572TIP3   OH259130   2.239   3.958   5.834  0.5573 -0.1891 -0.0689
12572TIP3    H159131   2.193   3.930   5.914 -0.9889  2.1254 -0.0661
12572TIP3    H259132   2.250   4.052   5.844 -0.2241  0.2808 -2.8494
12573TIP3   OH259133   3.658   1.559   5.812 -0.0923  0.1637  0.1104
12573TIP3    H159134   3.746   1.547   5.847  0.2129 -1.2062 -1.0175
12573TIP3    H259135   3.601   1.516   5.875  0.4411 -2.2121 -0.9156
12574TIP3   OH259136   4.632   6.410   0.888 -0.6224  0.0112  0.4286
12574TIP3    H159137   4.544   6.442   0.909 -1.7206 -0.6385 -2.6538
12574TIP3    H259138   4.686   6.489   0.888 -1.0842  0.3944  2.5885
12575TIP3   OH259139   5.970   5.965  16.545  0.1098  0.1412  0.3118
12575TIP3    H159140   5.904   6.030  16.520 -0.0680 -0.2791 -0.3332
12575TIP3    H259141   6.054   6.008  16.527  0.0005  0.3695  0.3417
12576TIP3   OH259142   3.159   1.359   4.735 -0.3525 -0.6157  0.5360
12576TIP3    H159143   3.131   1.296   4.800 -0.2483 -1.2989 -0.0677
12576TIP3    H259144   3.245   1.328   4.706 -1.0154 -1.1591 -0.9597
12577TIP3   OH259145   5.384   4.944  12.433 -0.2903  0.3101  0.5554
12577TIP3    H159146   5.426   4.963  12.517  0.9471 -2.4353  0.6509
12577TIP3    H259147   5.309   4.888  12.455  0.0518 -0.4449 -0.1511
12578TIP3   OH259148   0.501   0.185   3.370  0.7144 -0.8827 -0.3312
12578TIP3    H159149   0.464   0.096   3.371  0.0657 -0.6497 -1.6747
12578TIP3    H259150   0.440   0.236   3.423  1.5875 -1.3944  1.2320
12579TIP3   OH259151   1.764   2.985   3.571 -0.0907  0.5298  0.4849
12579TIP3    H159152   1.799   2.935   3.497 -0.8588  0.1250  0.3810
12579TIP3    H259153   1.808   3.070   3.566 -1.3283  1.1261 -1.4543
12580TIP3   OH259154   6.700   3.738   2.796 -0.1317  0.1454  0.0345
12580TIP3    H159155   6.787   3.766   2.824 -0.0184 -0.0410 -0.1208
12580TIP3    H259156   6.639   3.796   2.841  0.1044  0.8549 -0.5445
12581TIP3   OH259157   2.543   4.227  13.345  0.3091 -0.1396  0.2230
12581TIP3    H159158   2.626   4.224  13.392  0.6070  1.4048 -0.1499
12581TIP3    H259159   2.561   4.281  13.268 -0.7170 -0.8457 -0.5342
12582TIP3   OH259160   0.887   4.077  16.420 -0.2625 -0.0833  0.0826
12582TIP3    H159161   0.805   4.126  16.423  0.1337  0.5564  1.0634
12582TIP3    H259162   0.899   4.055  16.327 -0.2755  1.9960 -0.4555
12583TIP3   OH259163   0.317   4.444   0.433  0.1904 -0.3847 -0.0712
12583TIP3    H159164   0.256   4.516   0.449  1.1424 -0.0505  2.5363
12583TIP3    H259165   0.273   4.367   0.468  0.8170 -0.3227  0.8779
12584TIP3   OH259166   0.299   1.424   3.397 -0.5246 -0.3300  0.2578
12584TIP3    H159167   0.310   1.507   3.443 -0.8452  0.9695 -1.8582
12584TIP3    H259168   0.272   1.362   3.465  1.1125  0.9248  2.1501
12585TIP3   OH259169   2.733   2.182   1.556  0.4052 -0.0481  0.3264
12585TIP3    H159170   2.801   2.214   1.615 -0.8782  1.2317  1.1983
12585TIP3    H259171   2.722   2.253   1.492  0.1193 -0.3825  0.0012
12586TIP3   OH259172   1.125   0.984   5.083 -0.5219  0.0053 -0.1770
12586TIP3    H159173   1.158   0.995   4.994  1.8005 -2.1154  0.3124
12586TIP3    H259174   1.076   0.902   5.081  0.2733 -0.5171  0.6320
12587TIP3   OH259175   5.990   4.312  14.729 -0.1043 -0.0386 -0.3441
12587TIP3    H159176   6.027   4.390  14.771 -0.5760  0.8778 -1.5764
12587TIP3    H259177   6.036   4.305  14.646 -0.9373 -0.3443 -0.7923
12588TIP3   OH259178   6.177   5.217  17.164 -0.0462  0.1359 -0.7507
12588TIP3    H159179   6.152   5.245  17.253 -1.9205  2.6080 -1.9219
12588TIP3    H259180   6.263   5.256  17.150  0.5948 -0.8944  0.2132
12589TIP3   OH259181   4.802   0.877   2.314 -0.4258 -0.0044  0.3773
12589TIP3    H159182   4.763   0.805   2.363 -2.3708  0.6552 -0.1436
12589TIP3    H259183   4.782   0.956   2.365  1.4142  0.2702  0.7818
12590TIP3   OH259184   5.491   1.141  12.329  0.3185 -0.5029 -0.0158
12590TIP3    H159185   5.515   1.133  12.422 -0.7458  1.2938  0.4596
12590TIP3    H259186   5.574   1.152  12.283  0.7334  1.5831  1.1070
12591TIP3   OH259187   4.610   1.837  12.342  0.2916  0.8354  0.3285
12591TIP3    H159188   4.669   1.906  12.312 -1.2965  2.4206  0.6478
12591TIP3    H259189   4.534   1.843  12.283 -0.2820 -0.0227  0.9513
12592TIP3   OH259190   2.823   6.370  16.360  0.8414 -0.3588 -0.2003
12592TIP3    H159191   2.845   6.331  16.445  0.5002  1.5200  0.8014
12592TIP3    H259192   2.753   6.432  16.379 -2.1659 -2.7094 -2.5263
12593TIP3   OH259193   2.323   1.994  14.505 -0.5701  0.4795  0.1415
12593TIP3    H159194   2.305   1.951  14.589  0.7046 -0.0858  0.1403
12593TIP3    H259195   2.397   2.051  14.523  0.8143 -0.8991 -0.9829
12594TIP3   OH259196   5.300   4.426   1.283  0.2269  0.0531  0.4536
12594TIP3    H159197   5.328   4.508   1.324  0.9182  0.7818 -1.3690
12594TIP3    H259198   5.363   4.361   1.314  0.1651  0.3740  1.2750
12595TIP3   OH259199   3.876   0.620  10.955 -0.0709 -0.0849  0.2262
12595TIP3    H159200   3.915   0.667  10.881  0.4469  0.1480  0.6402
12595TIP3    H259201   3.813   0.560  10.915  1.9527 -1.7550 -0.6636
12596TIP3   OH259202   0.259   1.692  11.773 -0.1422 -0.0027 -0.3105
12596TIP3    H159203   0.313   1.703  11.695 -0.8657  1.2507 -0.6613
12596TIP3    H259204   0.242   1.598  11.778  3.3162 -0.7065  0.6905
12597TIP3   OH259205   4.521   4.117  16.776 -0.9375 -0.5635 -0.2187
12597TIP3    H159206   4.555   4.161  16.854 -0.8653 -0.3232 -0.3863
12597TIP3    H259207   4.478   4.185  16.726 -1.3808 -0.8037 -0.1733
12598TIP3   OH259208   1.662   2.271   1.418  0.1852  0.2319  0.5718
12598TIP3    H159209   1.636   2.198   1.475  0.3799  0.0999  0.4942
12598TIP3    H259210   1.697   2.229   1.340 -1.0139  0.4180 -0.0832
12599TIP3   OH259211   2.077   4.125  12.381 -0.3460 -0.5535 -0.3547
12599TIP3    H159212   2.091   4.079  12.298 -0.2675  1.0477 -1.2767
12599TIP3    H259213   2.027   4.203  12.357 -2.3443 -1.1789  1.4464
12600TIP3   OH259214   0.897   5.953   1.917  0.4956 -0.2078 -0.5060
12600TIP3    H159215   0.913   5.996   1.833  0.6459 -1.6673 -1.2589
12600TIP3    H259216   0.978   5.967   1.967 -0.2062  2.0954  0.0782
12601TIP3   OH259217   3.739   2.886   6.080  0.0834 -0.3865  0.8694
12601TIP3    H159218   3.785   2.942   6.018 -1.0659 -0.0758  0.2538
12601TIP3    H259219   3.673   2.944   6.119 -2.3431 -1.6513 -1.0777
12602TIP3   OH259220   3.161   2.798  13.008  0.0200  0.1508 -0.3731
12602TIP3    H159221   3.244   2.795  13.055  0.2610 -0.7602 -0.8221
12602TIP3    H259222   3.186   2.822  12.918 -0.3394  1.0492 -0.2413
12603TIP3   OH259223   1.463   6.727   0.360 -0.0014 -0.0562  0.0632
12603TIP3    H159224   1.523   6.704   0.288 -0.5580 -0.4424 -0.2918
12603TIP3    H259225   1.414   6.802   0.326 -0.1047 -0.0935  0.1318
12604TIP3   OH259226   4.679   3.206   1.266  0.0362  0.0073  0.0615
12604TIP3    H159227   4.730   3.125   1.253 -2.4223 -1.5150 -0.8314
12604TIP3    H259228   4.708   3.264   1.195 -1.6031 -2.0477 -2.4821
12605TIP3   OH259229   5.105   4.108   5.019 -0.2529 -0.1955 -0.2024
12605TIP3    H159230   5.177   4.084   5.077  0.4724  0.0205 -0.9791
12605TIP3    H259231   5.062   4.181   5.063 -1.2037 -1.5405  1.1823
12606TIP3   OH259232   3.849   5.146   1.709  0.6009 -0.0323  0.2307
12606TIP3    H159233   3.861   5.066   1.760 -0.4705 -0.6186 -0.3876
12606TIP3    H259234   3.784   5.122   1.642 -0.9686  1.7661  1.0037
12607TIP3   OH259235   1.951   1.955   3.967 -0.2414 -0.3247  0.5220
12607TIP3    H159236   1.982   1.984   4.053 -0.3372 -1.0316  0.8037
12607TIP3    H259237   1.900   2.028   3.934 -2.8835 -1.1332  2.4463
12608TIP3   OH259238   0.693   2.108  15.010  0.1347 -0.4647  0.0077
12608TIP3    H159239   0.758   2.056  14.962  0.2426 -0.5069  0.1961
12608TIP3    H259240   0.745   2.164  15.068  0.0527  0.5243 -0.8501
12609TIP3   OH259241   3.983   0.622   4.562 -0.1437  0.0337  0.0204
12609TIP3    H159242   4.030   0.622   4.645  0.1207  1.0615 -0.1124
12609TIP3    H259243   3.965   0.530   4.544 -1.1871 -0.1243  1.7545
12610TIP3   OH259244   3.743   0.261   2.155 -0.0055 -0.2237 -0.7294
12610TIP3    H159245   3.685   0.233   2.225  0.8638  0.9905  0.5301
12610TIP3    H259246   3.703   0.341   2.120 -0.9174 -1.3106 -2.2851
12611TIP3   OH259247   1.681   6.581  14.382  0.5643  0.1029 -0.5612
12611TIP3    H159248   1.726   6.664  14.365  0.6646 -0.2937 -2.4112
12611TIP3    H259249   1.751   6.518  14.394  0.4872  0.2513  0.8014
12612TIP3   OH259250   5.050   0.004   4.871  0.1989  0.2831 -0.1860
12612TIP3    H159251   5.142  -0.022   4.865 -0.2799 -1.6478  0.0085
12612TIP3    H259252   5.003  -0.077   4.892 -1.1206  1.7985  3.8539
12613TIP3   OH259253   5.721   0.238   4.489 -0.3151 -0.0730  0.0239
12613TIP3    H159254   5.722   0.225   4.394  1.0616  2.9890 -0.5193
12613TIP3    H259255   5.660   0.311   4.502 -1.1301 -1.0041  1.6203
12614TIP3   OH259256   1.317   6.051  16.574  0.4224  0.0109 -0.1585
12614TIP3    H159257   1.258   6.121  16.548  0.2205  0.0622  0.4129
12614TIP3    H259258   1.354   6.018  16.492 -0.6115 -0.2102 -0.5485
12615TIP3   OH259259   3.177   1.323  14.119 -0.5415 -0.1068 -0.5777
12615TIP3    H159260   3.130   1.239  14.121  0.3901 -0.6740 -1.5368
12615TIP3    H259261   3.166   1.355  14.029  0.5393 -0.0536 -0.7060
12616TIP3   OH259262   3.972   6.488   4.952  0.0676  0.4264  0.5164
12616TIP3    H159263   3.949   6.520   4.865 -0.8229  0.0971  0.6177
12616TIP3    H259264   4.055   6.442   4.940 -0.5429 -0.4910 -0.3719
12617TIP3   OH259265   6.573   0.186   0.509  0.2015 -0.3396 -0.5550
12617TIP3    H159266   6.619   0.189   0.593  0.6395  0.9227 -0.8226
12617TIP3    H259267   6.486   0.151   0.530 -0.4533  1.9241  0.8021
12618TIP3   OH259268   3.945   0.354   0.424  0.5160  0.1402 -0.0190
12618TIP3    H159269   3.876   0.304   0.467  0.0324 -1.4258 -2.4359
12618TIP3    H259270   3.945   0.439   0.469 -3.4862  0.5013 -0.3475
12619TIP3   OH259271   3.688   5.820  14.916 -0.6118  0.6031  0.0689
12619TIP3    H159272   3.624   5.890  14.904 -1.8972 -0.8919 -3.0875
12619TIP3    H259273   3.640   5.752  14.964 -1.0114  0.0467 -1.0697
12620TIP3   OH259274   6.596   3.904   2.347  0.1943  0.1517 -0.5992
12620TIP3    H159275   6.548   3.832   2.304 -0.1140  1.1511 -1.9886
12620TIP3    H259276   6.584   3.888   2.440 -0.6267 -1.1011 -0.8944
12621TIP3   OH259277   5.451   4.528  14.688  0.3228  0.1478  0.3571
12621TIP3    H159278   5.529   4.484  14.722 -0.2502 -2.3665 -1.3281
12621TIP3    H259279   5.471   4.622  14.695  2.2924 -0.3601  2.5825
12622TIP3   OH259280   2.465   3.768   3.734 -0.2015 -0.5607 -0.2740
12622TIP3    H159281   2.436   3.709   3.803 -1.7511 -2.9620 -2.7422
12622TIP3    H259282   2.498   3.710   3.665 -0.6687  1.4968 -2.3819
12623TIP3   OH259283   3.531   4.697   5.152 -0.2156 -0.2788 -0.0521
12623TIP3    H159284   3.532   4.769   5.090 -0.7665 -0.0623  0.1791
12623TIP3    H259285   3.557   4.737   5.235  0.3483 -0.5305 -0.1051
12624TIP3   OH259286   4.438   5.180   4.799  0.9584  0.2325  0.2868
12624TIP3    H159287   4.396   5.264   4.780  1.0353  0.3453  0.6185
12624TIP3    H259288   4.436   5.133   4.715 -1.1051 -0.3454  0.5975
12625TIP3   OH259289   4.641   4.649   0.381 -0.0102  0.0285 -0.5944
12625TIP3    H159290   4.549   4.629   0.363  0.3619 -0.2312 -2.3151
12625TIP3    H259291   4.648   4.743   0.363  0.0763  0.0409 -0.4964
12626TIP3   OH259292   3.333   0.150  15.823  0.2077  0.0384  0.2347
12626TIP3    H159293   3.273   0.119  15.892 -0.8896  0.9335 -0.2874
12626TIP3    H259294   3.323   0.245  15.824 -0.5647  0.0324 -1.7772
12627TIP3   OH259295   6.361   6.080  12.331 -0.2459  0.0524  0.3675
12627TIP3    H159296   6.390   5.989  12.327 -0.0323  0.0566  1.5072
12627TIP3    H259297   6.393   6.112  12.415  2.0539  2.0039 -1.1192
12628TIP3   OH259298   6.422   4.793   1.656 -0.3348  0.2636  0.7449
12628TIP3    H159299   6.360   4.758   1.720 -0.1037  0.2381  0.9576
12628TIP3    H259300   6.482   4.847   1.708 -1.1216  1.5721  0.3283
12629TIP3   OH259301   5.140   4.850  16.983 -0.0456  0.0142 -0.1972
12629TIP3    H159302   5.178   4.936  16.964 -0.4673 -0.0989 -1.7334
12629TIP3    H259303   5.185   4.790  16.924 -0.2549 -0.6992  0.3576
12630TIP3   OH259304   2.300   6.173   5.405  0.4765 -0.2041  0.8472
12630TIP3    H159305   2.368   6.157   5.340  0.9903 -0.9663  1.5538
12630TIP3    H259306   2.337   6.142   5.488 -0.6543 -0.4709  1.2820
12631TIP3   OH259307   3.128   0.972  15.072  0.1570  0.2690  0.0973
12631TIP3    H159308   3.185   0.896  15.086 -0.5616 -0.3813 -0.4593
12631TIP3    H259309   3.169   1.019  14.999  0.7375  0.5607  0.6014
12632TIP3   OH259310   5.338   1.525   3.775 -0.2711 -0.6371  0.2087
12632TIP3    H159311   5.370   1.477   3.852 -0.5558 -0.2304  0.5859
12632TIP3    H259312   5.414   1.575   3.745 -0.5649  0.4692  1.2113
12633TIP3   OH259313   3.681   4.960   2.535  0.2896 -0.2049  0.1551
12633TIP3    H159314   3.633   4.920   2.608 -0.1384 -0.2212 -0.1359
12633TIP3    H259315   3.616   4.969   2.465  0.2960  1.2998  0.3177
12634TIP3   OH259316   0.195   3.349  10.432 -0.4185  0.2037 -0.0982
12634TIP3    H159317   0.276   3.400  10.446 -0.4365 -0.0615  1.0833
12634TIP3    H259318   0.225   3.267  10.394 -0.2519  0.5448 -0.7212
12635TIP3   OH259319   5.718   1.408   2.782 -0.7698  0.5269 -0.1112
12635TIP3    H159320   5.729   1.437   2.692 -0.8358  0.3143 -0.1894
12635TIP3    H259321   5.704   1.314   2.775 -0.5755  0.4782  0.1371
12636TIP3   OH259322   2.783   2.304   3.631 -0.9861 -0.1261  0.3191
12636TIP3    H159323   2.758   2.348   3.549 -1.5701  0.3292  0.7329
12636TIP3    H259324   2.803   2.214   3.605  0.3519  0.3881 -0.5780
12637TIP3   OH259325   2.104   0.271   4.330 -0.3809 -0.4629 -0.2480
12637TIP3    H159326   2.085   0.236   4.417 -0.0236  2.0695  0.9326
12637TIP3    H259327   2.114   0.193   4.275  0.3524 -2.2011  2.1481
12638TIP3   OH259328   5.989   5.012  11.886  0.1644 -0.0008 -0.0752
12638TIP3    H159329   6.001   5.065  11.964  1.2985 -2.0087  1.2184
12638TIP3    H259330   6.078   4.985  11.861 -0.3872 -1.9574 -0.1187
12639TIP3   OH259331   1.078   6.051  15.699 -0.2030 -0.1714 -0.5047
12639TIP3    H159332   1.150   5.988  15.690 -1.4717 -1.4943 -2.2513
12639TIP3    H259333   1.060   6.053  15.793  2.3438  0.5376  0.0481
12640TIP3   OH259334   6.749   1.795  13.580 -0.5205  0.1791  0.4324
12640TIP3    H159335   6.774   1.821  13.491 -1.5418 -1.6710 -0.4526
12640TIP3    H259336   6.783   1.706  13.589 -0.7084  0.2290  1.7862
12641TIP3   OH259337   5.808   3.607   4.235 -0.8737 -0.4252  0.3335
12641TIP3    H159338   5.764   3.539   4.185  1.5847 -1.1845 -0.9354
12641TIP3    H259339   5.865   3.651   4.172  0.8007 -0.0659  2.0060
12642TIP3   OH259340   0.341   5.964   2.609 -0.0036  0.0289 -0.1326
12642TIP3    H159341   0.332   6.059   2.613 -1.7975 -0.0171 -1.6095
12642TIP3    H259342   0.435   5.950   2.594  0.4254  1.5032  0.9244
12643TIP3   OH259343   2.067   3.387   4.754 -0.3700  0.5004 -0.2154
12643TIP3    H159344   2.122   3.310   4.735 -3.2364 -1.4522 -1.2170
12643TIP3    H259345   2.107   3.458   4.703  1.7819 -0.5291 -0.0773
12644TIP3   OH259346   3.040   0.720  14.798 -0.5555  0.4602 -0.0028
12644TIP3    H159347   3.048   0.659  14.871  2.0611 -0.0158 -0.5901
12644TIP3    H259348   2.951   0.708  14.766 -1.1131 -0.7460  1.8694
12645TIP3   OH259349   1.284   0.508   3.241 -0.2116 -0.4022 -0.1722
12645TIP3    H159350   1.218   0.518   3.173 -0.1944 -1.2839 -0.3315
12645TIP3    H259351   1.242   0.455   3.308 -0.3696  0.8077  0.7196
12646TIP3   OH259352   2.368   1.401  16.308 -0.4235  0.7955  0.6629
12646TIP3    H159353   2.329   1.481  16.272  1.7221  0.9030 -1.7040
12646TIP3    H259354   2.392   1.350  16.231 -1.4131 -2.0336  2.1180
12647TIP3   OH259355   3.420   1.441   3.692  0.0598 -0.2923 -0.0598
12647TIP3    H159356   3.365   1.378   3.738  0.9276 -0.2782  1.0457
12647TIP3    H259357   3.487   1.465   3.755  0.7007  0.5166 -1.0087
12648TIP3   OH259358   6.308   3.045   5.540 -0.0477  0.4682  0.4282
12648TIP3    H159359   6.358   3.113   5.586  0.4790 -0.2765  0.9748
12648TIP3    H259360   6.329   3.059   5.448 -0.1851  1.2435  0.5096
12649TIP3   OH259361   3.240   2.000  13.365  0.0530  0.0441  0.1696
12649TIP3    H159362   3.300   1.938  13.408  2.2106  0.1244 -2.4362
12649TIP3    H259363   3.256   2.083  13.409  1.8591  0.0377 -0.4022
12650TIP3   OH259364   5.385   2.603   4.717 -0.1255 -0.0574 -0.0768
12650TIP3    H159365   5.345   2.535   4.771 -2.2616  0.2613 -1.1262
12650TIP3    H259366   5.440   2.555   4.654 -0.4760 -0.7118  0.1064
12651TIP3   OH259367   5.821   5.862  11.366 -0.2563 -0.3692  0.1154
12651TIP3    H159368   5.841   5.795  11.300 -0.2282 -0.9576  0.7054
12651TIP3    H259369   5.838   5.818  11.450 -2.5608 -0.4439  0.6202
12652TIP3   OH259370   5.538   2.395  16.312 -0.0825 -0.1292 -0.7102
12652TIP3    H159371   5.521   2.334  16.240 -0.3807 -1.2235  0.2468
12652TIP3    H259372   5.630   2.421  16.300  1.1191 -3.2660  0.5730
12653TIP3   OH259373   5.829   0.013   1.153  0.2155 -0.8484 -0.4824
12653TIP3    H159374   5.809  -0.078   1.172 -0.4110 -0.1522  2.7506
12653TIP3    H259375   5.821   0.058   1.237  0.2252  2.2634 -1.9880
12654TIP3   OH259376   3.044   0.982   5.676 -0.3379 -0.0891  0.3481
12654TIP3    H159377   3.096   0.952   5.602 -1.4190 -0.0924 -0.4267
12654TIP3    H259378   3.100   1.046   5.720  0.8427 -1.0991  0.3392
12655TIP3   OH259379   6.460   5.662  12.132 -0.4684  0.4809 -0.0354
12655TIP3    H159380   6.365   5.664  12.138 -0.4059 -0.0024  2.0222
12655TIP3    H259381   6.479   5.581  12.084 -1.0927 -0.0114  0.5211
12656TIP3   OH259382   1.395   6.054   4.897  0.4114  0.4201 -1.1126
12656TIP3    H159383   1.340   6.031   4.822  1.9395 -2.2348 -1.5216
12656TIP3    H259384   1.481   6.073   4.859  0.8701  0.3352 -0.1511
12657TIP3   OH259385   0.321   2.266   5.345 -0.2586 -0.3738 -0.5919
12657TIP3    H159386   0.257   2.196   5.355 -0.5528  0.1093  1.2501
12657TIP3    H259387   0.269   2.346   5.341  0.1692 -0.0370  0.2487
12658TIP3   OH259388   0.420   1.128   4.370  0.3001  0.5898  0.9164
12658TIP3    H159389   0.414   1.045   4.416  1.8835  0.4564  0.9307
12658TIP3    H259390   0.443   1.192   4.437  3.2661  0.2865  0.3474
12659TIP3   OH259391   5.905   6.150  12.809  0.0535 -0.1452 -0.0376
12659TIP3    H159392   5.975   6.163  12.745 -0.2649  1.0785 -0.1668
12659TIP3    H259393   5.827   6.187  12.767 -0.3457 -0.1413  0.6958
12660TIP3   OH259394   4.447   2.026   6.502  0.4080 -0.4134  0.3653
12660TIP3    H159395   4.486   1.939   6.516  0.3272 -0.5457 -0.1958
12660TIP3    H259396   4.364   2.007   6.459  0.9024 -0.0061 -0.8138
12661TIP3   OH259397   3.077   2.651   1.430 -0.0891 -0.0307  0.1238
12661TIP3    H159398   3.112   2.579   1.483  0.0673  0.6398  0.9445
12661TIP3    H259399   3.115   2.730   1.469  1.2578  0.4140 -1.9164
12662TIP3   OH259400   6.478   2.135  15.476 -0.0508  0.5635  0.1786
12662TIP3    H159401   6.545   2.105  15.537  1.4843  0.8512 -1.3001
12662TIP3    H259402   6.426   2.198  15.526 -0.7438 -1.3459  2.0567
12663TIP3   OH259403   4.666   6.493  10.380  0.2791  0.0496 -0.0501
12663TIP3    H159404   4.614   6.448  10.447  1.2618 -1.9820 -0.5578
12663TIP3    H259405   4.670   6.584  10.409 -2.4942  0.0459  0.6393
12664TIP3   OH259406   5.878   1.530  11.257 -0.2157 -0.0496  0.2325
12664TIP3    H159407   5.846   1.586  11.187  0.7062 -0.6186 -0.6728
12664TIP3    H259408   5.807   1.529  11.321 -0.0127  2.6795  0.6248
12665TIP3   OH259409   1.681   0.489   1.585 -0.2578  0.2775  0.1920
12665TIP3    H159410   1.716   0.543   1.655 -0.9148 -1.2335  1.7652
12665TIP3    H259411   1.695   0.399   1.615  0.1681 -0.4476 -2.0035
12666TIP3   OH259412   0.721   5.887   2.788 -0.2223 -0.1439  0.0651
12666TIP3    H159413   0.669   5.914   2.712 -0.9790 -0.2427  0.5350
12666TIP3    H259414   0.769   5.810   2.759 -1.0941 -0.6395 -0.0841
12667TIP3   OH259415   2.291   6.438  17.046 -0.2155 -0.1051 -0.8686
12667TIP3    H159416   2.356   6.440  17.116 -0.5852  0.7898 -0.5406
12667TIP3    H259417   2.324   6.373  16.984  0.1908 -0.8049  0.0625
12668TIP3   OH259418   6.377   6.385   3.683  0.1304  0.1204  0.1233
12668TIP3    H159419   6.417   6.331   3.750  0.9428 -0.3358 -0.7066
12668TIP3    H259420   6.378   6.474   3.720  3.2289  0.4127 -0.3541
12669TIP3   OH259421   4.562   4.770   1.811 -0.3424 -0.4008 -0.6254
12669TIP3    H159422   4.468   4.762   1.830 -0.4283  1.3352 -0.2197
12669TIP3    H259423   4.576   4.863   1.796  1.6356 -0.3562  1.0770
12670TIP3   OH259424   0.464   2.005  11.308 -0.0169  0.0392 -0.1816
12670TIP3    H159425   0.399   2.005  11.239  0.1156 -0.0019 -0.3079
12670TIP3    H259426   0.426   2.058  11.378  0.1745  0.7373 -0.5953
12671TIP3   OH259427   4.065   3.177  16.381 -0.8039  0.3338  0.1135
12671TIP3    H159428   4.059   3.272  16.368  0.3091  0.3065 -0.7135
12671TIP3    H259429   4.040   3.140  16.297  0.5167 -0.0371 -0.1378
12672TIP3   OH259430   5.087   1.838  14.682  0.1215  0.0113 -0.0704
12672TIP3    H159431   5.086   1.813  14.589 -0.4201 -0.6163  0.0936
12672TIP3    H259432   5.144   1.915  14.686  0.2757 -0.0512 -0.8983
12673TIP3   OH259433   4.348   3.189   1.473  0.1004 -0.3869  0.3276
12673TIP3    H159434   4.311   3.106   1.502 -0.9844  0.5084  1.6418
12673TIP3    H259435   4.279   3.254   1.490  1.4343  0.9932  0.7148
12674TIP3   OH259436   0.299   5.403  13.184 -0.1432  0.0268  0.3888
12674TIP3    H159437   0.392   5.387  13.168  0.4744  1.2945  2.3438
12674TIP3    H259438   0.255   5.373  13.104  1.9679 -0.2984 -0.7144
12675TIP3   OH259439   2.924   5.158  12.919 -0.4814 -0.0476  0.4554
12675TIP3    H159440   2.919   5.080  12.864  0.0164  0.0976  0.2015
12675TIP3    H259441   2.833   5.184  12.933 -0.6521 -0.6726  0.5398
12676TIP3   OH259442   5.606   5.756  14.839 -0.0222  0.5848  0.3255
12676TIP3    H159443   5.657   5.833  14.814 -0.9932  0.5193 -2.1269
12676TIP3    H259444   5.672   5.693  14.867  1.1075  1.2151 -0.7658
12677TIP3   OH259445   3.628   0.848  15.295 -0.2510 -0.1916  0.5487
12677TIP3    H159446   3.563   0.781  15.315 -0.1121 -0.7249 -0.6957
12677TIP3    H259447   3.592   0.894  15.219  0.7363 -0.3853 -0.0539
12678TIP3   OH259448   6.216   5.152   3.995 -0.0441 -0.2505 -0.2021
12678TIP3    H159449   6.194   5.110   4.078  0.1457 -1.0363 -0.5403
12678TIP3    H259450   6.188   5.243   4.006 -1.0081 -0.5981  0.3346
12679TIP3   OH259451   6.566   2.798  13.343  0.1112  0.2845  0.2991
12679TIP3    H159452   6.516   2.744  13.403 -0.1541  1.4816  1.2037
12679TIP3    H259453   6.536   2.887  13.360  0.6292  0.7496 -1.0381
12680TIP3   OH259454   4.411   0.736   3.228 -0.0078  0.3463  0.2365
12680TIP3    H159455   4.484   0.703   3.175  0.6321  2.2098 -0.1256
12680TIP3    H259456   4.406   0.674   3.302  1.0817 -0.5595 -0.4038
12681TIP3   OH259457   0.281   6.397   6.520  0.0134  0.1181 -0.3447
12681TIP3    H159458   0.287   6.304   6.543  0.3148  0.0013 -0.8910
12681TIP3    H259459   0.272   6.442   6.605 -0.0937 -0.4023 -0.0752
12682TIP3   OH259460   0.572   0.328  13.276  0.5888  0.4302 -0.3120
12682TIP3    H159461   0.544   0.238  13.292  2.7911  0.1611  2.9884
12682TIP3    H259462   0.518   0.357  13.202 -0.2465 -3.5198 -1.5083
12683TIP3   OH259463   0.314   2.239   2.114 -0.5079 -0.0202 -0.7626
12683TIP3    H159464   0.402   2.229   2.149 -0.7424 -3.3167 -0.7443
12683TIP3    H259465   0.318   2.317   2.058  1.9412  0.8221  0.4779
12684TIP3   OH259466   4.315   0.720   5.598 -0.5810  0.0517  0.1027
12684TIP3    H159467   4.381   0.705   5.530 -0.5309 -1.9905  0.5230
12684TIP3    H259468   4.231   0.711   5.552 -0.5597  0.2593  0.0215
12685TIP3   OH259469   3.124   5.626  10.922  0.3718  0.0307  0.0146
12685TIP3    H159470   3.045   5.625  10.869  0.0432 -2.9701  0.4184
12685TIP3    H259471   3.116   5.705  10.975 -1.6819  0.4834 -0.8757
12686TIP3   OH259472   6.666   2.849  15.151  0.3037 -0.0525  0.6015
12686TIP3    H159473   6.738   2.787  15.151 -0.6582 -1.2285  1.5952
12686TIP3    H259474   6.708   2.935  15.143  1.7254 -0.7588  0.1682
12687TIP3   OH259475   3.281   5.183   3.032  0.5827  0.2291  0.5407
12687TIP3    H159476   3.233   5.260   3.001 -0.4159 -0.3577  0.5848
12687TIP3    H259477   3.359   5.218   3.074  0.5081  1.1794 -0.0883
12688TIP3   OH259478   4.563   5.976   0.777 -0.7931 -0.2450  0.0629
12688TIP3    H159479   4.514   6.025   0.843 -1.1152  0.8181 -0.9453
12688TIP3    H259480   4.527   6.005   0.693  1.0399  0.0203 -0.6820
12689TIP3   OH259481   1.880   2.027  14.590  0.3791 -0.4511 -0.2829
12689TIP3    H159482   1.875   1.977  14.671  0.7861  1.6542  1.1263
12689TIP3    H259483   1.972   2.020  14.564  0.2300 -1.2016 -0.6362
12690TIP3   OH259484   0.687   1.338   5.097 -0.4715 -0.3566 -0.4318
12690TIP3    H159485   0.655   1.421   5.131  0.5682 -0.1787  0.1628
12690TIP3    H259486   0.608   1.288   5.076 -1.1940 -0.4418  2.1585
12691TIP3   OH259487   0.208   1.344  11.463 -0.4738 -0.0123  0.1559
12691TIP3    H159488   0.145   1.406  11.499 -3.1409 -2.3046 -0.2565
12691TIP3    H259489   0.218   1.370  11.372 -2.2247 -0.5918 -0.2377
12692TIP3   OH259490   0.552   5.391   6.146 -0.0318  0.3459  0.1728
12692TIP3    H159491   0.567   5.381   6.240  1.2085  2.6517  0.2999
12692TIP3    H259492   0.507   5.311   6.120  2.9384 -2.1228  1.9916
12693TIP3   OH259493   3.585   5.798   4.317 -0.1835  0.4545 -0.1032
12693TIP3    H159494   3.613   5.889   4.306  0.5968  0.2056 -0.2389
12693TIP3    H259495   3.627   5.771   4.399 -2.1273  0.8555  1.0785
12694TIP3   OH259496   6.351   1.906  17.018  0.0234  0.3470  0.0467
12694TIP3    H159497   6.320   1.892  17.107  0.2530  0.4611  0.1436
12694TIP3    H259498   6.440   1.938  17.028 -0.6966  2.6157 -0.1314
12695TIP3   OH259499   0.694   0.914  15.076 -0.0816 -0.3805  0.1804
12695TIP3    H159500   0.701   0.837  15.132  0.7704 -0.4857 -0.0493
12695TIP3    H259501   0.706   0.988  15.136  0.0270 -0.4616  0.2586
12696TIP3   OH259502   1.993   4.737  13.703 -0.3410 -0.1329 -0.1633
12696TIP3    H159503   1.928   4.783  13.650 -1.0706  0.8369  1.4890
12696TIP3    H259504   1.942   4.698  13.775  0.4070 -2.5956 -0.8553
12697TIP3   OH259505   2.821   1.168  12.656 -0.1776  0.0257  0.0531
12697TIP3    H159506   2.799   1.199  12.744 -0.5414  0.0683 -0.0511
12697TIP3    H259507   2.749   1.110  12.633  0.2730 -0.5425  0.0657
12698TIP3   OH259508   2.920   5.643   1.333 -0.4647  0.1310  0.2896
12698TIP3    H159509   2.956   5.561   1.298 -3.0241 -0.7002 -0.6886
12698TIP3    H259510   2.942   5.641   1.426  1.0351 -0.7842 -0.0453
12699TIP3   OH259511   2.342   3.369  14.732  0.0485 -0.3900  0.0820
12699TIP3    H159512   2.321   3.275  14.727  1.4743 -0.7774  0.8390
12699TIP3    H259513   2.257   3.411  14.746 -0.6122 -1.5701 -0.2133
12700TIP3   OH259514   1.170   6.382  15.092  0.1997  0.5366  0.2195
12700TIP3    H159515   1.159   6.294  15.128  2.2894  0.0589 -0.1727
12700TIP3    H259516   1.261   6.384  15.062  0.4740  3.1352  1.0193
12701TIP3   OH259517   5.050   1.230   1.193  0.4753 -0.2718 -0.1205
12701TIP3    H159518   5.104   1.153   1.175  1.6365  0.2576  0.9773
12701TIP3    H259519   5.039   1.230   1.288  0.6709  1.0247 -0.0835
12702TIP3   OH259520   5.114   0.970   2.027  0.4006  0.2729 -0.2941
12702TIP3    H159521   5.119   0.966   2.122  1.3959 -0.4669 -0.3588
12702TIP3    H259522   5.021   0.960   2.007  0.2883 -0.5579  0.5696
12703TIP3   OH259523   3.875   1.014  15.969 -0.1927  0.0840 -0.1095
12703TIP3    H159524   3.833   1.007  16.055  0.4238  0.9643  0.2844
12703TIP3    H259525   3.872   0.926  15.933 -0.6345 -0.2542  0.7428
12704TIP3   OH259526   2.340   4.735   1.055  0.1053  0.5521  0.3905
12704TIP3    H159527   2.384   4.665   1.007 -0.5208  1.2880 -1.3465
12704TIP3    H259528   2.247   4.713   1.051  0.0119  0.8128  0.9822
12705TIP3   OH259529   3.330   0.371  16.988 -0.3046 -0.4363  0.1871
12705TIP3    H159530   3.367   0.295  17.032  0.5262 -0.8578 -1.1715
12705TIP3    H259531   3.316   0.435  17.057  3.0213 -0.2184  0.8193
12706TIP3   OH259532   4.208   5.471   0.209 -0.3433  0.2523  0.2302
12706TIP3    H159533   4.142   5.490   0.142  0.1934  1.1363 -0.0755
12706TIP3    H259534   4.158   5.444   0.286 -1.0433  0.5191 -0.1195
12707TIP3   OH259535   3.542   6.240  10.602  0.0366  0.1550 -0.0374
12707TIP3    H159536   3.545   6.303  10.674  1.3516 -0.0361  0.0995
12707TIP3    H259537   3.619   6.184  10.616 -0.8048 -1.1478 -0.4591
12708TIP3   OH259538   4.581   0.647  13.434  0.2793 -0.7334  0.0247
12708TIP3    H159539   4.547   0.700  13.362  0.0687 -0.9400 -0.0298
12708TIP3    H259540   4.671   0.625  13.407 -0.3183 -2.1938 -0.9691
12709TIP3   OH259541   1.273   1.236  11.695 -0.3153  0.0557  0.2171
12709TIP3    H159542   1.316   1.301  11.639 -1.7281  0.0822 -0.8710
12709TIP3    H259543   1.180   1.244  11.675 -1.1756  1.3709  3.8860
12710TIP3   OH259544   4.850   2.163   0.242  0.5404 -0.0494 -0.0732
12710TIP3    H159545   4.865   2.149   0.336 -3.0541 -1.4537  0.4615
12710TIP3    H259546   4.862   2.257   0.229 -1.4579  0.6530  2.4495
12711TIP3   OH259547   1.042   5.141  14.504  0.0501  0.4737 -0.2558
12711TIP3    H159548   1.077   5.143  14.593 -1.2090  2.1930  0.2579
12711TIP3    H259549   0.955   5.103  14.514  0.4879 -0.7618 -1.0117
12712TIP3   OH259550   0.379   1.909  15.062  0.9479  0.2688 -0.8805
12712TIP3    H159551   0.388   1.997  15.024 -1.5190  1.1052  0.2549
12712TIP3    H259552   0.444   1.906  15.131 -0.4909  2.2193  0.6751
12713TIP3   OH259553   3.542   1.993   4.581 -0.0009 -0.1655  0.0045
12713TIP3    H159554   3.475   1.956   4.639  2.0167 -1.3681  1.7180
12713TIP3    H259555   3.595   2.048   4.639  0.5488  0.7360 -1.3043
12714TIP3   OH259556   2.838   6.767  17.152 -0.1250  0.1063 -0.1615
12714TIP3    H159557   2.820   6.674  17.162  1.7547 -0.3830 -0.8856
12714TIP3    H259558   2.895   6.772  17.076  1.3183  1.6536  0.9535
12715TIP3   OH259559   2.020   4.416  13.582 -0.1712 -0.3449 -0.1119
12715TIP3    H159560   2.076   4.492  13.594  0.1670 -0.8023  1.4164
12715TIP3    H259561   2.038   4.360  13.658 -1.1882 -1.4563 -0.6483
12716TIP3   OH259562   0.414   2.880  14.015 -0.2106 -0.4294  0.1546
12716TIP3    H159563   0.321   2.878  14.036 -0.3057  0.5157 -0.1542
12716TIP3    H259564   0.436   2.973  14.008  0.8410 -0.6351  0.5825
12717TIP3   OH259565   1.207   2.216  11.123 -0.1994 -0.0915 -0.3169
12717TIP3    H159566   1.261   2.208  11.044  2.2837 -1.3196  1.3543
12717TIP3    H259567   1.195   2.126  11.153 -2.7585  0.1957 -0.2504
12718TIP3   OH259568   6.420   4.355  14.750 -0.6952 -0.2054  0.2805
12718TIP3    H159569   6.482   4.420  14.717 -1.1298 -0.2245 -0.6142
12718TIP3    H259570   6.471   4.273  14.754  0.0009  0.2687  1.9189
12719TIP3   OH259571   6.264   5.529  11.790 -0.0932  0.2868 -0.1902
12719TIP3    H159572   6.263   5.619  11.758 -1.9382  0.2788 -0.2503
12719TIP3    H259573   6.353   5.498  11.774  0.5089  2.0322 -0.3430
12720TIP3   OH259574   2.541   4.550  14.303 -0.5065 -0.5452 -0.0963
12720TIP3    H159575   2.634   4.552  14.325 -0.3986 -0.5590 -0.5390
12720TIP3    H259576   2.528   4.463  14.264 -0.9187 -0.9328  0.8577
12721TIP3   OH259577   5.622   4.747   0.428 -0.1503 -0.2676  0.5241
12721TIP3    H159578   5.558   4.701   0.482 -0.2488 -2.5157 -1.3141
12721TIP3    H259579   5.581   4.830   0.406 -0.8072 -0.0503  2.4351
12722TIP3   OH259580   6.683   5.880  11.473  0.4812 -0.4827  0.2656
12722TIP3    H159581   6.591   5.906  11.465  0.6884  1.1284  2.1730
12722TIP3    H259582   6.713   5.869  11.382 -1.3445 -0.1294 -0.4216
12723TIP3   OH259583   2.874   5.038   3.774  0.0037 -0.1792  0.3650
12723TIP3    H159584   2.874   5.102   3.703  1.8347  0.2418  0.7127
12723TIP3    H259585   2.783   5.008   3.778 -0.2042 -0.1060 -2.0455
12724TIP3   OH259586   3.173   2.979   5.780  0.6468 -0.3937 -0.5218
12724TIP3    H159587   3.143   3.047   5.840 -0.1505 -0.2168 -1.1022
12724TIP3    H259588   3.230   2.924   5.833 -0.8674 -0.8667  0.6964
12725TIP3   OH259589   4.744   6.404  14.706  0.1559  0.3567  0.2835
12725TIP3    H159590   4.763   6.350  14.629 -1.6535 -2.5206  1.7072
12725TIP3    H259591   4.659   6.443  14.686  0.2040  0.5080  0.3750
12726TIP3   OH259592   3.681   4.758  16.358 -0.2087 -0.6997 -0.1831
12726TIP3    H159593   3.604   4.716  16.319  0.8012 -1.9429 -0.9217
12726TIP3    H259594   3.719   4.809  16.287  0.3486 -1.1223 -0.1985
12727TIP3   OH259595   5.624   0.434   6.741  0.0235 -0.1566  0.6868
12727TIP3    H159596   5.639   0.404   6.652 -0.9038  0.5200  0.2798
12727TIP3    H259597   5.699   0.490   6.761 -0.7960  1.4619 -0.5042
12728TIP3   OH259598   1.669   2.938   1.672 -0.5005  0.6144 -0.0462
12728TIP3    H159599   1.623   2.857   1.649 -1.4621  1.2822 -0.5282
12728TIP3    H259600   1.646   3.000   1.603  0.6720  1.1523  0.0095
12729TIP3   OH259601   6.604   3.297   1.828  0.3988 -0.3559  0.1567
12729TIP3    H159602   6.646   3.223   1.782 -1.0588 -1.1227 -0.0050
12729TIP3    H259603   6.535   3.256   1.880 -0.9285  0.9564 -0.5051
12730TIP3   OH259604   2.365   0.698  15.766  0.0350 -0.0651 -1.0041
12730TIP3    H159605   2.309   0.773  15.747 -1.8551 -1.6560 -2.0508
12730TIP3    H259606   2.429   0.698  15.695 -0.8607 -0.2848 -1.8172
12731TIP3   OH259607   1.820   5.951   4.450  0.5356  0.4772  0.2619
12731TIP3    H159608   1.887   5.997   4.501  1.1422 -0.6162  0.4906
12731TIP3    H259609   1.807   6.005   4.373  0.2750  1.6910  1.1217
12732TIP3   OH259610   3.219   5.969   2.509  0.8147  0.3208  0.6072
12732TIP3    H159611   3.295   5.946   2.457 -0.0399  0.7918 -0.9348
12732TIP3    H259612   3.220   6.065   2.511 -0.4842  0.4003 -0.6889
12733TIP3   OH259613   3.568   0.847   5.046 -0.3552 -0.4695  0.7041
12733TIP3    H159614   3.584   0.938   5.018 -1.8812 -0.9843 -2.2624
12733TIP3    H259615   3.532   0.855   5.134 -2.3450  2.0530 -0.1925
12734TIP3   OH259616   4.742   5.533   6.179  0.5568 -0.3597 -0.2611
12734TIP3    H159617   4.770   5.453   6.223  0.0466 -0.6509 -0.4494
12734TIP3    H259618   4.817   5.592   6.186  0.7416 -0.6569  0.3597
12735TIP3   OH259619   1.119   2.657  13.831 -0.2446  0.3140  0.3019
12735TIP3    H159620   1.086   2.573  13.863 -1.5104  0.4349 -0.5948
12735TIP3    H259621   1.040   2.707  13.810  0.4850  0.3483 -2.7029
12736TIP3   OH259622   2.205   3.498  15.228  0.0605 -0.2150  0.3895
12736TIP3    H159623   2.180   3.537  15.312  0.0171 -0.4638  0.4934
12736TIP3    H259624   2.293   3.531  15.212  0.2906 -0.6069  0.8079
12737TIP3   OH259625   3.708   3.447   3.215  0.3629 -0.0780 -0.3221
12737TIP3    H159626   3.686   3.518   3.275 -0.0313  0.8317 -1.4978
12737TIP3    H259627   3.767   3.486   3.151 -0.2507 -0.6603 -1.2763
12738TIP3   OH259628   0.352   4.064   1.157  0.1876  0.4625 -0.5730
12738TIP3    H159629   0.368   3.982   1.111 -0.1256 -0.1629  0.3982
12738TIP3    H259630   0.439   4.095   1.181  0.2653 -0.0378 -0.1919
12739TIP3   OH259631   1.264   3.350  12.430 -0.5668  0.0284  0.0327
12739TIP3    H159632   1.206   3.318  12.500  0.4038  0.7094  1.1970
12739TIP3    H259633   1.254   3.445  12.433  1.7981  0.3274  1.4260
12740TIP3   OH259634   1.092   0.050   6.118 -0.0400 -0.1310  0.4659
12740TIP3    H159635   1.021   0.014   6.066  0.5213 -1.8599  0.8281
12740TIP3    H259636   1.072   0.023   6.208 -1.0412  2.8656  1.2516
12741TIP3   OH259637   3.176   1.422   2.580  0.0106 -0.3870  0.2958
12741TIP3    H159638   3.176   1.333   2.614  0.0508 -0.5657 -0.1650
12741TIP3    H259639   3.243   1.468   2.632 -0.1921 -0.5549  0.7055
12742TIP3   OH259640   4.924   3.125  15.851  0.1506 -0.7176 -0.0447
12742TIP3    H159641   4.900   3.214  15.875 -1.1792 -1.5682  2.0057
12742TIP3    H259642   4.841   3.080  15.838  0.7968 -1.7764 -0.6493
12743TIP3   OH259643   2.653   0.843  10.440  0.2298 -0.0021 -0.0007
12743TIP3    H159644   2.605   0.916  10.478  2.1951  1.8090 -0.8379
12743TIP3    H259645   2.726   0.883  10.393  0.6759 -2.4309 -1.5794
12744TIP3   OH259646   4.340   4.289   4.617  0.1079 -0.3152  0.8745
12744TIP3    H159647   4.244   4.297   4.618  0.1805  0.6954  1.7545
12744TIP3    H259648   4.357   4.209   4.567 -1.1072  0.5758 -1.0971
12745TIP3   OH259649   4.015   4.546  14.473  0.0658  0.0915 -0.4519
12745TIP3    H159650   3.981   4.511  14.556  0.3524 -0.1040 -0.4170
12745TIP3    H259651   3.943   4.600  14.439 -0.0475  0.1869 -0.0687
12746TIP3   OH259652   6.533   3.360   1.356  0.3455  0.2057 -0.4276
12746TIP3    H159653   6.536   3.411   1.437  0.4470  1.5552 -1.2558
12746TIP3    H259654   6.623   3.332   1.342  0.0630 -1.5110  0.7910
12747TIP3   OH259655   5.155   0.508   2.183  0.8080 -0.3174 -0.5713
12747TIP3    H159656   5.165   0.443   2.253 -0.4321  0.0001 -0.0758
12747TIP3    H259657   5.157   0.592   2.228  0.9315 -0.0642 -1.0433
12748TIP3   OH259658   4.982   1.709  17.146  0.7999  0.3754  0.1513
12748TIP3    H159659   4.967   1.759  17.226 -2.5931  0.4100 -0.3608
12748TIP3    H259660   4.967   1.772  17.075 -0.5869 -0.6237 -0.4829
12749TIP3   OH259661   0.020   4.379  16.233  0.2272 -0.1218  0.5340
12749TIP3    H159662   0.008   4.344  16.322  0.2457 -0.3042  0.4657
12749TIP3    H259663  -0.060   4.428  16.215  0.3152  0.0975  0.7353
12750TIP3   OH259664   0.244   6.521  13.550  0.0220  0.1873  0.0051
12750TIP3    H159665   0.239   6.616  13.564  3.3603  0.2238  1.9645
12750TIP3    H259666   0.313   6.510  13.486  3.1749 -0.8918  3.2529
12751TIP3   OH259667   0.339   2.696  16.608 -0.3797 -0.3781  0.0774
12751TIP3    H159668   0.300   2.777  16.641  0.9726 -0.0840  1.0023
12751TIP3    H259669   0.375   2.653  16.686 -0.8663 -1.7720 -0.4304
12752TIP3   OH259670   6.593   4.484   4.939 -0.2116  0.2428  0.4285
12752TIP3    H159671   6.501   4.508   4.932 -1.2649 -2.5016  2.9036
12752TIP3    H259672   6.623   4.527   5.019  0.3211  0.2170  0.2472
12753TIP3   OH259673   3.989   3.302  15.626 -0.5789  0.4719 -0.0261
12753TIP3    H159674   4.083   3.301  15.604  0.1351  1.7252  2.6215
12753TIP3    H259675   3.972   3.215  15.662 -0.5518  0.1241 -0.8248
12754TIP3   OH259676   6.221   0.732  16.325 -0.4349 -0.0941 -0.0134
12754TIP3    H159677   6.296   0.791  16.318 -0.5819 -0.0972 -2.6274
12754TIP3    H259678   6.245   0.656  16.272 -1.7903 -0.6324  0.0875
12755TIP3   OH259679   5.224   4.332   2.005 -0.4819 -0.8558  0.7353
12755TIP3    H159680   5.163   4.365   2.070 -0.5948 -1.4006  0.9099
12755TIP3    H259681   5.306   4.321   2.052  0.2424  1.4010  0.1487
12756TIP3   OH259682   4.501   1.491  15.090  0.2207  0.4726  0.1082
12756TIP3    H159683   4.432   1.512  15.028  0.6001  0.3710 -0.3540
12756TIP3    H259684   4.522   1.399  15.073 -0.6118  0.0387  1.3181
12757TIP3   OH259685   2.763   3.590   4.578 -0.4207 -0.1329 -0.1199
12757TIP3    H159686   2.687   3.619   4.528 -0.0470 -0.8900 -1.1581
12757TIP3    H259687   2.729   3.574   4.666 -0.9051  2.1213  0.1594
12758TIP3   OH259688   4.075   4.598   4.343  0.0181  0.3189  0.0800
12758TIP3    H159689   4.060   4.664   4.411 -0.4586  0.5745 -0.2719
12758TIP3    H259690   4.152   4.551   4.374 -1.3180 -0.8637  1.7966
12759TIP3   OH259691   6.539   6.609   4.603  0.3751  0.5561 -0.0105
12759TIP3    H159692   6.471   6.544   4.618 -2.7481  3.1790 -1.5387
12759TIP3    H259693   6.575   6.588   4.517  0.4510  0.0154  0.1529
12760TIP3   OH259694   6.101   4.339   5.756  0.5254 -0.4236 -0.1781
12760TIP3    H159695   6.183   4.290   5.764  0.5924 -0.1037  1.4039
12760TIP3    H259696   6.078   4.362   5.846 -1.0482 -0.0761 -0.6409
12761TIP3   OH259697   5.359   5.097  16.258  0.2067  0.0155  0.3337
12761TIP3    H159698   5.440   5.055  16.287  1.5647  3.9274  2.9487
12761TIP3    H259699   5.377   5.123  16.168  0.6897 -1.6137 -0.0846
12762TIP3   OH259700   4.613   5.094  11.924 -0.0048 -0.2618 -0.5260
12762TIP3    H159701   4.620   5.093  11.828  1.5778 -1.1353 -0.4457
12762TIP3    H259702   4.524   5.123  11.942 -0.5524 -0.7569 -2.2790
12763TIP3   OH259703   1.387   3.125   4.994 -0.5220  0.0434  0.2243
12763TIP3    H159704   1.399   3.087   5.081 -1.5178  1.4865  1.0378
12763TIP3    H259705   1.445   3.074   4.937  1.6919  0.3190  2.0918
12764TIP3   OH259706   5.407   0.107  15.487  0.7954 -0.2259  0.3292
12764TIP3    H159707   5.404   0.203  15.488  1.9797 -0.1732  1.8552
12764TIP3    H259708   5.315   0.080  15.480  0.4316  1.0064  0.1204
12765TIP3   OH259709   2.902   3.364   2.001  0.3685  0.3291 -0.0170
12765TIP3    H159710   2.898   3.438   2.061  2.8367  1.3531 -1.0013
12765TIP3    H259711   2.972   3.386   1.940 -0.3272 -1.8315 -1.7184
12766TIP3   OH259712   6.757   1.333  14.809 -0.2480  0.4201  0.0039
12766TIP3    H159713   6.687   1.360  14.750 -0.2023  2.0050  0.6400
12766TIP3    H259714   6.823   1.294  14.751 -0.7002  0.8912 -0.8500
12767TIP3   OH259715   2.777   1.059   5.615  0.3483 -0.0554 -0.1356
12767TIP3    H159716   2.856   1.024   5.657  0.6626 -1.1132 -1.5115
12767TIP3    H259717   2.715   1.071   5.686  1.3355 -0.3945  0.8135
12768TIP3   OH259718   1.238   4.233  13.403  0.0641 -0.1709  0.3167
12768TIP3    H159719   1.179   4.286  13.349 -2.1037 -1.0894  1.6541
12768TIP3    H259720   1.282   4.175  13.341 -1.9159 -0.8032 -0.5735
12769TIP3   OH259721   3.718   4.859   3.364  0.0332  0.2087 -0.4921
12769TIP3    H159722   3.737   4.931   3.424  1.3963 -1.0653  0.6607
12769TIP3    H259723   3.802   4.816   3.350 -0.8634 -1.6263 -0.5289
12770TIP3   OH259724   6.382   3.799  15.535  0.1323  0.0596  0.3730
12770TIP3    H159725   6.319   3.728  15.542 -0.3784  0.3757 -0.8816
12770TIP3    H259726   6.333   3.877  15.560  0.4297  0.1211  0.7879
12771TIP3   OH259727   3.591   5.549  14.991  0.2567  0.1619 -0.7527
12771TIP3    H159728   3.504   5.537  15.029  0.2386 -1.2769 -1.1745
12771TIP3    H259729   3.650   5.553  15.067  0.2934 -3.2291 -0.4516
12772TIP3   OH259730   2.719   1.527   0.271 -0.0811  0.5295 -0.0897
12772TIP3    H159731   2.810   1.505   0.252 -0.0044 -1.2109  1.8912
12772TIP3    H259732   2.716   1.540   0.366 -1.4613  3.0200 -0.3916
12773TIP3   OH259733   1.868   3.242   3.049  0.2209 -0.0246 -0.1072
12773TIP3    H159734   1.816   3.268   3.125  1.0281  0.9394  0.1417
12773TIP3    H259735   1.843   3.305   2.981  1.2379  0.6243  0.0985
12774TIP3   OH259736   2.215   3.171   4.404 -0.2749  0.8226  0.6670
12774TIP3    H159737   2.265   3.252   4.396 -1.7479  1.8379  1.3196
12774TIP3    H259738   2.141   3.182   4.344  0.4383 -0.8436 -0.6246
12775TIP3   OH259739   0.802   5.510   5.578  0.1507 -0.1616 -0.3386
12775TIP3    H159740   0.728   5.516   5.519 -0.3083  0.0014  0.2413
12775TIP3    H259741   0.798   5.421   5.613  0.3501 -0.2187 -0.4564
12776TIP3   OH259742   5.965   4.743  14.540 -0.6159 -0.7758  0.6075
12776TIP3    H159743   5.895   4.680  14.526  0.0002 -1.1976 -0.7575
12776TIP3    H259744   6.045   4.697  14.516 -0.0363  0.1957  0.5917
12777TIP3   OH259745   3.578   4.671   3.026  0.1611 -0.3654 -0.3084
12777TIP3    H159746   3.590   4.592   3.078 -0.2775  0.2067  0.6916
12777TIP3    H259747   3.548   4.737   3.089 -0.8766  0.2196 -1.3794
12778TIP3   OH259748   1.306   4.627   3.292 -0.2051 -0.1061 -0.0122
12778TIP3    H159749   1.334   4.587   3.374  1.4614 -0.1681 -0.5931
12778TIP3    H259750   1.273   4.554   3.239 -0.1734 -0.2305  0.1391
12779TIP3   OH259751   2.551   1.305   1.369  0.3164  0.4128 -0.0960
12779TIP3    H159752   2.474   1.252   1.388  1.0061 -0.5879 -0.0268
12779TIP3    H259753   2.609   1.291   1.444  1.1011  0.1299 -0.7360
12780TIP3   OH259754   0.649   3.012  13.074 -0.8331  0.8830  0.5164
12780TIP3    H159755   0.592   3.036  13.001  1.4089  0.9697 -1.3244
12780TIP3    H259756   0.707   3.087  13.086  1.1868 -0.4700 -0.1228
12781TIP3   OH259757   4.846   2.783   4.698 -0.0897 -0.0418  0.3997
12781TIP3    H159758   4.768   2.761   4.646  0.9865 -0.9319 -0.9056
12781TIP3    H259759   4.902   2.831   4.637  1.2658 -1.2227  0.6705
12782TIP3   OH259760   1.565   0.970   0.494 -0.2402 -0.4752 -0.3810
12782TIP3    H159761   1.476   0.994   0.521 -0.5472 -1.7870 -0.1538
12782TIP3    H259762   1.566   0.874   0.499  0.7559 -0.5664 -1.7287
12783TIP3   OH259763   3.532   6.152   4.012  0.3379 -0.0781 -0.2973
12783TIP3    H159764   3.613   6.110   4.043 -0.7028 -0.9783  1.3466
12783TIP3    H259765   3.511   6.106   3.931 -0.2177 -2.1293  0.9402
12784TIP3   OH259766   2.489   5.820   5.257 -0.1378  0.1216 -0.2063
12784TIP3    H159767   2.423   5.760   5.291  1.4580 -1.0520  0.9786
12784TIP3    H259768   2.534   5.853   5.335  1.0977  0.3676 -0.9996
12785TIP3   OH259769   3.962   3.460  11.574  0.1236 -0.0846 -0.1131
12785TIP3    H159770   3.994   3.467  11.665  1.3349  0.9495 -0.5888
12785TIP3    H259771   4.015   3.390  11.536  2.4756  2.0472 -1.0852
12786TIP3   OH259772   3.030   5.399  12.232  0.0168 -0.3091 -0.3974
12786TIP3    H159773   2.946   5.443  12.217  0.3996  0.3025 -0.8242
12786TIP3    H259774   3.092   5.446  12.176  0.5964 -0.9183 -0.2895
12787TIP3   OH259775   1.509   3.587   1.482  0.0058  0.4465  0.2032
12787TIP3    H159776   1.516   3.570   1.576 -0.8147 -0.8038  0.0571
12787TIP3    H259777   1.432   3.537   1.454  1.0028 -0.2964 -1.3737
12788TIP3   OH259778   6.115   4.782  16.955  0.0760  0.3033 -0.0915
12788TIP3    H159779   6.173   4.810  16.884  0.7856  1.2535  0.8370
12788TIP3    H259780   6.136   4.841  17.028 -2.1738  0.8102  0.2253
12789TIP3   OH259781   5.193   4.527  13.924  0.0280  0.5148 -0.3907
12789TIP3    H159782   5.134   4.457  13.950 -1.3489  1.4769 -0.8134
12789TIP3    H259783   5.268   4.520  13.983  0.4150 -1.9248 -1.0802
12790TIP3   OH259784   4.356   4.346  12.031 -0.1284 -0.0036 -0.5957
12790TIP3    H159785   4.269   4.308  12.016  0.7959 -1.6804 -2.0633
12790TIP3    H259786   4.397   4.288  12.094 -0.4429  1.4876  1.0776
12791TIP3   OH259787   2.190   2.152  10.923 -1.0278 -0.4627  0.6338
12791TIP3    H159788   2.163   2.096  10.850 -0.0064 -0.0153 -0.1025
12791TIP3    H259789   2.222   2.091  10.990  0.2357 -0.7846 -0.2273
12792TIP3   OH259790   1.751   4.881  17.021 -0.6669  0.4801  0.5911
12792TIP3    H159791   1.827   4.846  17.067 -0.0198  0.4505 -0.4738
12792TIP3    H259792   1.701   4.804  16.993  0.6091  0.3321 -1.5040
12793TIP3   OH259793   1.061   0.917   5.980  0.0559 -0.1595 -0.0725
12793TIP3    H159794   1.084   0.839   5.929  0.5698 -0.2289  0.2487
12793TIP3    H259795   0.972   0.938   5.954  0.4022 -0.0280 -1.1985
12794TIP3   OH259796   6.627   4.544  14.704  0.1189 -0.3244 -0.0453
12794TIP3    H159797   6.674   4.526  14.785 -0.1671  1.7189  0.6259
12794TIP3    H259798   6.611   4.639  14.706 -0.0190 -0.2342 -2.4134
12795TIP3   OH259799   2.677   5.731   6.751 -0.0327 -0.2516 -0.3211
12795TIP3    H159800   2.729   5.654   6.773  1.1694  0.5719 -0.1790
12795TIP3    H259801   2.594   5.718   6.797  1.2963  0.0132  2.3513
12796TIP3   OH259802   3.453   6.669  14.232  0.9808  0.0281  0.1366
12796TIP3    H159803   3.528   6.615  14.257 -0.1731 -1.7131 -0.0235
12796TIP3    H259804   3.423   6.632  14.149 -0.8802 -0.2022  0.8657
12797TIP3   OH259805   6.110   3.128  16.984  0.3853  0.0723  0.1188
12797TIP3    H159806   6.084   3.045  16.945 -4.8460  1.9947 -1.3950
12797TIP3    H259807   6.168   3.168  16.920  1.1564 -1.4393 -0.1678
12798TIP3   OH259808   4.060   0.781   1.890  0.5953 -0.2553  0.8386
12798TIP3    H159809   4.018   0.816   1.968  1.6443  1.0243  0.8608
12798TIP3    H259810   4.054   0.852   1.826  0.6030 -0.9407  0.0594
12799TIP3   OH259811   0.376   6.678  16.338  0.0571  0.4648 -0.6672
12799TIP3    H159812   0.429   6.703  16.262  0.1552  2.3951 -0.0099
12799TIP3    H259813   0.359   6.760  16.384 -0.8220 -0.5369  0.8895
12800TIP3   OH259814   3.974   0.275   5.106 -0.2509  0.3991  0.1300
12800TIP3    H159815   3.889   0.308   5.076 -0.8699 -0.8983  0.4113
12800TIP3    H259816   4.012   0.232   5.029 -0.5344 -0.3522  0.4019
12801TIP3   OH259817   5.868   6.671   1.743  0.2108 -0.5268 -0.2378
12801TIP3    H159818   5.858   6.576   1.740  0.1511 -0.5295  0.0339
12801TIP3    H259819   5.929   6.691   1.671  1.0367 -0.8719  0.3504
12802TIP3   OH259820   4.734   1.144   3.996  0.9979  0.1140  0.3645
12802TIP3    H159821   4.797   1.197   3.947  0.7612  0.7329  0.7246
12802TIP3    H259822   4.780   1.119   4.076  1.7752 -1.8107 -0.6177
12803TIP3   OH259823   0.186   6.751   1.355  0.1530 -0.1021 -0.6035
12803TIP3    H159824   0.197   6.726   1.446 -1.3190 -0.0203 -0.3846
12803TIP3    H259825   0.275   6.764   1.323  0.7489 -1.2087  0.5066
12804TIP3   OH259826   2.932   5.728  16.175 -0.6181  0.2064 -0.6152
12804TIP3    H159827   2.974   5.708  16.259  0.0465  0.3734 -0.8996
12804TIP3    H259828   2.854   5.673  16.174 -0.1345 -0.5160 -0.2979
12805TIP3   OH259829   1.372   0.101  16.681 -1.0884 -0.2806  0.1146
12805TIP3    H159830   1.308   0.147  16.735 -1.8123  0.2207 -1.1209
12805TIP3    H259831   1.338   0.012  16.674 -0.7877 -0.4558  0.7830
12806TIP3   OH259832   3.192   0.903  13.310 -0.0760 -0.2413  0.5879
12806TIP3    H159833   3.142   0.941  13.238  0.5032 -1.3061 -0.4141
12806TIP3    H259834   3.125   0.872  13.372 -0.6770 -1.1750 -0.4789
12807TIP3   OH259835   3.287   6.314  14.554 -0.1481  0.3076  0.3618
12807TIP3    H159836   3.261   6.223  14.556 -0.8513  0.4603  3.4916
12807TIP3    H259837   3.205   6.363  14.547  0.0389  0.6938  0.7653
12808TIP3   OH259838   2.484   5.888  14.223  0.1487  0.0895  0.1867
12808TIP3    H159839   2.512   5.977  14.199  0.4469  0.4244  1.6304
12808TIP3    H259840   2.516   5.833  14.152  0.5714  1.0502 -0.3981
12809TIP3   OH259841   1.721   2.130   2.916 -0.5012 -0.5698  0.1486
12809TIP3    H159842   1.788   2.168   2.973 -1.8221 -0.1404  1.4590
12809TIP3    H259843   1.713   2.040   2.945 -1.1600 -0.3568  0.6497
12810TIP3   OH259844   2.745   5.032  13.953 -0.0031  0.4043 -0.4613
12810TIP3    H159845   2.816   4.969  13.968 -0.2965  0.6540  2.4972
12810TIP3    H259846   2.790   5.115  13.935  0.4686  0.4079  0.6726
12811TIP3   OH259847   4.035   5.442  15.608 -0.9536 -0.1808 -0.3589
12811TIP3    H159848   4.019   5.537  15.613 -1.1807 -0.0356 -2.5421
12811TIP3    H259849   3.956   5.403  15.646 -0.7744  0.4821  0.7446
12812TIP3   OH259850   4.780   0.066  11.023  0.4558  0.2020 -0.3730
12812TIP3    H159851   4.777   0.158  10.998 -1.3177  0.1519 -0.4932
12812TIP3    H259852   4.706   0.055  11.084  1.7547 -0.7453  1.1229
12813TIP3   OH259853   1.561   0.776  14.060  0.2276 -0.1193  0.4724
12813TIP3    H159854   1.562   0.783  13.965  1.5459 -1.6772  0.3415
12813TIP3    H259855   1.534   0.863  14.090  2.0902  1.1273 -1.2537
12814TIP3   OH259856   6.352   2.187  16.277 -0.0685 -0.2534 -1.0514
12814TIP3    H159857   6.382   2.209  16.365 -2.0012  0.1140 -0.4304
12814TIP3    H259858   6.421   2.218  16.219  0.9582  0.0697  0.2980
12815TIP3   OH259859   3.031   1.528  17.163  0.7508  0.0623 -0.1751
12815TIP3    H159860   2.946   1.535  17.120  0.4486 -0.0243  0.3946
12815TIP3    H259861   3.060   1.439  17.145  0.8835  0.2001 -0.6582
12816TIP3   OH259862   2.773   0.899  13.902 -0.0950  0.0180  0.1883
12816TIP3    H159863   2.859   0.926  13.870  0.0232 -0.7529 -0.1518
12816TIP3    H259864   2.726   0.870  13.824  0.5461 -2.8374  0.7783
12817TIP3   OH259865   6.575   3.943   2.901  0.2926 -0.8785 -0.2022
12817TIP3    H159866   6.580   4.034   2.872 -0.0424 -1.1437 -1.1355
12817TIP3    H259867   6.484   3.930   2.925  0.3076 -1.0035 -0.2128
12818TIP3   OH259868   4.378   3.402  14.528  0.2476  0.1069 -0.1640
12818TIP3    H159869   4.402   3.493  14.507 -1.3934  1.0246  1.6066
12818TIP3    H259870   4.298   3.386  14.479 -0.8537  0.5534  1.3936
12819TIP3   OH259871   4.745   3.238   3.560 -0.0034 -0.3936 -0.1080
12819TIP3    H159872   4.777   3.194   3.482  1.1776 -1.1371  0.7644
12819TIP3    H259873   4.819   3.291   3.589 -2.0057  4.2144 -2.4120
12820TIP3   OH259874   2.923   4.094   4.487  0.6396 -0.6153 -0.3577
12820TIP3    H159875   2.920   4.033   4.560  0.1026 -0.6103 -0.3753
12820TIP3    H259876   2.873   4.170   4.516 -0.8492 -1.2101 -1.2617
12821TIP3   OH259877   1.963   2.591   4.701  0.1786  0.8124 -0.0052
12821TIP3    H159878   1.955   2.595   4.605 -1.1450  0.1374  0.0622
12821TIP3    H259879   1.925   2.674   4.731 -2.2181 -0.2163  0.0446
12822TIP3   OH259880   5.439   0.099  14.251 -0.1425 -0.1389  0.5042
12822TIP3    H159881   5.495   0.076  14.177 -1.6707 -2.3573 -0.0667
12822TIP3    H259882   5.418   0.015  14.293 -2.3992  0.6397  1.1166
12823TIP3   OH259883   1.594   0.474   2.561  0.2514  0.3538  0.2501
12823TIP3    H159884   1.623   0.400   2.614  0.4509 -0.2608 -0.6804
12823TIP3    H259885   1.668   0.535   2.561  1.0212 -0.5380 -0.9066
12824TIP3   OH259886   6.053   2.417   3.038  0.2290 -0.2871 -0.5680
12824TIP3    H159887   6.000   2.491   3.066  0.1174 -1.1123  1.5581
12824TIP3    H259888   6.098   2.448   2.959 -3.0408  0.5658 -2.2341
12825TIP3   OH259889   2.874   3.949   6.325 -0.1264  0.0637  0.2391
12825TIP3    H159890   2.817   4.021   6.299  1.1252  0.8540 -0.3994
12825TIP3    H259891   2.949   3.991   6.368 -0.9014 -1.0516  2.9358
12826TIP3   OH259892   4.919   4.395   6.030 -0.8122 -0.2648 -0.0617
12826TIP3    H159893   4.933   4.488   6.044  0.6813 -0.2949 -1.0690
12826TIP3    H259894   4.943   4.355   6.114  1.1555  0.0904 -0.3958
12827TIP3   OH259895   1.233   5.174  11.084 -0.4154 -0.1110 -0.2528
12827TIP3    H159896   1.288   5.204  11.156 -1.3656 -0.0411  0.4738
12827TIP3    H259897   1.284   5.106  11.041  0.6834  0.7309 -0.2988
12828TIP3   OH259898   2.898   0.302  14.972  0.0502  0.4213 -0.0023
12828TIP3    H159899   2.962   0.278  14.905  0.5629 -3.3843  1.5697
12828TIP3    H259900   2.815   0.265  14.940  0.2231 -1.0909  1.1814
12829TIP3   OH259901   1.915   4.884   5.880  0.1477  0.0035  0.0193
12829TIP3    H159902   1.941   4.838   5.960 -0.5086 -1.7229 -0.7146
12829TIP3    H259903   1.915   4.816   5.812  0.2017  1.3226 -1.3528
12830TIP3   OH259904   1.416   5.315  12.870  0.3275  0.4189 -0.2605
12830TIP3    H159905   1.415   5.303  12.775  0.3694 -0.9534 -0.1213
12830TIP3    H259906   1.417   5.225  12.905 -1.2312  0.8646  1.0498
12831TIP3   OH259907   6.644   3.445  14.983 -0.0863 -0.3028 -0.0815
12831TIP3    H159908   6.700   3.504  15.032  1.6796 -1.9969  0.0670
12831TIP3    H259909   6.619   3.495  14.905  0.3657  1.0166  0.5883
12832TIP3   OH259910   5.555   1.011   1.041 -0.0869  0.4305 -0.2778
12832TIP3    H159911   5.500   1.061   0.980 -1.4603 -1.0313 -0.2808
12832TIP3    H259912   5.505   0.932   1.060  0.3493  0.7692  2.6958
12833TIP3   OH259913   6.428   1.402   6.393 -0.3527 -0.1397 -0.2037
12833TIP3    H159914   6.516   1.421   6.423 -0.1429 -0.6371 -0.4817
12833TIP3    H259915   6.381   1.373   6.471 -0.1673 -0.2162 -0.1211
12834TIP3   OH259916   0.756   2.531  13.429  0.4402 -0.3818  0.4578
12834TIP3    H159917   0.829   2.475  13.454  1.9607  0.8478 -1.0064
12834TIP3    H259918   0.701   2.475  13.374  0.8393 -1.0123  0.6905
12835TIP3   OH259919   3.729   5.144   5.269  0.3554 -0.7731 -0.6139
12835TIP3    H159920   3.791   5.182   5.331 -1.2541  1.7791 -0.4064
12835TIP3    H259921   3.671   5.089   5.322 -1.8926  2.4760  0.6372
12836TIP3   OH259922   1.192   6.053   0.282  0.6026 -0.1095 -0.5345
12836TIP3    H159923   1.160   6.143   0.278 -2.0834 -0.9711 -0.4916
12836TIP3    H259924   1.229   6.044   0.369  1.7003  1.1554 -0.8339
12837TIP3   OH259925   0.921   2.699   6.216 -0.5361  0.0123 -0.0580
12837TIP3    H159926   0.912   2.703   6.120 -3.4122  1.0373  0.1519
12837TIP3    H259927   0.876   2.619   6.241 -1.2615  0.5866  0.5292
12838TIP3   OH259928   3.710   2.217   3.335  0.3746 -0.7909  0.1728
12838TIP3    H159929   3.780   2.169   3.380 -0.1313 -0.1975  1.6643
12838TIP3    H259930   3.699   2.297   3.387 -2.3096 -1.4746  0.7932
12839TIP3   OH259931   0.502   6.556  17.047 -0.2117 -0.1579  0.1241
12839TIP3    H159932   0.422   6.536  16.998 -0.1644 -0.6421  0.2462
12839TIP3    H259933   0.546   6.623  16.994 -0.1341 -0.7110 -0.5255
12840TIP3   OH259934   4.302   1.469  15.907  0.1738 -0.1675  0.3820
12840TIP3    H159935   4.303   1.388  15.855  0.9284 -1.1008  1.7625
12840TIP3    H259936   4.211   1.499  15.903 -0.1514 -1.1537 -0.0551
12841TIP3   OH259937   6.514   0.492   3.404  0.2040  0.4168 -0.2953
12841TIP3    H159938   6.479   0.581   3.410 -1.7816 -0.3145 -0.5280
12841TIP3    H259939   6.514   0.472   3.310  0.5790  0.1398 -0.2395
12842TIP3   OH259940   0.443   4.570  15.524 -0.3979 -0.2197 -0.2571
12842TIP3    H159941   0.518   4.531  15.569 -1.0797 -1.9581 -0.5773
12842TIP3    H259942   0.481   4.612  15.447  0.2741 -1.0192 -0.3768
12843TIP3   OH259943   6.759   2.798  16.835 -0.0817  0.1566  0.2007
12843TIP3    H159944   6.839   2.796  16.888 -0.6180  0.3683  1.0328
12843TIP3    H259945   6.726   2.887  16.846 -1.4556 -0.4668  1.4293
12844TIP3   OH259946   4.988   2.258  16.277  0.1834  0.1507 -0.1230
12844TIP3    H159947   5.006   2.347  16.306 -1.7288  0.3420  0.6583
12844TIP3    H259948   4.905   2.264  16.229 -0.5529 -1.3521  0.8754
12845TIP3   OH259949   3.597   3.299   4.572 -0.0404 -0.2272  0.1480
12845TIP3    H159950   3.668   3.363   4.565 -0.0204 -0.3902 -1.5517
12845TIP3    H259951   3.617   3.250   4.652  2.7843 -1.4094 -1.1469
12846TIP3   OH259952   5.216   6.023  13.524  0.4592 -0.0671  0.2955
12846TIP3    H159953   5.233   5.983  13.609  2.1235 -0.1132 -0.0398
12846TIP3    H259954   5.263   5.968  13.461  0.0795  0.5464 -0.5542
12847TIP3   OH259955   3.772   2.012  12.923  0.8032 -0.3871 -0.3310
12847TIP3    H159956   3.843   1.998  12.861  0.8910 -0.0241 -0.3145
12847TIP3    H259957   3.713   2.074  12.880  0.6140 -0.5063 -0.2499
12848TIP3   OH259958   3.436   1.591  13.675 -0.2766  0.8081  0.6831
12848TIP3    H159959   3.475   1.581  13.762  0.4342 -0.9860  0.2239
12848TIP3    H259960   3.342   1.594  13.691 -0.1802  0.0379  1.5127
12849TIP3   OH259961   3.978   0.059  16.786 -0.0759  0.0101 -0.1508
12849TIP3    H159962   3.967  -0.027  16.745  0.5120 -1.4417  2.4841
12849TIP3    H259963   4.045   0.102  16.733 -1.0137 -0.7320 -2.0583
12850TIP3   OH259964   1.496   0.272  13.281 -0.4953  0.1462  0.2497
12850TIP3    H159965   1.520   0.204  13.344 -0.5876 -1.0708 -0.9816
12850TIP3    H259966   1.403   0.288  13.297 -0.1410  1.1036  1.5405
12851TIP3   OH259967   4.001   1.629   1.564 -0.0874 -0.1430  0.2671
12851TIP3    H159968   3.925   1.656   1.512  1.5281  0.5882 -1.8528
12851TIP3    H259969   3.994   1.534   1.569 -0.3865 -0.2228 -1.2084
12852TIP3   OH259970   2.494   3.459  12.367  0.3040 -0.0779  0.1890
12852TIP3    H159971   2.581   3.461  12.407 -1.4147  0.0382  4.4334
12852TIP3    H259972   2.475   3.366  12.354  0.0697 -0.3226  1.9839
12853TIP3   OH259973   2.595   5.352   2.270 -0.3206 -0.2851 -0.4195
12853TIP3    H159974   2.608   5.257   2.265  1.0607 -0.0819 -1.5563
12853TIP3    H259975   2.591   5.380   2.179 -0.7454  0.7588 -0.0933
12854TIP3   OH259976   2.677   2.287  12.287 -0.0839  0.1900  0.7521
12854TIP3    H159977   2.723   2.327  12.213 -2.7349  0.5344 -0.8385
12854TIP3    H259978   2.709   2.334  12.364  0.3166  2.1826 -0.5636
12855TIP3   OH259979   4.864   1.597  12.554 -0.1047  0.1750  0.1581
12855TIP3    H159980   4.776   1.593  12.516 -1.1216 -1.7356  2.4602
12855TIP3    H259981   4.906   1.515  12.528  1.9669  1.9693 -2.7633
12856TIP3   OH259982   1.129   0.741  16.824 -0.0459 -0.5822 -0.0322
12856TIP3    H159983   1.127   0.651  16.791  1.6139 -0.9955  0.9054
12856TIP3    H259984   1.217   0.772  16.804  0.4047 -0.2218  2.3254
12857TIP3   OH259985   5.164   5.963   5.051 -0.2840  0.5777 -0.1758
12857TIP3    H159986   5.178   6.000   4.963  1.9264  0.7226  0.1922
12857TIP3    H259987   5.188   6.034   5.111  2.8455 -0.9204  0.5376
12858TIP3   OH259988   4.733   2.038  14.068 -0.0866 -0.1765  0.4159
12858TIP3    H159989   4.730   2.007  14.158 -1.2354 -1.7124 -0.1158
12858TIP3    H259990   4.700   1.965  14.015  1.2753  0.3926 -1.3423
12859TIP3   OH259991   4.727   3.693  16.725  0.2358 -0.4736 -0.6421
12859TIP3    H159992   4.728   3.604  16.691 -1.9373 -0.9859  0.4366
12859TIP3    H259993   4.760   3.685  16.814 -4.6708 -1.3179  1.4290
12860TIP3   OH259994   3.150   6.214   4.799 -0.0756  0.3327  0.3290
12860TIP3    H159995   3.071   6.268   4.797 -0.6844 -0.5526 -0.2442
12860TIP3    H259996   3.194   6.232   4.716 -0.2371  0.0282  0.1734
12861TIP3   OH259997   4.696   3.675   1.181 -0.2511 -0.1017  0.7841
12861TIP3    H159998   4.724   3.595   1.135  1.8299  0.6959  0.5390
12861TIP3    H259999   4.602   3.681   1.165 -0.6581 -2.9612  1.5452
12862TIP3   OH260000   5.387   4.459  12.665  0.6097 -0.2093  0.2788
12862TIP3    H160001   5.413   4.419  12.582 -1.0964  0.9154 -0.8726
12862TIP3    H260002   5.440   4.538  12.671  0.7063 -0.2714  0.2320
12863TIP3   OH260003   5.855   5.953   5.050 -0.8442 -0.2015  0.0330
12863TIP3    H160004   5.869   6.011   5.125  0.3502 -0.2147 -0.1692
12863TIP3    H260005   5.919   5.982   4.985  1.2957 -3.0431  0.6782
12864TIP3   OH260006   4.749   5.719  13.270  0.5898 -0.3640 -0.2157
12864TIP3    H160007   4.658   5.740  13.292  0.7490  0.9744 -0.7406
12864TIP3    H260008   4.799   5.744  13.348  0.5802 -0.4298 -0.1895
12865TIP3   OH260009   6.097   4.158   2.071 -0.1286  0.2860  0.1694
12865TIP3    H160010   6.186   4.181   2.045 -0.0497 -1.3809 -1.2217
12865TIP3    H260011   6.104   4.135   2.164  0.5832  1.5484  0.4516
12866TIP3   OH260012   4.072   5.020   3.253  0.3579 -0.2037  0.3810
12866TIP3    H160013   3.999   5.052   3.200  0.9524  0.4572 -0.0576
12866TIP3    H260014   4.043   4.934   3.285  0.2752 -0.9683 -1.6107
12867TIP3   OH260015   3.218   4.624  12.686 -0.3367 -0.4758 -0.1243
12867TIP3    H160016   3.278   4.655  12.618 -1.0467  1.6576  0.1608
12867TIP3    H260017   3.132   4.657  12.659 -0.8656 -0.7768  1.1084
12868TIP3   OH260018   3.786   1.529   0.194 -0.1238 -0.3712 -0.2503
12868TIP3    H160019   3.816   1.471   0.124 -1.6399 -1.0744 -0.3501
12868TIP3    H260020   3.712   1.483   0.233 -0.7832  1.0887  0.2748
12869TIP3   OH260021   0.048   1.212  12.017 -0.4256  0.1371  0.1090
12869TIP3    H160022   0.045   1.285  11.956 -1.8284  1.0018  1.1514
12869TIP3    H260023   0.037   1.134  11.962 -1.6215  0.8886 -0.7533
12870TIP3   OH260024   0.101   6.722  11.973 -0.3435  0.0565  0.6585
12870TIP3    H160025   0.187   6.705  12.012  0.4641 -0.2159 -1.1572
12870TIP3    H260026   0.103   6.815  11.951 -0.3887 -0.0133  0.3520
12871TIP3   OH260027   1.306   2.345  13.210 -0.7715  0.5100  0.8621
12871TIP3    H160028   1.224   2.395  13.212 -1.3357 -0.1801 -1.5290
12871TIP3    H260029   1.368   2.404  13.167 -0.9001 -0.0992 -0.1788
12872TIP3   OH260030   3.622   2.847  15.436  0.0573  0.0841 -0.8959
12872TIP3    H160031   3.714   2.822  15.430 -0.2019 -1.1208 -0.2890
12872TIP3    H260032   3.621   2.927  15.487  0.6332 -1.0784  1.0175
12873TIP3   OH260033   1.724   3.371   4.670  0.1752  0.8740 -0.4187
12873TIP3    H160034   1.805   3.355   4.623  0.1221  0.4060 -0.3522
12873TIP3    H260035   1.719   3.301   4.735 -0.4850  0.6488 -0.6997
12874TIP3   OH260036   4.822   0.501   3.304  0.3187  0.3007  0.5588
12874TIP3    H160037   4.820   0.411   3.336  1.2354  0.2284  0.4406
12874TIP3    H260038   4.910   0.532   3.326 -0.4101  1.6096  1.7800
12875TIP3   OH260039   0.312   4.885  11.502  0.0279 -0.6632 -0.5371
12875TIP3    H160040   0.349   4.956  11.450  2.5195 -1.8675 -0.5709
12875TIP3    H260041   0.218   4.893  11.491  0.3364  1.3069 -2.2797
12876TIP3   OH260042   5.947   3.076   2.192  0.1343 -0.2997 -0.5862
12876TIP3    H160043   5.929   3.153   2.137 -0.6718 -0.3444 -0.3964
12876TIP3    H260044   5.877   3.014   2.170 -1.3735  0.4072  1.8402
12877TIP3   OH260045   0.423   2.476   5.167  0.3204  0.2701  0.2170
12877TIP3    H160046   0.349   2.467   5.106  0.4624  0.9000 -0.0638
12877TIP3    H260047   0.428   2.392   5.212 -0.2445  0.0429 -0.1308
12878TIP3   OH260048   3.325   1.799  16.774 -0.6020  0.7818 -0.2232
12878TIP3    H160049   3.306   1.730  16.711  3.8157 -1.6489  0.6366
12878TIP3    H260050   3.366   1.753  16.848 -0.6546  4.0218  2.0394
12879TIP3   OH260051   2.214   5.469   6.069 -0.3606  0.2033  0.2613
12879TIP3    H160052   2.140   5.439   6.017 -1.5440 -1.0126  2.5343
12879TIP3    H260053   2.290   5.425   6.030 -0.4933  2.3634 -2.8337
12880TIP3   OH260054   5.455   2.698  15.368 -0.3604 -0.1742 -0.0344
12880TIP3    H160055   5.367   2.693  15.330 -0.6842  0.2943  0.6357
12880TIP3    H260056   5.476   2.791  15.369 -0.2010 -0.2098  0.5801
12881TIP3   OH260057   1.756   3.701  11.410 -0.4194 -1.1187  0.8046
12881TIP3    H160058   1.748   3.718  11.504  0.6321 -0.3454  0.7634
12881TIP3    H260059   1.711   3.774  11.368 -2.2191 -2.2336  0.6927
12882TIP3   OH260060   1.127   4.690   5.338  0.1461  0.0147 -0.3458
12882TIP3    H160061   1.179   4.747   5.395 -1.2682  0.0458  0.9782
12882TIP3    H260062   1.162   4.603   5.353 -0.5347 -0.0615  1.0446
12883TIP3   OH260063   1.846   1.835   5.108 -0.5243 -0.3737  0.1847
12883TIP3    H160064   1.934   1.854   5.139 -0.7732 -0.2302  0.8352
12883TIP3    H260065   1.810   1.775   5.174 -0.9136 -0.4223 -0.0686
12884TIP3   OH260066   1.339   6.511  17.078 -0.0968 -0.0113 -0.5417
12884TIP3    H160067   1.264   6.530  17.135  0.6861 -0.5052  0.6804
12884TIP3    H260068   1.300   6.470  17.001 -1.3582  2.1650 -1.1676
12885TIP3   OH260069   5.299   5.807  11.220 -0.5775 -0.2755 -0.0449
12885TIP3    H160070   5.393   5.827  11.216 -0.0620 -1.4829  3.3013
12885TIP3    H260071   5.295   5.716  11.251 -2.8812 -0.3091 -0.2608
12886TIP3   OH260072   0.808   3.404   4.924 -0.0904  0.0363 -0.1707
12886TIP3    H160073   0.874   3.457   4.969 -0.5672  1.1995 -0.7810
12886TIP3    H260074   0.751   3.372   4.994  0.4129  0.0490  0.2452
12887TIP3   OH260075   0.197   5.751  13.942  0.5447 -0.1883 -0.3210
12887TIP3    H160076   0.267   5.741  13.878  0.6639  2.5100 -0.7110
12887TIP3    H260077   0.209   5.838  13.978 -1.3608 -0.4665  1.1700
12888TIP3   OH260078   0.295   5.288   1.932 -0.8837  0.3135  0.5773
12888TIP3    H160079   0.285   5.232   2.008 -0.4793  0.6820  0.9060
12888TIP3    H260080   0.372   5.342   1.951 -0.7258  0.3534 -0.1220
12889TIP3   OH260081   0.569   4.015   5.080 -0.1686 -0.5097  0.1387
12889TIP3    H160082   0.600   4.105   5.068 -0.2648 -0.3949  0.7212
12889TIP3    H260083   0.589   3.995   5.172 -0.0447 -1.1224 -0.0178
12890TIP3   OH260084   6.358   0.371   1.223 -0.0230 -0.1007 -0.2519
12890TIP3    H160085   6.406   0.292   1.198  1.5818  0.1694  1.6849
12890TIP3    H260086   6.341   0.417   1.141  1.6748 -1.0073 -1.1505
12891TIP3   OH260087   4.523   3.083  14.944  0.4836  0.5037  0.3835
12891TIP3    H160088   4.476   3.105  14.864  2.0248  1.7531 -0.2454
12891TIP3    H260089   4.610   3.123  14.933  1.2180 -0.4788  2.0806
12892TIP3   OH260090   2.642   6.209  13.537 -1.0578  0.2599 -0.6202
12892TIP3    H160091   2.686   6.294  13.541  1.7342 -1.0963  1.4156
12892TIP3    H260092   2.642   6.186  13.444  2.1336  0.6724 -0.8449
12893TIP3   OH260093   4.090   6.737   2.919  0.0632 -0.3212  0.5179
12893TIP3    H160094   4.137   6.660   2.886  0.5873  0.5317 -0.7997
12893TIP3    H260095   4.146   6.770   2.989  0.6641 -0.2086 -0.0025
12894TIP3   OH260096   0.235   4.936  14.745 -0.1505 -0.5290 -0.0810
12894TIP3    H160097   0.277   5.020  14.764  0.2676 -0.7875  0.1343
12894TIP3    H260098   0.150   4.942  14.789 -0.3139 -0.0408 -0.4457
12895TIP3   OH260099   6.258   4.720   1.876  0.3313 -0.2231  0.2942
12895TIP3    H160100   6.164   4.728   1.859  0.3260 -0.0690  0.3937
12895TIP3    H260101   6.267   4.746   1.968  0.7559  1.8474 -0.2726
12896TIP3   OH260102   4.393   2.578   5.060  0.2191  0.2626  0.0307
12896TIP3    H160103   4.359   2.552   5.146 -1.4147 -1.0644 -0.9494
12896TIP3    H260104   4.418   2.495   5.018 -1.0060  0.6396 -1.5384
12897TIP3   OH260105   6.116   3.251  15.548  0.1309  0.3938 -0.3396
12897TIP3    H160106   6.061   3.263  15.470 -1.7007 -0.3373  0.7802
12897TIP3    H260107   6.204   3.278  15.520 -1.1778  3.9796 -1.5353
12898TIP3   OH260108   0.943   5.438   2.273  0.5278  0.2594  0.6795
12898TIP3    H160109   0.939   5.482   2.189  1.5080  2.5016  1.7346
12898TIP3    H260110   1.022   5.384   2.269  0.2982 -0.0460  0.0298
12899TIP3   OH260111   4.153   0.871   1.122 -0.0124 -0.3679 -0.3446
12899TIP3    H160112   4.242   0.836   1.115 -0.0710 -0.3613 -1.1334
12899TIP3    H260113   4.115   0.857   1.036 -0.7239 -0.2130 -0.0598
12900TIP3   OH260114   3.910   6.761   0.745  0.4386  0.1185 -0.5062
12900TIP3    H160115   3.994   6.788   0.708  0.7877  0.1999  0.3101
12900TIP3    H260116   3.898   6.671   0.716  1.7400 -0.5454  0.9173
12901TIP3   OH260117   1.040   4.763  15.003  0.0055  0.6448 -0.1313
12901TIP3    H160118   0.988   4.843  14.990  0.2280  0.8569  0.2747
12901TIP3    H260119   1.108   4.768  14.936  1.1041  1.6992  1.0258
12902TIP3   OH260120   0.508   0.170   1.675 -0.7887 -0.1582 -0.6595
12902TIP3    H160121   0.527   0.188   1.767 -1.0513  0.6288 -0.7455
12902TIP3    H260122   0.542   0.246   1.628 -2.4661  0.4411 -0.9931
12903TIP3   OH260123   2.204   3.525   5.054 -0.4276 -0.0804  0.0788
12903TIP3    H160124   2.170   3.581   4.985 -1.6023 -1.7935 -0.7885
12903TIP3    H260125   2.256   3.459   5.008 -0.9790 -1.0705  0.8370
12904TIP3   OH260126   5.114   2.000  15.935  0.3285 -0.2624 -0.0540
12904TIP3    H160127   5.163   2.070  15.892  0.1328 -0.2518 -0.2574
12904TIP3    H260128   5.031   2.040  15.960  0.4645 -0.2507  0.3914
12905TIP3   OH260129   1.562   6.441  14.647  0.2250  0.1330 -0.2212
12905TIP3    H160130   1.647   6.414  14.683  1.1169  1.2089 -1.4245
12905TIP3    H260131   1.565   6.537  14.650  0.2175  0.2816 -2.7726
12906TIP3   OH260132   0.436   2.541  12.572  0.1984  0.3061  0.0529
12906TIP3    H160133   0.466   2.504  12.656 -0.2773  2.5102  1.2681
12906TIP3    H260134   0.513   2.537  12.515  1.1986  0.7552  1.3188
12907TIP3   OH260135   0.612   3.619   5.026  0.2539  0.0080 -0.2389
12907TIP3    H160136   0.569   3.635   5.110 -1.1300 -0.8790 -0.7340
12907TIP3    H260137   0.550   3.652   4.961 -0.7478 -3.1425 -1.0895
12908TIP3   OH260138   2.831   2.071   3.518 -0.0670 -0.1760 -0.4883
12908TIP3    H160139   2.766   2.010   3.483 -0.0751  0.0440 -0.8539
12908TIP3    H260140   2.857   2.032   3.602 -0.7845 -0.1834 -0.2651
12909TIP3   OH260141   5.636   2.944   2.634 -0.5964  0.4441 -0.2345
12909TIP3    H160142   5.545   2.914   2.627  0.0727 -1.9477  0.3978
12909TIP3    H260143   5.679   2.909   2.556  0.4415 -1.2461  1.0274
12910TIP3   OH260144   2.891   0.499   0.490  0.2082 -0.2295  0.4547
12910TIP3    H160145   2.903   0.463   0.402 -1.6148 -1.0741  0.5244
12910TIP3    H260146   2.904   0.424   0.548 -1.5337 -0.3514  0.7208
12911TIP3   OH260147   1.601   3.704   4.278 -0.1199 -1.0136  0.2359
12911TIP3    H160148   1.636   3.622   4.314 -2.0397 -1.6878  0.7161
12911TIP3    H260149   1.572   3.753   4.354  1.9274  0.6329  0.0321
12912TIP3   OH260150   5.133   4.879   0.259 -0.1393 -0.2046 -0.1313
12912TIP3    H160151   5.218   4.882   0.215  0.6632 -0.2622  1.3482
12912TIP3    H260152   5.130   4.792   0.299 -0.5486  0.0856  0.4795
12913TIP3   OH260153   5.478   0.697   1.007  0.0514 -0.6257  0.2356
12913TIP3    H160154   5.540   0.630   1.035 -0.2531 -1.1408 -0.3078
12913TIP3    H260155   5.395   0.650   0.994  0.3968 -0.6424 -2.5109
12914TIP3   OH260156   1.750   5.653  12.718 -0.0922 -0.4888 -0.2752
12914TIP3    H160157   1.823   5.676  12.660 -0.1383  0.2801 -0.0481
12914TIP3    H260158   1.745   5.727  12.780  0.4696 -1.6416  1.2103
12915TIP3   OH260159   1.434   5.375  13.854 -0.6221 -0.5036  0.1079
12915TIP3    H160160   1.484   5.438  13.905 -1.5540 -0.1294  0.5681
12915TIP3    H260161   1.345   5.410  13.851 -0.9167 -1.2612 -0.5230
12916TIP3   OH260162   3.818   2.293  16.172  0.7280 -0.0742 -0.2867
12916TIP3    H160163   3.739   2.348  16.171  0.2213 -0.7349  1.1899
12916TIP3    H260164   3.790   2.212  16.212  1.9543 -0.6911 -0.6356
12917TIP3   OH260165   2.347   3.057   0.567 -0.7151  0.2238 -0.2605
12917TIP3    H160166   2.327   2.965   0.584 -1.1671  0.3999  0.1752
12917TIP3    H260167   2.337   3.100   0.652  0.9846  0.4207 -0.1119
12918TIP3   OH260168   3.705   5.263   3.149  0.3007  0.3168  0.5484
12918TIP3    H160169   3.753   5.308   3.219  0.2393  0.1874  0.6746
12918TIP3    H260170   3.618   5.247   3.186 -0.1703  1.4273 -0.0228
12919TIP3   OH260171   2.178   4.940  13.207  0.0010 -0.0309 -0.0843
12919TIP3    H160172   2.094   4.930  13.163 -0.7589  0.1482  1.2740
12919TIP3    H260173   2.181   4.867  13.268  0.1137  0.8414  0.9755
12920TIP3   OH260174   3.176   4.515  16.221 -0.0245 -0.5414  0.2895
12920TIP3    H160175   3.217   4.526  16.307 -1.9319 -0.8559  1.2987
12920TIP3    H260176   3.166   4.604  16.188 -0.7480 -0.2890  1.1501
12921TIP3   OH260177   6.596   1.374   5.820 -0.3104  1.0551  0.4946
12921TIP3    H160178   6.661   1.307   5.840  0.3767  0.8863 -1.9337
12921TIP3    H260179   6.558   1.346   5.736 -0.1589  3.5397 -0.4793
12922TIP3   OH260180   4.158   3.831   0.406 -0.3277  0.2965  0.5883
12922TIP3    H160181   4.145   3.925   0.414 -1.4954  0.2589 -0.4957
12922TIP3    H260182   4.150   3.814   0.312  1.4876 -0.6782  0.5552
12923TIP3   OH260183   3.351   2.073   5.938 -0.2056 -0.0496 -0.2187
12923TIP3    H160184   3.296   2.129   5.993  0.1699 -1.7680  2.0097
12923TIP3    H260185   3.290   2.036   5.874 -1.2789 -0.3217  0.9246
12924TIP3   OH260186   6.505   1.530   1.043  0.3150  0.0012 -0.5110
12924TIP3    H160187   6.475   1.592   0.977 -1.8600 -0.4582 -0.0246
12924TIP3    H260188   6.576   1.482   1.001  0.0630  0.8192 -1.9165
12925TIP3   OH260189   0.106   5.782  15.523 -0.1767  0.0167 -0.4578
12925TIP3    H160190   0.170   5.789  15.452  0.5807 -0.2185  0.1924
12925TIP3    H260191   0.136   5.709  15.576 -0.5222  0.4263  0.3268
12926TIP3   OH260192   0.344   4.598  14.797 -0.2659 -0.2700 -0.6174
12926TIP3    H160193   0.390   4.646  14.866 -0.3566 -0.3251 -0.5191
12926TIP3    H260194   0.377   4.636  14.716 -2.7530  2.2960 -0.5779
12927TIP3   OH260195   0.777   0.534  14.580  0.8958 -0.2020 -0.0635
12927TIP3    H160196   0.700   0.580  14.615  1.9983  1.3880  0.3840
12927TIP3    H260197   0.743   0.482  14.508 -0.1876  2.8019 -1.9083
12928TIP3   OH260198   3.734   6.308   3.181 -0.3197 -0.3520  0.0024
12928TIP3    H160199   3.656   6.295   3.127 -0.5918  0.5146  0.1689
12928TIP3    H260200   3.774   6.388   3.146  1.0876 -1.3555 -0.7624
12929TIP3   OH260201   0.284   0.970   0.643  0.1901 -0.1676  0.4515
12929TIP3    H160202   0.331   0.886   0.648  0.3628 -0.1728 -0.9506
12929TIP3    H260203   0.353   1.036   0.654  0.1758 -0.1877  0.6840
12930TIP3   OH260204   1.579   6.340  13.605  0.0759 -0.0929 -0.0326
12930TIP3    H160205   1.633   6.324  13.528 -0.7533 -1.0301 -0.4350
12930TIP3    H260206   1.515   6.405  13.577  0.1928  0.0628  0.0623
12931TIP3   OH260207   1.475   1.236   5.782  0.2038 -0.5305 -0.4110
12931TIP3    H160208   1.542   1.172   5.759 -0.4099 -0.9312 -1.1311
12931TIP3    H260209   1.400   1.214   5.727  0.4085  1.5987 -1.6731
12932TIP3   OH260210   1.502   1.025   1.185  0.2505  0.3693 -0.0057
12932TIP3    H160211   1.462   0.941   1.209  0.2632 -0.0372 -1.3232
12932TIP3    H260212   1.519   1.068   1.269  0.5881 -1.1019  0.7290
12933TIP3   OH260213   3.628   1.530  11.198  0.2591  0.4056  0.0280
12933TIP3    H160214   3.702   1.591  11.204 -0.4296  1.5421 -1.9737
12933TIP3    H260215   3.624   1.507  11.105 -1.5997 -0.0249  0.1860
12934TIP3   OH260216   0.916   5.956  16.207 -0.2152 -0.1348  0.3639
12934TIP3    H160217   0.995   5.904  16.190 -0.9333 -1.5651  1.2178
12934TIP3    H260218   0.950   6.043  16.228  1.0272 -0.2275 -1.0706
12935TIP3   OH260219   3.858   0.839   2.510 -0.3595 -0.1085 -0.1750
12935TIP3    H160220   3.769   0.845   2.545 -1.0894  1.8975 -2.1972
12935TIP3    H260221   3.892   0.928   2.516  0.7548 -0.4368 -1.3251
12936TIP3   OH260222   2.328   5.269  13.483  0.1989  0.0245  0.0389
12936TIP3    H160223   2.278   5.207  13.535  0.8697  0.4120  1.1668
12936TIP3    H260224   2.354   5.218  13.405  0.0594 -0.8669  0.5566
12937TIP3   OH260225   2.707   2.809   2.709  0.1292  0.2425 -0.4798
12937TIP3    H160226   2.740   2.837   2.794 -0.7835  2.1072 -0.6838
12937TIP3    H260227   2.614   2.792   2.724 -0.2780  1.5842 -1.2704
12938TIP3   OH260228   6.630   3.502  16.246 -0.4243 -0.2226 -0.1139
12938TIP3    H160229   6.634   3.482  16.152  1.0657  1.2931 -0.4094
12938TIP3    H260230   6.578   3.582  16.251  1.9076  1.3591  0.0111
12939TIP3   OH260231   1.023   1.665  11.479 -0.2025  0.4785 -0.1401
12939TIP3    H160232   0.971   1.697  11.405  0.2128 -0.6465 -0.9277
12939TIP3    H260233   1.114   1.677  11.452 -0.0452 -0.4589 -0.0557
12940TIP3   OH260234   1.007   1.075   5.297  0.1429  0.7655  0.1097
12940TIP3    H160235   1.080   1.062   5.237  0.7335 -2.1305  1.3148
12940TIP3    H260236   0.931   1.088   5.239  1.3675  3.0062 -1.1561
12941TIP3   OH260237   1.062   2.058  17.241 -0.5740 -0.2003 -0.6261
12941TIP3    H160238   1.025   2.007  17.170  0.0128  1.2175 -2.0053
12941TIP3    H260239   1.121   2.120  17.198  1.1029 -0.4176  1.2427
12942TIP3   OH260240   6.062   3.979   4.987  0.4649  0.5021 -0.0183
12942TIP3    H160241   6.120   3.945   5.055  0.5957 -1.4202 -1.0148
12942TIP3    H260242   6.120   3.997   4.912 -0.1051 -0.9070 -0.8363
12943TIP3   OH260243   0.733   5.571  14.401 -0.5254 -0.4741  0.3738
12943TIP3    H160244   0.702   5.601  14.486  0.6570  3.0175 -0.2551
12943TIP3    H260245   0.827   5.557  14.413 -0.3236  0.1657 -0.3224
12944TIP3   OH260246   0.284   2.072  11.801 -0.0699  0.3646 -0.1905
12944TIP3    H160247   0.237   2.075  11.718 -1.8696 -0.0556  0.7640
12944TIP3    H260248   0.223   2.030  11.862  1.4433  0.0647  1.1986
12945TIP3   OH260249   4.110   3.060   3.895  0.2290 -0.4825  0.3042
12945TIP3    H160250   4.131   3.078   3.987 -2.2233 -1.6501  1.2040
12945TIP3    H260251   4.043   3.125   3.873  0.5385 -0.4392 -0.5449
12946TIP3   OH260252   6.690   5.670  12.720 -0.2141  0.1141 -0.4774
12946TIP3    H160253   6.637   5.737  12.678  0.0022  0.9730  0.5636
12946TIP3    H260254   6.637   5.642  12.795  0.4396  0.4074  0.1066
12947TIP3   OH260255   1.084   3.249   2.362  0.1517 -0.4751  0.2683
12947TIP3    H160256   1.005   3.290   2.396 -0.8629 -2.4146  0.3723
12947TIP3    H260257   1.052   3.183   2.300  1.7350 -0.6855 -0.3681
12948TIP3   OH260258   4.438   5.029   2.644 -0.1045 -1.0851  0.5535
12948TIP3    H160259   4.372   5.049   2.710  0.4422  0.6734  0.6228
12948TIP3    H260260   4.505   4.979   2.692 -1.0149 -2.2415  0.6474
12949TIP3   OH260261   3.574   4.782   5.418  0.6637 -0.0092 -0.1821
12949TIP3    H160262   3.615   4.741   5.495 -2.1877  0.5315  1.7894
12949TIP3    H260263   3.525   4.856   5.454 -1.4320 -0.1999 -2.4268
12950TIP3   OH260264   5.685   4.359  16.553  0.3338  0.1503 -0.0454
12950TIP3    H160265   5.633   4.420  16.606 -0.0480 -1.6183  1.7282
12950TIP3    H260266   5.771   4.357  16.597  0.4424 -0.3258 -0.2768
12951TIP3   OH260267   5.268   5.622   3.890 -0.4300  0.1553 -0.4104
12951TIP3    H160268   5.180   5.606   3.923 -0.5340  0.6329 -0.4573
12951TIP3    H260269   5.287   5.713   3.913  0.3493 -0.1691  0.2816
12952TIP3   OH260270   5.289   3.619  11.787  1.1275  0.3606  0.1099
12952TIP3    H160271   5.272   3.649  11.698 -4.1331  0.0996  0.7296
12952TIP3    H260272   5.265   3.526  11.787 -0.4855  0.7000  2.0242
12953TIP3   OH260273   4.723   1.373   5.502 -0.4819 -0.3800 -0.1083
12953TIP3    H160274   4.679   1.426   5.436  0.5269 -0.3632 -0.7933
12953TIP3    H260275   4.816   1.381   5.481 -0.1402 -0.3745  1.3278
12954TIP3   OH260276   6.460   4.394  15.322 -0.1712  0.1208  0.2493
12954TIP3    H160277   6.392   4.422  15.261  1.3326  0.7505 -1.2088
12954TIP3    H260278   6.450   4.299  15.327 -0.2262  0.0287 -1.1315
12955TIP3   OH260279   0.006   3.301   0.340 -0.0064 -0.2351 -0.3116
12955TIP3    H160280  -0.036   3.304   0.254  1.6028  2.5434 -1.1602
12955TIP3    H260281   0.038   3.211   0.348  1.1076 -0.2520 -3.3616
12956TIP3   OH260282   4.954   2.304  10.943  0.6223 -0.6065 -0.4262
12956TIP3    H160283   4.992   2.372  10.998 -1.1888 -0.7303  1.1043
12956TIP3    H260284   4.904   2.351  10.876 -0.3773 -0.3978  0.4445
12957TIP3   OH260285   6.441   3.997  16.835 -0.6727  0.2331 -0.1272
12957TIP3    H160286   6.460   3.906  16.812 -0.2070  0.2133  0.3251
12957TIP3    H260287   6.347   3.998  16.852 -0.6921 -0.1494 -0.1971
12958TIP3   OH260288   5.363   4.598   4.748 -0.1898 -0.1472  0.2698
12958TIP3    H160289   5.356   4.511   4.787 -1.6871  0.7699  2.2484
12958TIP3    H260290   5.272   4.628   4.740  0.1338  0.3999 -2.5335
12959TIP3   OH260291   3.879   0.723  14.488 -0.4301  0.5380  0.4812
12959TIP3    H160292   3.860   0.636  14.524  0.6991 -0.2940 -0.8564
12959TIP3    H260293   3.797   0.772  14.500 -1.0435 -0.6599  1.3641
12960TIP3   OH260294   3.282   3.987  15.899  0.4743 -0.0848  0.0759
12960TIP3    H160295   3.286   4.009  15.806  0.3646 -0.1766  0.0495
12960TIP3    H260296   3.260   3.894  15.901 -1.5407  0.3414  0.2045
12961TIP3   OH260297   4.009   0.409   0.789  0.1143 -0.0651 -0.3898
12961TIP3    H160298   4.061   0.387   0.711  0.6357 -0.8265  0.1631
12961TIP3    H260299   4.071   0.454   0.846  1.1824 -3.7206  1.6430
12962TIP3   OH260300   2.786   1.193   6.570 -0.5959 -0.0790  0.2897
12962TIP3    H160301   2.872   1.178   6.531  0.0238  2.4943  0.4950
12962TIP3    H260302   2.783   1.287   6.587 -2.6152 -0.4104  2.2990
12963TIP3   OH260303   0.320   3.205   4.903  0.7860  0.2469  0.1279
12963TIP3    H160304   0.306   3.175   4.813  0.0074 -0.6915  0.5511
12963TIP3    H260305   0.300   3.129   4.957  2.2082  0.4994  1.0575
12964TIP3   OH260306   1.257   6.657   5.242 -0.0828 -0.1850 -0.2454
12964TIP3    H160307   1.303   6.740   5.249 -1.2609  0.5554 -1.0403
12964TIP3    H260308   1.305   6.598   5.300  1.4623  0.7235 -0.5473
12965TIP3   OH260309   4.477   1.219  12.825  0.5434  0.2424  0.3127
12965TIP3    H160310   4.408   1.246  12.887 -0.3087 -1.8160  0.3488
12965TIP3    H260311   4.467   1.124  12.819  3.5546 -0.1600  0.4598
12966TIP3   OH260312   1.657   3.457   4.370 -0.4624 -0.1472 -0.2102
12966TIP3    H160313   1.652   3.492   4.460 -0.3399 -1.2899  0.2538
12966TIP3    H260314   1.576   3.408   4.359  0.0284 -0.9364 -0.3234
12967TIP3   OH260315   3.930   4.842  16.110 -0.3407 -0.4604  0.8007
12967TIP3    H160316   3.928   4.934  16.137  1.3523  0.1746 -0.9669
12967TIP3    H260317   3.867   4.836  16.038 -0.4079 -0.6742  0.8763
12968TIP3   OH260318   2.650   2.441  11.015 -0.0432  0.6160  0.0568
12968TIP3    H160319   2.563   2.471  10.988 -1.4704 -0.0208  3.4364
12968TIP3    H260320   2.633   2.359  11.061  2.3719  0.5058  0.8519
12969TIP3   OH260321   6.567   0.169  13.317  0.0979  0.2539  0.3850
12969TIP3    H160322   6.611   0.186  13.234  1.7658  1.4972  1.4801
12969TIP3    H260323   6.474   0.185  13.298  0.2441 -0.9875 -1.5963
12970TIP3   OH260324   5.531   1.567  12.572  0.1359  0.6838  0.0579
12970TIP3    H160325   5.573   1.627  12.633  1.3779 -0.6546  0.5778
12970TIP3    H260326   5.540   1.481  12.612  0.5851 -0.1868 -1.7789
12971TIP3   OH260327   0.933   6.036   1.646  0.5116 -0.2070  0.1503
12971TIP3    H160328   1.026   6.039   1.623  0.2361 -0.0764 -0.9877
12971TIP3    H260329   0.895   5.971   1.587  0.0283 -0.8929  1.1873
12972TIP3   OH260330   1.499   6.086   0.755 -0.5615 -0.3465 -0.2187
12972TIP3    H160331   1.423   6.139   0.732  0.3604  0.5949 -1.2509
12972TIP3    H260332   1.520   6.110   0.845 -1.6832 -0.8900  0.2027
12973TIP3   OH260333   1.536   1.869   3.301 -0.3457 -0.3824  0.1064
12973TIP3    H160334   1.528   1.946   3.356  1.1456 -0.1738  0.0787
12973TIP3    H260335   1.586   1.807   3.353  0.5693 -0.4042 -0.7704
12974TIP3   OH260336   5.938   1.942   4.962 -1.0463 -0.6338 -0.1045
12974TIP3    H160337   5.998   1.878   5.000 -0.0909  0.0538 -0.4136
12974TIP3    H260338   5.930   1.917   4.870 -1.1415 -0.6525 -0.0917
12975TIP3   OH260339   3.339   2.588  16.258  0.2081  0.3096  1.0191
12975TIP3    H160340   3.346   2.575  16.352  2.8534 -0.6508  0.7711
12975TIP3    H260341   3.302   2.506  16.225  3.0829 -1.0796  0.9229
12976TIP3   OH260342   1.131   2.332   1.517  0.2417 -0.4944  0.1371
12976TIP3    H160343   1.051   2.325   1.466  0.5731  0.8193 -0.6005
12976TIP3    H260344   1.109   2.293   1.602 -1.0594 -0.4714 -0.1735
12977TIP3   OH260345   3.411   4.740   5.980  0.3984  0.0205 -0.4969
12977TIP3    H160346   3.338   4.682   5.958  0.4090 -0.6074  1.0022
12977TIP3    H260347   3.489   4.685   5.975  0.8268  0.7182 -2.2044
12978TIP3   OH260348   3.900   6.651   2.247  0.0126  0.2816 -0.0306
12978TIP3    H160349   3.819   6.682   2.206 -0.2612  0.1948  0.4379
12978TIP3    H260350   3.897   6.556   2.238 -0.4237  0.1998  0.8618
12979TIP3   OH260351   1.729   0.102   2.074  0.4548 -0.4115 -0.2761
12979TIP3    H160352   1.735   0.197   2.059  0.8447 -0.3635  0.1493
12979TIP3    H260353   1.747   0.092   2.167  1.9354 -1.0331 -0.6066
12980TIP3   OH260354   2.522   4.478  16.778  0.0083 -0.6157  0.5003
12980TIP3    H160355   2.528   4.553  16.837  0.8009 -0.0519 -0.2629
12980TIP3    H260356   2.429   4.473  16.755  0.0751  0.8043 -0.2413
12981TIP3   OH260357   4.092   5.545   2.516  0.2492 -0.9310 -0.2612
12981TIP3    H160358   4.105   5.612   2.449  2.1202 -2.3372 -1.3889
12981TIP3    H260359   4.113   5.590   2.598  0.9082  0.0246 -0.9269
12982TIP3   OH260360   5.850   4.991   6.399  0.5744  0.0277 -0.1543
12982TIP3    H160361   5.809   5.076   6.382 -0.0384 -0.5172 -1.5721
12982TIP3    H260362   5.942   5.011   6.415  0.0990  1.1275  1.5068
12983TIP3   OH260363   0.999   0.838  13.296  0.2719  0.4380 -0.2295
12983TIP3    H160364   0.989   0.743  13.293  1.3326  0.3348 -1.1913
12983TIP3    H260365   0.967   0.863  13.382 -0.5624 -0.7180 -0.1802
12984TIP3   OH260366   2.825   2.425   4.249  0.3337 -0.2248 -0.0762
12984TIP3    H160367   2.786   2.506   4.215 -1.7730 -2.2482 -2.8740
12984TIP3    H260368   2.755   2.384   4.300  1.5180 -0.1786  1.6759
12985TIP3   OH260369   0.534   2.273  13.618  0.1568  0.3627 -0.2989
12985TIP3    H160370   0.476   2.336  13.659 -0.2359  1.1760 -2.0008
12985TIP3    H260371   0.479   2.197  13.601  0.0114  0.4923 -0.4082
12986TIP3   OH260372   6.309   0.299  15.033 -0.4709  0.4835 -0.3598
12986TIP3    H160373   6.396   0.275  14.999 -0.1499  0.2918  0.5638
12986TIP3    H260374   6.328   0.358  15.106 -1.0925  0.0291  0.1749
12987TIP3   OH260375   0.289   4.078  11.556  0.0681 -0.5252 -0.7804
12987TIP3    H160376   0.274   4.151  11.495 -0.7933 -0.9087 -1.0413
12987TIP3    H260377   0.221   4.088  11.622 -0.5852 -1.5586 -1.2723
12988TIP3   OH260378   4.287   2.174  16.194  0.4001 -0.2961  0.4577
12988TIP3    H160379   4.333   2.127  16.125  2.8012  0.2502  1.5769
12988TIP3    H260380   4.311   2.266  16.181 -0.3217 -0.0002  1.1370
12989TIP3   OH260381   0.969   2.848  17.251 -0.5172 -0.1911  0.1884
12989TIP3    H160382   1.063   2.833  17.240 -0.9483 -3.0262 -0.2544
12989TIP3    H260383   0.945   2.902  17.175  1.4227  4.8604  2.7298
12990TIP3   OH260384   3.651   2.451   6.387 -0.2954 -0.5389  0.4934
12990TIP3    H160385   3.563   2.457   6.351 -0.1418 -2.4517 -0.2983
12990TIP3    H260386   3.664   2.358   6.405  1.9393 -0.4900 -0.4713
12991TIP3   OH260387   6.760   2.922  14.626  1.0305 -0.1514  0.2855
12991TIP3    H160388   6.795   2.990  14.568  1.2551  0.4693  1.1274
12991TIP3    H260389   6.798   2.942  14.712 -1.6072  0.7546  1.3455
12992TIP3   OH260390   6.387   2.925  12.882  0.3189 -0.4171 -0.5845
12992TIP3    H160391   6.434   2.862  12.937 -0.0159 -1.8788 -1.9055
12992TIP3    H260392   6.299   2.929  12.921  0.7046  0.2332  0.2565
12993TIP3   OH260393   3.547   1.786   1.267  0.1746 -0.0560 -0.5097
12993TIP3    H160394   3.603   1.729   1.318 -0.6582 -0.3813  0.0671
12993TIP3    H260395   3.578   1.776   1.177 -0.1343 -1.6432 -0.4639
12994TIP3   OH260396   0.797   4.848  16.268 -0.2778 -0.5765  0.5732
12994TIP3    H160397   0.860   4.776  16.262 -0.0126 -0.3618  0.7534
12994TIP3    H260398   0.799   4.890  16.182  1.5065  0.8239  1.2167
12995TIP3   OH260399   4.311   0.970  16.750  0.2748  0.2650 -0.1393
12995TIP3    H160400   4.290   0.970  16.656  0.6525  0.3470 -0.2268
12995TIP3    H260401   4.308   0.878  16.775  1.1553  0.1416 -0.4611
12996TIP3   OH260402   0.879   4.067  11.735 -0.0029  0.7084  0.1042
12996TIP3    H160403   0.959   4.032  11.776  0.0312  0.8329  0.1460
12996TIP3    H260404   0.897   4.064  11.641 -0.2409  0.0374  0.0764
12997TIP3   OH260405   5.163   2.785  14.162  0.7381  0.2571  0.3933
12997TIP3    H160406   5.249   2.742  14.153  0.5861 -0.0458  0.3614
12997TIP3    H260407   5.118   2.733  14.228  0.3340  0.0172 -0.0665
12998TIP3   OH260408   3.756   2.058  12.033 -0.4361 -0.2872  0.0473
12998TIP3    H160409   3.751   1.964  12.052 -1.4321 -0.4530 -0.9206
12998TIP3    H260410   3.729   2.101  12.114 -2.8875 -0.9241 -0.3468
12999TIP3   OH260411   0.776   4.206  12.701 -0.6903  0.0950 -0.3668
12999TIP3    H160412   0.710   4.145  12.668 -0.0463  0.3222 -2.1620
12999TIP3    H260413   0.767   4.283  12.645  0.4400  0.5247  0.0261
13000TIP3   OH260414   6.200   5.002   2.349  0.4057 -0.4738 -0.0038
13000TIP3    H160415   6.182   5.037   2.436  0.8554  1.2383 -0.5559
13000TIP3    H260416   6.291   4.974   2.353  0.2880 -0.8308  0.2063
13001TIP3   OH260417   5.979   5.558   4.616 -0.4795 -0.1378 -0.3393
13001TIP3    H160418   5.943   5.498   4.551 -1.6392  0.2671 -0.1024
13001TIP3    H260419   6.073   5.561   4.598 -0.3546 -2.1501 -0.2585
13002TIP3   OH260420   6.237   2.507   1.845  0.0522  0.7783 -0.1327
13002TIP3    H160421   6.187   2.460   1.778  0.7839 -1.0359  0.5309
13002TIP3    H260422   6.170   2.543   1.904 -0.5797  2.1064 -1.5957
13003TIP3   OH260423   2.109   6.220  17.195  0.0686 -0.2988  0.4742
13003TIP3    H160424   2.019   6.253  17.201  0.1957 -0.0578  1.1860
13003TIP3    H260425   2.136   6.241  17.105 -1.5950 -3.0589 -0.8085
13004TIP3   OH260426   6.430   2.076  10.976 -0.2428  0.4227  0.4039
13004TIP3    H160427   6.338   2.052  10.984 -0.0863 -0.8434 -1.1725
13004TIP3    H260428   6.477   2.010  11.027 -0.1110  0.1303 -0.0928
13005TIP3   OH260429   6.097   0.166   1.430  0.9174  0.6642  0.0273
13005TIP3    H160430   6.009   0.191   1.402  0.8617 -0.7791 -1.2670
13005TIP3    H260431   6.145   0.248   1.436 -0.3379  1.4163  0.1022
13006TIP3   OH260432   3.093   1.344   1.151  0.3576 -0.4349  0.3315
13006TIP3    H160433   3.006   1.329   1.188  0.3783  0.0734  0.5831
13006TIP3    H260434   3.134   1.257   1.152  0.4972 -0.3812  1.8501
13007TIP3   OH260435   2.951   0.646  15.786  0.3588  0.0493 -0.3031
13007TIP3    H160436   2.880   0.711  15.785 -0.0264 -0.3622 -1.6022
13007TIP3    H260437   3.000   0.666  15.866 -0.6150  0.9979  0.0891
13008TIP3   OH260438   2.504   4.965   4.262  0.2022 -0.0232 -0.8216
13008TIP3    H160439   2.438   4.933   4.201  0.0651  1.1161 -1.2974
13008TIP3    H260440   2.560   5.022   4.210 -0.2553  1.4372  0.2100
13009TIP3   OH260441   2.944   3.179  11.352  0.2153 -0.1716 -0.1012
13009TIP3    H160442   2.863   3.165  11.302 -0.0911 -0.2124  0.4059
13009TIP3    H260443   2.989   3.249  11.304 -0.2644  0.0645 -0.2146
13010TIP3   OH260444   5.752   2.301   1.276  0.1866  0.0928 -0.3089
13010TIP3    H160445   5.691   2.341   1.339  0.6515  0.6324 -0.1915
13010TIP3    H260446   5.812   2.372   1.253 -0.8396  0.3337 -2.4993
13011TIP3   OH260447   3.372   1.313  16.521 -0.0799 -0.4274 -0.8532
13011TIP3    H160448   3.400   1.259  16.446  1.1551  0.1396 -0.8216
13011TIP3    H260449   3.298   1.265  16.558 -0.4010 -0.9740 -2.1455
13012TIP3   OH260450   3.552   2.804  14.445 -0.2615  0.0756 -0.3120
13012TIP3    H160451   3.466   2.785  14.482 -0.3510  0.4021 -0.3476
13012TIP3    H260452   3.605   2.728  14.468 -0.4546  0.0454  0.0468
13013TIP3   OH260453   4.870   4.488  13.735  0.1201  0.0873 -0.1634
13013TIP3    H160454   4.908   4.571  13.705  1.5896 -0.1193  0.9947
13013TIP3    H260455   4.845   4.505  13.826 -3.1140  0.3416 -0.9710
13014TIP3   OH260456   3.631   6.055   2.631 -0.2709 -0.3030 -0.3713
13014TIP3    H160457   3.687   6.008   2.692  1.1053 -2.4630 -3.0909
13014TIP3    H260458   3.576   5.987   2.592 -0.2226  0.7475 -2.4069
13015TIP3   OH260459   0.069   5.666   6.695  0.1386 -0.0119 -0.3668
13015TIP3    H160460   0.005   5.638   6.630 -0.5474  0.7578 -0.0370
13015TIP3    H260461   0.055   5.760   6.703  0.7245  0.0226  0.3483
13016TIP3   OH260462   3.347   2.223  12.598 -0.3418 -0.1733 -0.0660
13016TIP3    H160463   3.294   2.153  12.561  0.3403 -1.3430  1.1000
13016TIP3    H260464   3.389   2.263  12.522 -2.3149  0.3575 -0.9516
13017TIP3   OH260465   2.569   6.227  14.404 -0.2112 -0.2419 -0.2081
13017TIP3    H160466   2.601   6.314  14.425 -0.2403  0.1752 -1.7340
13017TIP3    H260467   2.628   6.168  14.451 -0.7746  0.5705  1.6144
13018TIP3   OH260468   4.768   5.929   5.452  0.0232  0.3044 -0.1468
13018TIP3    H160469   4.838   5.897   5.508  0.3236 -0.9053 -1.1672
13018TIP3    H260470   4.687   5.906   5.498  0.2598 -0.7991 -0.2519
13019TIP3   OH260471   0.005   2.623  16.408  0.3682 -0.1852 -0.1497
13019TIP3    H160472  -0.063   2.632  16.475 -1.1619 -1.5217 -1.3966
13019TIP3    H260473   0.062   2.554  16.441  0.4655  0.1550  0.4056
13020TIP3   OH260474   4.923   2.718  17.096 -0.4029  0.2788  0.0679
13020TIP3    H160475   4.996   2.667  17.133 -1.2741 -0.4394  0.8632
13020TIP3    H260476   4.938   2.717  17.002  0.1850 -0.5585  0.1583
13021TIP3   OH260477   0.694   4.865   0.282  0.7514 -0.1172 -0.1936
13021TIP3    H160478   0.605   4.877   0.250  0.4101  0.5193  0.9398
13021TIP3    H260479   0.687   4.798   0.350  1.5331 -1.7499 -1.6601
13022TIP3   OH260480   0.406   4.709  16.685  0.1096  0.2381  0.0005
13022TIP3    H160481   0.420   4.614  16.680 -0.3504  0.0792  1.4329
13022TIP3    H260482   0.423   4.731  16.776  0.8379  1.6512 -0.4596
13023TIP3   OH260483   5.654   0.051   1.800  0.0008  0.0657 -0.3389
13023TIP3    H160484   5.607   0.023   1.878 -0.5628  0.9839 -0.3329
13023TIP3    H260485   5.734  -0.001   1.800  0.4573  0.6921  1.3619
13024TIP3   OH260486   0.689   4.688   0.526  0.3324  0.1051 -0.0250
13024TIP3    H160487   0.711   4.629   0.598 -0.1776  0.1982  0.2154
13024TIP3    H260488   0.596   4.671   0.509  0.4379  0.1041 -0.6458
13025TIP3   OH260489   1.761   0.660   1.778 -0.3091 -0.1333  0.1233
13025TIP3    H160490   1.783   0.752   1.762 -0.6709 -0.1701 -0.6113
13025TIP3    H260491   1.804   0.640   1.861  2.4347 -0.1766 -1.1627
13026TIP3   OH260492   2.869   0.188  12.968  0.2837 -0.5188  0.3351
13026TIP3    H160493   2.930   0.160  13.036  0.6297 -0.5058  0.0302
13026TIP3    H260494   2.923   0.200  12.890  0.4029  2.1316  0.7187
13027TIP3   OH260495   2.655   2.500  11.280  0.4132 -0.5368 -0.2680
13027TIP3    H160496   2.672   2.591  11.306 -1.0084 -0.9746  2.5644
13027TIP3    H260497   2.628   2.506  11.189  0.8515  1.8201 -0.3062
13028TIP3   OH260498   4.626   5.995  13.473 -0.7308  0.0311 -0.1441
13028TIP3    H160499   4.582   6.078  13.490  0.5480  0.6826  0.1306
13028TIP3    H260500   4.718   6.019  13.462 -0.1862 -1.4619  0.8836
13029TIP3   OH260501   0.287   5.524  14.517 -0.0106 -0.0015  0.0617
13029TIP3    H160502   0.282   5.433  14.544 -1.2500  0.1882  0.5209
13029TIP3    H260503   0.317   5.521  14.426  1.0400 -0.7927  0.4107
13030TIP3   OH260504   2.373   4.871  12.576 -0.0179  0.1126 -0.2777
13030TIP3    H160505   2.298   4.916  12.535 -1.1951 -2.3341 -0.9894
13030TIP3    H260506   2.351   4.867  12.669  1.2949  3.0944  0.2779
13031TIP3   OH260507   5.665   0.877   4.969  0.4629 -0.5099  0.0121
13031TIP3    H160508   5.686   0.797   4.919  0.9188 -0.2303 -0.2576
13031TIP3    H260509   5.632   0.845   5.053 -2.7614 -1.0527 -1.3268
13032TIP3   OH260510   2.018   2.792  16.030 -0.4885 -0.0602  0.1151
13032TIP3    H160511   2.105   2.753  16.022 -1.3584 -2.3381  0.8707
13032TIP3    H260512   1.963   2.741  15.971 -1.4613  0.8738  0.1796
13033TIP3   OH260513   5.930   3.243  17.129  0.2816  0.3195  0.0482
13033TIP3    H160514   5.901   3.327  17.092  1.3397  1.6603  2.0465
13033TIP3    H260515   6.012   3.224  17.083  1.9052  2.2769  1.9061
13034TIP3   OH260516   1.109   6.236  14.627 -0.2380  0.1873  0.6586
13034TIP3    H160517   1.120   6.230  14.532  0.7483  1.1697  0.6852
13034TIP3    H260518   1.018   6.210  14.643 -0.2121 -0.6666 -0.4724
13035TIP3   OH260519   1.811   2.692  15.005 -0.1279 -0.8392 -0.3946
13035TIP3    H160520   1.729   2.673  15.051  0.7388 -1.7969  0.8147
13035TIP3    H260521   1.870   2.724  15.073  0.2984  0.5884 -1.3769
13036TIP3   OH260522   0.797   4.642   2.285  0.1135 -0.0600 -0.3094
13036TIP3    H160523   0.879   4.596   2.301  0.0663  0.1535  0.5829
13036TIP3    H260524   0.756   4.649   2.371 -1.5668 -1.4931 -0.9166
13037TIP3   OH260525   5.283   3.273  15.858 -1.5107 -0.0104  0.1746
13037TIP3    H160526   5.321   3.189  15.833  2.0498  0.7533  2.3213
13037TIP3    H260527   5.219   3.291  15.789  0.5034 -2.5267 -2.6723
13038TIP3   OH260528   3.652   5.056  14.727 -0.2203 -0.3272  0.0713
13038TIP3    H160529   3.635   5.017  14.813 -0.1516 -1.9297 -0.6145
13038TIP3    H260530   3.609   5.142  14.732 -1.4756 -0.9675  1.2117
13039TIP3   OH260531   3.349   4.109  12.859 -0.2378  0.0560  0.2741
13039TIP3    H160532   3.332   4.195  12.820  1.8264  0.3118 -0.1928
13039TIP3    H260533   3.307   4.048  12.800  1.7113  0.5349 -1.7788
13040TIP3   OH260534   4.425   2.860   4.257 -0.4712  0.3189 -0.0352
13040TIP3    H160535   4.422   2.908   4.339  2.5110 -1.1837  1.0858
13040TIP3    H260536   4.441   2.927   4.190 -1.4056  1.3788  0.7793
13041TIP3   OH260537   1.918   3.440   4.982  0.4800 -0.2437  0.3075
13041TIP3    H160538   1.983   3.511   4.984 -0.8244  1.0854 -1.2688
13041TIP3    H260539   1.928   3.401   4.895 -0.9861  0.1912 -0.0860
13042TIP3   OH260540   2.108   5.788  16.434  0.3783 -0.1783 -0.2823
13042TIP3    H160541   2.117   5.755  16.344 -0.8543  2.7048 -1.5791
13042TIP3    H260542   2.158   5.869  16.435 -0.3995  0.3199  1.3688
13043TIP3   OH260543   3.884   6.416  16.227 -0.3270 -0.4549  0.0991
13043TIP3    H160544   3.845   6.484  16.282  1.2452  0.0577  0.6322
13043TIP3    H260545   3.869   6.335  16.275 -1.8727 -0.4580 -0.3509
13044TIP3   OH260546   0.982   4.476   2.514 -0.0784 -0.0420  0.0086
13044TIP3    H160547   1.068   4.516   2.514  0.2856 -0.7864 -0.8536
13044TIP3    H260548   0.999   4.382   2.510 -0.9195 -0.2270  0.5171
13045TIP3   OH260549   3.802   1.555  14.745 -0.0318  0.2226  0.1071
13045TIP3    H160550   3.749   1.615  14.798 -0.4948  1.8391 -2.0467
13045TIP3    H260551   3.738   1.508  14.691  0.5738  0.8554 -1.1982
13046TIP3   OH260552   1.846   4.858   1.863 -0.1963  0.2922  0.2930
13046TIP3    H160553   1.884   4.771   1.849 -0.8983 -0.1766  1.1829
13046TIP3    H260554   1.752   4.845   1.848 -0.0459  1.4905 -2.2042
13047TIP3   OH260555   2.203   3.145   5.299  0.5255  0.0797 -0.5564
13047TIP3    H160556   2.287   3.191   5.295  1.0869 -0.9919 -2.1146
13047TIP3    H260557   2.226   3.053   5.284 -0.8764 -0.3172 -0.4022
13048TIP3   OH260558   0.304   1.223   1.533 -0.1251  0.5993 -0.3206
13048TIP3    H160559   0.240   1.295   1.530 -0.0401  0.6585 -0.8343
13048TIP3    H260560   0.273   1.166   1.603 -0.8941  0.4918 -0.7375
13049TIP3   OH260561   2.294   1.198   2.924  0.1159  0.0187  0.2915
13049TIP3    H160562   2.301   1.284   2.882 -0.0588  0.0069  0.2403
13049TIP3    H260563   2.308   1.217   3.017 -0.3284  0.1597  0.3316
13050TIP3   OH260564   5.375   0.629  10.633 -0.2642  0.1527  0.8364
13050TIP3    H160565   5.301   0.570  10.625 -0.8986  1.1386 -1.0267
13050TIP3    H260566   5.391   0.661  10.544  0.9763  1.6586  1.5450
13051TIP3   OH260567   3.236   4.713   3.411 -0.2943 -0.5930 -0.1172
13051TIP3    H160568   3.143   4.718   3.389 -0.8990 -1.9367  1.8644
13051TIP3    H260569   3.258   4.800   3.444 -0.4771  0.1095 -1.7254
13052TIP3   OH260570   5.363   5.896  14.633 -0.2875 -0.0646 -0.3684
13052TIP3    H160571   5.425   5.832  14.597 -2.5017 -0.6024 -3.6524
13052TIP3    H260572   5.402   5.981  14.614 -0.1444 -0.4038 -1.6782
13053TIP3   OH260573   2.293   2.807   2.250 -0.3329  0.3471  0.1235
13053TIP3    H160574   2.296   2.811   2.155  1.6875 -4.3974 -0.3523
13053TIP3    H260575   2.378   2.841   2.278 -0.5655  0.9014  0.1606
13054TIP3   OH260576   3.465   1.525   5.976  0.1430 -0.3022 -0.4509
13054TIP3    H160577   3.440   1.457   6.039  1.4870 -0.9269 -0.5702
13054TIP3    H260578   3.390   1.529   5.916 -0.5923 -0.6225  0.4155
13055TIP3   OH260579   1.780   4.823  10.580 -0.1783  0.1321 -0.1465
13055TIP3    H160580   1.830   4.766  10.521  0.8829 -0.0440  0.8729
13055TIP3    H260581   1.760   4.900  10.528  0.2064 -0.2764 -0.9215
13056TIP3   OH260582   4.646   3.411   2.149 -0.4781  0.3286  0.1666
13056TIP3    H160583   4.713   3.433   2.083 -0.6791 -0.8658 -0.4616
13056TIP3    H260584   4.685   3.439   2.232  1.1443 -0.9402 -0.0917
13057TIP3   OH260585   0.388   5.895   2.240 -0.4258  0.0272  0.2934
13057TIP3    H160586   0.367   5.860   2.153 -0.5279  0.8866 -0.0344
13057TIP3    H260587   0.325   5.853   2.299  0.5376 -1.6533  0.2030
13058TIP3   OH260588   1.063   2.659   5.544  0.3853  0.1062  0.3546
13058TIP3    H160589   1.053   2.647   5.449  0.4323  1.1189  0.2091
13058TIP3    H260590   1.057   2.753   5.556  0.0248 -0.0449  1.4090
13059TIP3   OH260591   2.148   0.904  16.482 -0.0752 -0.3191  0.1626
13059TIP3    H160592   2.148   0.903  16.387  1.4526 -0.4198  0.1341
13059TIP3    H260593   2.182   0.991  16.505  0.5224 -0.6531  0.5860
13060TIP3   OH260594   2.106   4.631   1.325  0.3598 -0.5501 -0.5623
13060TIP3    H160595   2.016   4.604   1.310 -0.3271  0.7287  0.9010
13060TIP3    H260596   2.105   4.726   1.312  1.0933 -0.2861  0.9896
13061TIP3   OH260597   3.487   3.074  16.884  0.5970 -0.6265  0.2942
13061TIP3    H160598   3.488   3.160  16.841 -0.9232 -0.4524  0.5608
13061TIP3    H260599   3.564   3.076  16.942 -0.6092  1.4510  1.9710
13062TIP3   OH260600   6.181   5.140  14.780  0.3288  0.5659  0.2345
13062TIP3    H160601   6.126   5.066  14.755 -0.0485  0.1445  2.1535
13062TIP3    H260602   6.245   5.103  14.841  0.0242  1.8200  1.3740
13063TIP3   OH260603   0.471   1.261  15.448  0.3411 -0.7292  0.0501
13063TIP3    H160604   0.402   1.326  15.433  1.7611  0.9481  0.3690
13063TIP3    H260605   0.441   1.210  15.523  0.2798  1.2855  1.4869
13064TIP3   OH260606   3.854   5.879  10.528 -0.3932  0.2462  0.3354
13064TIP3    H160607   3.785   5.862  10.465  0.1074 -0.9361  0.0797
13064TIP3    H260608   3.857   5.801  10.583  0.6253  0.3517  0.4499
13065TIP3   OH260609   0.812   0.175  14.170  0.2009  0.0398  0.0757
13065TIP3    H160610   0.899   0.191  14.132 -0.5960  1.3742 -1.2967
13065TIP3    H260611   0.769   0.117  14.107 -0.2076  0.0818  0.3148
13066TIP3   OH260612   0.169   0.121  17.181 -0.3769 -0.1234  0.1131
13066TIP3    H160613   0.157   0.144  17.089 -1.0271  0.1021  0.2494
13066TIP3    H260614   0.138   0.031  17.188 -0.5714 -0.0517  0.1661
13067TIP3   OH260615   5.998   4.825   0.147  0.2541  0.7915 -0.7828
13067TIP3    H160616   6.084   4.810   0.187  0.4211  0.5175 -1.2404
13067TIP3    H260617   6.004   4.913   0.111 -0.6665  1.9891  1.7494
13068TIP3   OH260618   0.550   3.198  12.887  0.0351  0.2560 -0.2421
13068TIP3    H160619   0.580   3.240  12.806  0.2789 -0.3487 -0.4625
13068TIP3    H260620   0.529   3.272  12.945 -0.8989  0.7124 -1.1247
13069TIP3   OH260621   6.724   5.993   3.100 -0.0532  0.2818 -0.4647
13069TIP3    H160622   6.671   5.952   3.031  2.4773 -1.8594 -1.2757
13069TIP3    H260623   6.752   6.077   3.061  1.1456 -0.7882 -2.0504
13070TIP3   OH260624   6.589   0.350  12.210  0.2358  0.4521 -0.1087
13070TIP3    H160625   6.607   0.327  12.118 -0.7383  0.0471 -0.2123
13070TIP3    H260626   6.672   0.334  12.255 -0.2204 -3.1755 -0.2061
13071TIP3   OH260627   0.190   5.034   3.088  0.5747 -0.1264 -0.3458
13071TIP3    H160628   0.169   4.975   3.015 -0.1100 -1.7689  1.1109
13071TIP3    H260629   0.226   4.977   3.156 -0.9408  0.9408  1.4762
13072TIP3   OH260630   4.674   3.040   2.753  0.1056 -0.0925 -0.2690
13072TIP3    H160631   4.586   3.058   2.786 -1.0386 -3.1169 -1.3833
13072TIP3    H260632   4.727   3.026   2.831 -1.5209 -2.7101  0.4801
13073TIP3   OH260633   4.346   6.084   4.969  0.1597 -0.0887 -0.0373
13073TIP3    H160634   4.331   6.152   5.035  0.5346  0.1719 -0.2164
13073TIP3    H260635   4.332   6.002   5.017 -0.2970  0.1090  0.1787
13074TIP3   OH260636   1.768   3.668   2.528  0.3611  0.1192 -0.0382
13074TIP3    H160637   1.858   3.642   2.547 -0.1793  0.0537  3.0017
13074TIP3    H260638   1.771   3.764   2.525  0.4029  0.1646  1.0827
13075TIP3   OH260639   0.331   4.108   1.427  0.4926  0.3346 -0.6600
13075TIP3    H160640   0.391   4.050   1.474  0.9626  1.7867  0.6009
13075TIP3    H260641   0.372   4.123   1.342  0.1892 -1.4243 -1.1548
13076TIP3   OH260642   6.378   4.648  10.924 -0.2427  0.3079 -0.0633
13076TIP3    H160643   6.327   4.699  10.987 -2.6524 -0.4087 -1.3264
13076TIP3    H260644   6.336   4.664  10.840  1.0206 -1.1240 -1.0254
13077TIP3   OH260645   1.270   0.643   5.502 -0.0475  0.1634 -0.1634
13077TIP3    H160646   1.325   0.610   5.431  0.3424 -1.2896  0.7569
13077TIP3    H260647   1.315   0.615   5.582 -2.5417 -1.9866  0.6551
13078TIP3   OH260648   1.963   0.233  10.988  0.4771 -0.4980 -0.1038
13078TIP3    H160649   2.009   0.201  10.910 -0.6462  0.0380 -1.0109
13078TIP3    H260650   1.888   0.173  10.997  1.1333 -1.1719  1.1729
13079TIP3   OH260651   1.391   5.612  16.703 -0.3916 -0.3302 -0.4056
13079TIP3    H160652   1.467   5.609  16.760  0.5626  0.1359 -1.6113
13079TIP3    H260653   1.411   5.551  16.632 -1.6658 -1.0993 -0.1320
13080TIP3   OH260654   3.291   2.475  12.336  0.4760  0.0070  0.3937
13080TIP3    H160655   3.263   2.420  12.262  1.5149  0.6451 -0.5112
13080TIP3    H260656   3.383   2.493  12.318  0.8439 -0.0914  2.0400
13081TIP3   OH260657   0.017   3.865  16.308 -0.7768  0.2951 -0.4111
13081TIP3    H160658   0.052   3.852  16.220 -1.2923  0.0593 -0.5834
13081TIP3    H260659   0.005   3.776  16.342 -0.9895  0.3775 -0.2692
13082TIP3   OH260660   5.922   1.625  11.849 -0.1907 -0.3988  0.1082
13082TIP3    H160661   5.873   1.591  11.774 -0.2866 -0.9551  0.4176
13082TIP3    H260662   5.855   1.640  11.916 -0.4091  2.0070 -0.5530
13083TIP3   OH260663   1.715   2.228  15.584  0.2116  0.0410 -0.0584
13083TIP3    H160664   1.668   2.275  15.652  0.2295 -0.4573  0.3078
13083TIP3    H260665   1.711   2.285  15.508  0.0635  0.5387  0.3181
13084TIP3   OH260666   2.802   0.701   1.470 -0.3131  0.1057  0.1218
13084TIP3    H160667   2.780   0.758   1.396 -3.4330  0.0912  0.8909
13084TIP3    H260668   2.792   0.613   1.436  2.4078 -0.0435 -0.4849
13085TIP3   OH260669   0.820   3.099   4.483  0.4344 -0.0170  0.2517
13085TIP3    H160670   0.745   3.143   4.524  0.8261  0.3910  0.5371
13085TIP3    H260671   0.882   3.169   4.466 -0.1831  0.0229 -2.1204
13086TIP3   OH260672   6.175   1.244   4.400  0.3508 -0.2387 -0.2004
13086TIP3    H160673   6.112   1.257   4.329 -0.0306 -1.8780 -0.2006
13086TIP3    H260674   6.131   1.278   4.478 -0.4602 -1.1955 -0.2355
13087TIP3   OH260675   4.181   3.788  16.276  1.0331 -1.0004 -0.4670
13087TIP3    H160676   4.189   3.854  16.206 -0.4881  0.5377  0.7255
13087TIP3    H260677   4.132   3.717  16.236  1.1217 -0.6209 -1.2831
13088TIP3   OH260678   5.878   6.081   6.180 -0.3383  0.1582 -0.1882
13088TIP3    H160679   5.953   6.045   6.134 -1.4559 -0.2641 -1.7827
13088TIP3    H260680   5.908   6.165   6.215  1.0259 -0.2884 -0.2608
13089TIP3   OH260681   0.239   1.991   6.071 -0.8356  0.3054  0.2387
13089TIP3    H160682   0.192   2.031   6.144  1.3435  1.4886  1.0919
13089TIP3    H260683   0.319   1.956   6.111  0.3020  0.7869 -1.4982
13090TIP3   OH260684   0.284   2.050   4.812  0.0027 -0.2245  0.3188
13090TIP3    H160685   0.366   2.038   4.860  0.7795  1.3434 -0.5453
13090TIP3    H260686   0.261   2.142   4.826 -1.0741 -0.3812 -0.3035
13091TIP3   OH260687   3.922   4.761  11.824  0.2102  0.1758 -0.1776
13091TIP3    H160688   3.895   4.853  11.823 -1.2627 -0.1228  2.6639
13091TIP3    H260689   3.955   4.747  11.913 -0.9103 -2.3789 -0.0903
13092TIP3   OH260690   5.772   3.856  16.826  0.0053  0.0237  0.0267
13092TIP3    H160691   5.865   3.851  16.806 -0.1104 -1.9971 -0.2191
13092TIP3    H260692   5.737   3.916  16.760  1.2303  1.5089  0.6689
13093TIP3   OH260693   5.237   3.751  16.121 -0.0096 -0.2229  0.5741
13093TIP3    H160694   5.160   3.697  16.140  0.2616 -1.3614 -1.2116
13093TIP3    H260695   5.307   3.712  16.173  0.1606 -1.6182 -0.6251
13094TIP3   OH260696   6.652   6.740  14.148 -0.8163 -0.4498  0.2690
13094TIP3    H160697   6.654   6.700  14.061 -1.8375  0.1776 -0.0725
13094TIP3    H260698   6.742   6.738  14.178 -0.4095 -0.4595 -0.9119
13095TIP3   OH260699   4.712   6.005  16.321 -0.4276 -0.5097 -0.3577
13095TIP3    H160700   4.757   5.926  16.350  1.6195  0.2014 -1.3787
13095TIP3    H260701   4.725   6.068  16.392  0.6865 -0.1584 -0.8439
13096TIP3   OH260702   3.865   2.194  10.865  0.4513 -0.3962 -0.2850
13096TIP3    H160703   3.799   2.125  10.872  0.7734 -0.6008  0.9407
13096TIP3    H260704   3.814   2.275  10.862  0.0526 -0.6567 -2.1032
13097TIP3   OH260705   2.769   1.504   1.058  0.1191 -0.0418  0.1369
13097TIP3    H160706   2.711   1.505   1.135  0.7903 -0.1323  0.6542
13097TIP3    H260707   2.836   1.438   1.079  0.6492  0.3587 -0.2685
13098TIP3   OH260708   3.655   5.878   3.478 -0.5476 -0.3911  0.1536
13098TIP3    H160709   3.729   5.937   3.491  0.7276 -1.9738  0.4771
13098TIP3    H260710   3.621   5.901   3.392  0.4521  0.2364 -0.0990
13099TIP3   OH260711   1.223   4.357  16.938  0.1241 -0.3554  0.3067
13099TIP3    H160712   1.225   4.404  17.021  1.0731 -0.7394  0.5137
13099TIP3    H260713   1.148   4.393  16.891 -0.1509  0.1766  1.1471
13100TIP3   OH260714   0.979   5.392   2.813  0.2997 -0.0764  0.6251
13100TIP3    H160715   1.054   5.336   2.834  0.7362  0.5636  0.8250
13100TIP3    H260716   1.008   5.442   2.736  0.9493  1.7555  2.0044
13101TIP3   OH260717   2.066   3.946   0.042 -0.6860  0.1062 -0.4805
13101TIP3    H160718   2.161   3.947   0.041 -0.6428 -1.2934  0.3650
13101TIP3    H260719   2.041   4.026  -0.004  0.8897  0.9637  0.0790
13102TIP3   OH260720   4.118   1.552  12.901 -0.2928 -0.0382  0.3411
13102TIP3    H160721   4.039   1.517  12.942 -0.4400  0.0544  0.1401
13102TIP3    H260722   4.103   1.647  12.898 -0.5095 -0.0921 -0.3995
13103TIP3   OH260723   5.434   1.901  14.888  0.2770  0.1180 -0.3517
13103TIP3    H160724   5.468   1.964  14.951  0.3776 -0.3605  0.0815
13103TIP3    H260725   5.347   1.878  14.922  0.2455  0.0143 -0.4991
13104TIP3   OH260726   5.159   2.902   4.899 -0.4347  0.2964  0.1776
13104TIP3    H160727   5.091   2.956   4.939 -0.2972  0.2638  0.4547
13104TIP3    H260728   5.127   2.886   4.810 -1.0893 -0.2463  0.4996
13105TIP3   OH260729   0.399   5.032   5.065 -0.6772  0.1991  0.5546
13105TIP3    H160730   0.392   4.944   5.103 -1.2643  0.1837  0.4183
13105TIP3    H260731   0.334   5.033   4.995 -0.2699  0.5534  0.1788
13106TIP3   OH260732   5.668   6.089   5.575  0.2173  0.3309  0.2299
13106TIP3    H160733   5.648   6.136   5.656 -1.7584 -0.3823  0.1956
13106TIP3    H260734   5.658   5.997   5.598  1.6593  0.0116 -0.3327
13107TIP3   OH260735   6.187   4.572   0.760  0.0397 -0.4593 -0.1927
13107TIP3    H160736   6.190   4.486   0.718  0.4344 -1.1373  1.1648
13107TIP3    H260737   6.250   4.566   0.832  0.5955  1.2189 -0.5022
13108TIP3   OH260738   2.828   5.987  16.326 -0.4753  0.0437  0.2398
13108TIP3    H160739   2.829   5.947  16.413  0.9587 -1.7149 -0.4896
13108TIP3    H260740   2.921   5.997  16.304 -0.8145  0.9095 -0.8873
13109TIP3   OH260741   4.322   1.572  10.614 -0.1311  0.2469  0.4889
13109TIP3    H160742   4.265   1.645  10.593 -1.0501 -0.6029 -0.0650
13109TIP3    H260743   4.411   1.605  10.602 -0.5607  0.8072 -1.3294
13110TIP3   OH260744   6.509   1.958   5.727  0.1483 -0.0238  0.0498
13110TIP3    H160745   6.468   1.903   5.660  0.9699 -1.3215  0.5875
13110TIP3    H260746   6.438   1.978   5.789 -0.1807 -0.3486 -0.2195
13111TIP3   OH260747   2.785   5.754   0.246 -0.2053  0.1045 -0.0585
13111TIP3    H160748   2.724   5.825   0.263 -0.0297 -0.0913  1.6155
13111TIP3    H260749   2.741   5.699   0.182 -2.0806 -0.3197  1.4977
13112TIP3   OH260750   2.542   4.969   2.095 -0.0330  0.2087  0.3492
13112TIP3    H160751   2.493   4.887   2.090  0.3108 -0.0040  0.4353
13112TIP3    H260752   2.506   5.014   2.172 -0.0884  0.0487  0.4181
13113TIP3   OH260753   0.935   4.159  14.972  0.3816 -0.0586  0.5709
13113TIP3    H160754   0.896   4.116  14.896 -2.1051  2.6634  0.1195
13113TIP3    H260755   0.886   4.126  15.047  0.4620 -0.1573  0.5803
13114TIP3   OH260756   6.586   5.127   0.077 -0.0933 -0.0747  0.6551
13114TIP3    H160757   6.666   5.164   0.113 -0.7487  1.4568  0.6212
13114TIP3    H260758   6.591   5.144  -0.017 -1.3221  1.8717  0.8857
13115TIP3   OH260759   5.735   3.586   2.747 -0.2838 -0.5303  0.1342
13115TIP3    H160760   5.688   3.653   2.797 -0.1547  0.2273 -0.7428
13115TIP3    H260761   5.689   3.505   2.767 -0.7297 -0.1143  0.8480
13116TIP3   OH260762   0.256   2.735  10.327  0.0199  0.5271 -0.2910
13116TIP3    H160763   0.343   2.743  10.287  1.0605  1.1272  1.9511
13116TIP3    H260764   0.265   2.775  10.413 -1.8825 -1.4143  0.9205
13117TIP3   OH260765   5.680   6.640  13.161  0.0960  0.4080  0.3672
13117TIP3    H160766   5.765   6.620  13.200  0.2051 -0.1796 -0.1667
13117TIP3    H260767   5.640   6.555  13.143  0.5822  0.5917 -1.9669
13118TIP3   OH260768   1.363   2.368  13.802 -0.1676 -0.3711 -0.1308
13118TIP3    H160769   1.325   2.281  13.790 -1.3431  0.1962 -0.7244
13118TIP3    H260770   1.419   2.379  13.725 -2.3461  0.5243 -1.7252
13119TIP3   OH260771   6.046   1.407   1.336  0.1919 -0.1966 -0.4905
13119TIP3    H160772   5.964   1.400   1.385  0.0480  1.3127 -0.4719
13119TIP3    H260773   6.111   1.364   1.391 -0.0203  1.2011  0.9364
13120TIP3   OH260774   1.810   2.530   0.028  0.1746 -0.7273 -0.7377
13120TIP3    H160775   1.880   2.592   0.006 -0.9717  1.5433  1.4149
13120TIP3    H260776   1.849   2.474   0.096 -0.2535  1.2272  1.2563
13121TIP3   OH260777   3.488   1.930  15.798  0.1955 -0.5898 -0.4517
13121TIP3    H160778   3.438   1.864  15.749  1.7753 -2.0797 -0.1586
13121TIP3    H260779   3.496   2.004  15.738 -0.3768 -1.2409 -1.3525
13122TIP3   OH260780   6.638   0.136   1.868  0.0675 -0.0926  0.1147
13122TIP3    H160781   6.639   0.067   1.802  0.8946  0.5072 -0.5008
13122TIP3    H260782   6.676   0.212   1.825 -0.4008  0.6226  0.9385
13123TIP3   OH260783   1.263   0.611   0.129  0.1860  0.6265 -0.1685
13123TIP3    H160784   1.229   0.677   0.189  0.3610  0.1664  0.4421
13123TIP3    H260785   1.198   0.541   0.129  1.3479 -0.5334  1.4617
13124TIP3   OH260786   1.102   1.979  14.006 -0.1446 -0.0865  0.5878
13124TIP3    H160787   1.137   2.068  14.006  0.1980 -0.2127  0.9763
13124TIP3    H260788   1.163   1.929  13.951 -1.0823  0.1805 -0.7510
13125TIP3   OH260789   0.526   6.115   2.305  0.3127  0.0214  0.2397
13125TIP3    H160790   0.603   6.133   2.252  0.0254 -0.5535 -0.3823
13125TIP3    H260791   0.479   6.047   2.257 -1.2799  1.3019 -0.0820
13126TIP3   OH260792   1.835   5.104  12.754  0.0644 -0.0103 -0.0463
13126TIP3    H160793   1.918   5.057  12.749  0.3486  0.5743 -0.9240
13126TIP3    H260794   1.827   5.149  12.670  0.1051  2.0051  0.9673
13127TIP3   OH260795   3.543   0.860  11.257 -0.1519 -0.8071 -0.6101
13127TIP3    H160796   3.628   0.847  11.215 -0.3836 -0.3938 -1.2286
13127TIP3    H260797   3.485   0.886  11.185 -0.3702  0.7376  0.0963
13128TIP3   OH260798   0.341   6.611   1.944 -0.1227  0.0671 -0.1827
13128TIP3    H160799   0.369   6.673   2.011  0.4577 -0.3724 -0.0126
13128TIP3    H260800   0.329   6.529   1.991  2.0497 -0.7188 -0.8870
13129TIP3   OH260801   1.701   4.971  12.986 -0.5070  0.8450 -0.0102
13129TIP3    H160802   1.737   4.989  12.899  0.2383  0.7216  0.2641
13129TIP3    H260803   1.625   4.916  12.970  0.3353 -0.2087 -0.5134
13130TIP3   OH260804   0.147   6.252   0.979 -0.5428 -0.5371  0.2002
13130TIP3    H160805   0.142   6.206   0.896  0.5321  0.4841 -0.4544
13130TIP3    H260806   0.229   6.301   0.975 -1.9463  1.9872  0.5586
13131TIP3   OH260807   2.176   2.301   0.895 -0.0593 -0.7415 -0.2218
13131TIP3    H160808   2.112   2.355   0.848  0.0659 -0.1794  0.2479
13131TIP3    H260809   2.261   2.331   0.862  0.0319 -0.3173  0.3766
13132TIP3   OH260810   3.686   4.791  13.997  0.3999 -0.0897  0.5675
13132TIP3    H160811   3.646   4.835  14.072 -0.5413 -0.5757  0.3662
13132TIP3    H260812   3.689   4.699  14.023 -1.7280 -0.5863 -0.7021
13133TIP3   OH260813   4.472   4.575  13.780 -0.0025 -0.8565  0.2961
13133TIP3    H160814   4.441   4.583  13.870 -0.3126  0.9661  0.0655
13133TIP3    H260815   4.557   4.533  13.788  0.5182  0.3504  1.5775
13134TIP3   OH260816   0.535   2.488  12.325  0.0255 -0.1512  0.4174
13134TIP3    H160817   0.551   2.409  12.273  1.5516  0.4884 -0.1261
13134TIP3    H260818   0.456   2.526  12.286 -0.9566 -1.5752  0.9276
13135TIP3   OH260819   4.689   1.368   2.191 -0.4197  0.7370  0.3248
13135TIP3    H160820   4.657   1.424   2.121  1.0246  1.2640  0.0528
13135TIP3    H260821   4.706   1.427   2.264  2.0079  0.8686 -0.2690
13136TIP3   OH260822   0.167   0.990   5.795  0.4474  0.0335  0.5574
13136TIP3    H160823   0.126   1.028   5.717  1.7673 -2.4700 -1.4926
13136TIP3    H260824   0.254   1.030   5.797  0.7926 -0.6804  0.0985
13137TIP3   OH260825   5.003   4.327   4.042 -0.0751 -0.0645 -0.0051
13137TIP3    H160826   5.024   4.283   4.124  2.9971  3.0744  1.1711
13137TIP3    H260827   4.963   4.410   4.069 -3.5813 -0.8743 -2.0087
13138TIP3   OH260828   6.161   1.257   5.047  0.5656 -0.1334 -0.1855
13138TIP3    H160829   6.248   1.252   5.007  1.7545 -3.0171  2.3433
13138TIP3    H260830   6.118   1.177   5.020 -0.1145 -0.2026  1.0538
13139TIP3   OH260831   4.790   1.821   0.810 -0.4184  0.0772 -0.1336
13139TIP3    H160832   4.833   1.818   0.896  1.0171 -0.2092 -0.8460
13139TIP3    H260833   4.766   1.913   0.799  0.6527  0.3876 -0.0144
13140TIP3   OH260834   1.415   6.030   5.619 -0.3396 -0.0375  0.5419
13140TIP3    H160835   1.489   5.971   5.636 -1.3324 -1.3744  0.3666
13140TIP3    H260836   1.339   5.972   5.610 -1.6725  1.3474  2.0088
13141TIP3   OH260837   3.284   0.054  14.011 -0.5096  0.5645  0.0991
13141TIP3    H160838   3.289   0.088  14.100 -1.7114  2.4140 -0.4764
13141TIP3    H260839   3.263  -0.039  14.022 -1.1770  0.8784  1.7386
13142TIP3   OH260840   6.533   5.826   1.731 -0.5289  0.0640 -0.9231
13142TIP3    H160841   6.451   5.777   1.743 -2.5070  2.7131 -2.4234
13142TIP3    H260842   6.538   5.884   1.806  0.6710 -0.8480 -0.2506
13143TIP3   OH260843   5.160   4.797  14.696  0.1906  0.2602 -0.0947
13143TIP3    H160844   5.157   4.709  14.659  2.2375 -0.6650  1.7324
13143TIP3    H260845   5.249   4.827  14.680  0.3303  0.8929  1.6865
13144TIP3   OH260846   4.845   3.457   0.439  0.0650 -0.1799 -0.2475
13144TIP3    H160847   4.905   3.403   0.490 -0.1573 -1.9520 -1.7692
13144TIP3    H260848   4.863   3.434   0.348 -0.2429  2.1535 -0.9582
13145TIP3   OH260849   0.050   1.055  15.066  0.1833 -0.0527 -0.3926
13145TIP3    H160850  -0.012   1.031  15.135 -1.2879 -1.3679 -2.0754
13145TIP3    H260851   0.117   1.107  15.110 -1.2865  0.0822  1.8010
13146TIP3   OH260852   4.666   5.464   0.648 -0.1696  0.6920  0.2466
13146TIP3    H160853   4.600   5.420   0.703 -0.2185 -0.1113 -0.4313
13146TIP3    H260854   4.623   5.544   0.618 -0.9892 -0.0069 -0.4935
13147TIP3   OH260855   3.544   4.771   1.667  1.0745 -0.2398  0.1182
13147TIP3    H160856   3.588   4.686   1.658  2.9397  0.8655 -2.1816
13147TIP3    H260857   3.476   4.770   1.600  0.3973 -0.2691  0.7873
13148TIP3   OH260858   4.605   5.552  10.835  0.3878  0.6055 -0.6337
13148TIP3    H160859   4.687   5.598  10.818  0.0676  1.5468  0.2688
13148TIP3    H260860   4.537   5.617  10.816 -0.0647  0.5868  0.8025
13149TIP3   OH260861   0.088   0.861   1.873 -0.3931 -0.3741 -0.2654
13149TIP3    H160862   0.152   0.804   1.914 -0.0262  0.3278  0.1624
13149TIP3    H260863   0.062   0.922   1.942  0.3582  0.9356 -1.0860
13150TIP3   OH260864   5.370   2.699   0.554  0.3755  0.2547 -0.0894
13150TIP3    H160865   5.339   2.710   0.464 -0.7473  1.2252  0.3883
13150TIP3    H260866   5.376   2.788   0.588  0.2307 -0.1310  0.9704
13151TIP3   OH260867   5.918   0.685   0.538 -0.5353  0.3186  0.5930
13151TIP3    H160868   5.837   0.667   0.491 -0.7315 -0.0900  1.0787
13151TIP3    H260869   5.910   0.777   0.564  0.5631  1.2452 -2.0657
13152TIP3   OH260870   6.612   6.574   3.822  0.1651 -0.4652  0.1964
13152TIP3    H160871   6.540   6.625   3.785  0.7857  0.5858  0.3967
13152TIP3    H260872   6.612   6.493   3.771 -0.6010 -0.1135 -0.3930
13153TIP3   OH260873   4.895   3.484  15.487  0.2301  0.3529 -0.0210
13153TIP3    H160874   4.907   3.489  15.392 -4.8700  0.4835 -0.9206
13153TIP3    H260875   4.847   3.403  15.501 -0.7014  1.2159  2.1974
13154TIP3   OH260876   2.925   3.506  16.498  0.0332  0.2130 -0.3475
13154TIP3    H160877   2.876   3.432  16.463  0.6253  0.0343 -0.8078
13154TIP3    H260878   2.882   3.526  16.581  1.5946 -2.4476  1.2064
13155TIP3   OH260879   2.693   5.618  15.858 -0.5090 -0.2895  0.3733
13155TIP3    H160880   2.692   5.595  15.951 -1.5708 -0.0486  0.4279
13155TIP3    H260881   2.648   5.545  15.816  0.1496 -0.4972  0.0115
13156TIP3   OH260882   4.987   1.701  13.147  1.0408  0.0338 -0.7643
13156TIP3    H160883   5.056   1.750  13.100  0.2205  0.3194 -1.7095
13156TIP3    H260884   4.906   1.746  13.124  0.7398  1.3975  2.5143
13157TIP3   OH260885   5.333   0.702  12.606 -0.2060 -0.4602  0.0201
13157TIP3    H160886   5.260   0.641  12.618 -0.7853  0.3355  0.6146
13157TIP3    H260887   5.374   0.674  12.523 -0.5983 -1.4976  0.1598
13158TIP3   OH260888   1.645   2.686  12.733 -0.4115  0.5069 -0.5279
13158TIP3    H160889   1.688   2.604  12.758  0.0789  1.2925  1.4471
13158TIP3    H260890   1.716   2.750  12.731 -1.1626  1.4148  0.7454
13159TIP3   OH260891   0.542   4.830   4.471  0.3723  0.7400  0.6264
13159TIP3    H160892   0.629   4.868   4.477  0.2579  1.4209 -1.4519
13159TIP3    H260893   0.551   4.743   4.512  2.2300  0.4726 -0.2603
13160TIP3   OH260894   4.597   5.095   5.708 -0.0915 -0.3338 -0.0619
13160TIP3    H160895   4.672   5.104   5.649  0.1029 -0.4350  0.1691
13160TIP3    H260896   4.599   5.004   5.736 -2.3739 -1.3888 -2.8184
13161TIP3   OH260897   0.067   2.456  13.771  0.7629 -0.5959 -0.0916
13161TIP3    H160898   0.019   2.529  13.811  2.5288  0.7670 -0.3434
13161TIP3    H260899   0.102   2.407  13.846  0.9063 -0.2481  0.0706
13162TIP3   OH260900   6.170   1.730   4.803  0.6356  0.5646  0.9773
13162TIP3    H160901   6.075   1.732   4.787  0.9123  1.3423 -0.7824
13162TIP3    H260902   6.184   1.650   4.854 -0.5927 -1.3366 -1.4796
13163TIP3   OH260903   4.763   0.793  13.948  0.1019  0.2864  0.0192
13163TIP3    H160904   4.671   0.806  13.924  0.0496 -1.5352 -0.9864
13163TIP3    H260905   4.809   0.786  13.864  1.1467  1.0684  0.5068
13164TIP3   OH260906   1.705   6.327  13.299  0.4886 -0.4809  0.0504
13164TIP3    H160907   1.632   6.358  13.244 -1.5313  0.2550  2.8904
13164TIP3    H260908   1.763   6.403  13.307  0.8623 -0.6316 -1.1111
13165TIP3   OH260909   6.463   1.247  12.648  0.6573 -0.3793 -0.5693
13165TIP3    H160910   6.506   1.333  12.658  0.8140 -0.2617 -2.0125
13165TIP3    H260911   6.497   1.214  12.564 -0.5307 -1.1918 -0.7421
13166TIP3   OH260912   0.353   4.367  13.651 -0.4637  0.5271  0.1889
13166TIP3    H160913   0.373   4.428  13.722 -1.3327 -0.7154  1.5626
13166TIP3    H260914   0.402   4.288  13.674  1.7883  1.0739 -2.3036
13167TIP3   OH260915   1.810   2.112  13.134 -0.5320  0.5566 -0.6240
13167TIP3    H160916   1.854   2.148  13.212  0.0688 -0.9393 -0.2394
13167TIP3    H260917   1.779   2.189  13.087  0.6052  1.5792  0.2223
13168TIP3   OH260918   0.907   3.567   3.365  0.2008  0.5088 -0.6441
13168TIP3    H160919   0.872   3.478   3.372 -0.3762  0.7936  0.4090
13168TIP3    H260920   0.840   3.616   3.318  0.1916  0.5437 -0.5951
13169TIP3   OH260921   1.484   6.644  15.232 -0.0029  0.5023  0.8668
13169TIP3    H160922   1.400   6.657  15.276  1.0071  3.5058  2.2190
13169TIP3    H260923   1.538   6.596  15.295 -0.6917 -1.6228 -0.0876
13170TIP3   OH260924   1.655   3.010  12.175  0.1134  0.3797 -0.5798
13170TIP3    H160925   1.679   2.919  12.157  2.7250  1.2797 -2.2911
13170TIP3    H260926   1.699   3.030  12.257  2.1735  0.8549 -1.7064
13171TIP3   OH260927   4.042   4.597  14.026 -0.3079 -0.2940  0.7372
13171TIP3    H160928   4.014   4.508  14.049 -0.4827 -0.4027  0.1165
13171TIP3    H260929   4.110   4.618  14.090 -0.4118 -0.7954  1.0172
13172TIP3   OH260930   6.222   0.284   5.909  0.1872  0.0661  0.3069
13172TIP3    H160931   6.192   0.294   6.000  1.7445 -2.2936  1.2060
13172TIP3    H260932   6.143   0.262   5.860 -0.5610  0.5587  1.2582
13173TIP3   OH260933   3.281   1.179   0.515  0.0717  0.0002 -0.8208
13173TIP3    H160934   3.212   1.246   0.517 -1.8989 -1.8197  3.0889
13173TIP3    H260935   3.362   1.227   0.534 -0.4913  1.7797 -2.5280
13174TIP3   OH260936   5.236   1.502  14.946  0.5765 -0.3933  0.1870
13174TIP3    H160937   5.256   1.568  15.013  1.4625 -2.3962  1.9906
13174TIP3    H260938   5.263   1.543  14.864  2.3760  0.9984  1.3877
13175TIP3   OH260939   4.500   1.862   0.245  0.0439  0.2564  0.0395
13175TIP3    H160940   4.563   1.926   0.215  0.2069  0.1864  0.2284
13175TIP3    H260941   4.450   1.838   0.167  0.3937  0.1505 -0.1544
13176TIP3   OH260942   3.057   4.288   1.578  0.0853 -0.4981  0.4968
13176TIP3    H160943   3.137   4.278   1.525 -0.3853  1.7509 -0.7960
13176TIP3    H260944   2.990   4.244   1.526 -0.1687  0.7908 -0.3288
13177TIP3   OH260945   5.913   2.578   4.124 -0.1240  0.0061  0.3697
13177TIP3    H160946   5.985   2.564   4.185  0.4469  0.6673 -0.1368
13177TIP3    H260947   5.912   2.499   4.070  0.5286  0.1917  0.0758
13178TIP3   OH260948   5.599   1.620   3.685 -0.8694 -0.0723 -0.5968
13178TIP3    H160949   5.614   1.706   3.645 -2.1174 -0.4708 -2.0111
13178TIP3    H260950   5.611   1.558   3.614  0.4196 -1.1425  0.4983
13179TIP3   OH260951   5.549   3.064   3.642  0.1897  0.1938  0.4790
13179TIP3    H160952   5.556   3.033   3.732 -1.6705  1.9023  1.2712
13179TIP3    H260953   5.520   3.155   3.649  2.7972  1.3741 -1.7881
13180TIP3   OH260954   5.953   1.701   3.826  0.5477  0.3154  0.0703
13180TIP3    H160955   5.981   1.648   3.751  0.5718  1.6689 -0.9174
13180TIP3    H260956   5.877   1.654   3.861  0.5957 -0.4035 -0.7534
13181TIP3   OH260957   3.443   4.397  14.798 -0.0095  0.2789  0.4329
13181TIP3    H160958   3.472   4.408  14.707  2.2135 -0.0966  1.0390
13181TIP3    H260959   3.464   4.481  14.839 -1.8290  0.7658  0.4365
13182TIP3   OH260960   6.483   1.641  13.524  0.2765 -0.4664 -0.2326
13182TIP3    H160961   6.478   1.718  13.581  0.6447 -1.1231  0.6959
13182TIP3    H260962   6.423   1.578  13.563 -0.9402 -0.2662 -1.6491
13183TIP3   OH260963   4.532   2.801  13.537  0.1675  0.6336  0.1504
13183TIP3    H160964   4.524   2.829  13.446  0.0363  1.0453  0.2888
13183TIP3    H260965   4.620   2.827  13.563  0.0958  0.7951  0.2345
13184TIP3   OH260966   1.050   4.351  13.235 -0.4439  0.1206 -0.5892
13184TIP3    H160967   1.085   4.356  13.146  0.7370 -1.2605 -0.2409
13184TIP3    H260968   0.955   4.355  13.224 -0.3938 -1.3996 -2.0618
13185TIP3   OH260969   1.155   1.383  15.486 -0.3205  0.6975 -0.4287
13185TIP3    H160970   1.078   1.405  15.539 -1.0246  1.2193 -1.6035
13185TIP3    H260971   1.140   1.293  15.458  0.6682 -0.0268  1.2318
13186TIP3   OH260972   4.816   3.386  15.971  0.2592 -0.0870  0.4466
13186TIP3    H160973   4.820   3.378  16.066  1.9992  0.6670  0.4771
13186TIP3    H260974   4.729   3.422  15.953  0.1427  0.3590  1.8023
13187TIP3   OH260975   0.200   0.994  15.885  0.5031  0.2600 -0.0243
13187TIP3    H160976   0.197   0.908  15.843 -0.7047  0.6028 -0.7001
13187TIP3    H260977   0.227   0.975  15.975  3.7877 -0.4235 -1.0093
13188TIP3   OH260978   2.229   0.217   5.717 -0.3220  0.1127  0.0657
13188TIP3    H160979   2.265   0.128   5.713 -1.7953 -0.5172  0.3944
13188TIP3    H260980   2.286   0.263   5.779  0.7541 -0.4413 -0.4755
13189TIP3   OH260981   6.532   4.771   5.158 -0.2470 -0.4607  0.8521
13189TIP3    H160982   6.501   4.731   5.077  2.4369  0.7527 -0.8927
13189TIP3    H260983   6.453   4.811   5.196 -1.2758  1.0140 -2.4247
13190TIP3   OH260984   4.933   4.206  16.949 -0.0202 -0.3284  0.1243
13190TIP3    H160985   4.948   4.127  16.898 -0.8754  0.2414 -1.0602
13190TIP3    H260986   4.980   4.191  17.031  0.0813 -1.9240 -0.1921
13191TIP3   OH260987   6.090   1.346  12.801 -0.3791  0.0379  0.0459
13191TIP3    H160988   6.026   1.369  12.869 -0.2829 -2.5145  1.0868
13191TIP3    H260989   6.163   1.407  12.815 -0.9589  0.4638  1.3162
13192TIP3   OH260990   3.590   3.583   6.032 -0.8678 -0.0873  0.1764
13192TIP3    H160991   3.499   3.605   6.010 -1.0796 -3.3680 -3.3234
13192TIP3    H260992   3.583   3.525   6.108 -1.7569 -0.3692 -0.1059
13193TIP3   OH260993   2.096   1.266  17.144 -0.4003 -0.2601 -0.1295
13193TIP3    H160994   2.077   1.222  17.226  2.5576 -0.4922  0.5571
13193TIP3    H260995   2.093   1.197  17.078 -0.6660 -0.5057  0.1439
13194TIP3   OH260996   6.270   1.127  14.396  0.5154  0.2264  0.0321
13194TIP3    H160997   6.204   1.129  14.466  0.3738  0.7792 -0.1124
13194TIP3    H260998   6.294   1.219  14.384  0.4528  0.1452 -0.7280
13195TIP3   OH260999   0.221   3.782  11.510 -0.5157  0.0536 -1.0738
13195TIP3    H161000   0.284   3.745  11.448  0.5202  0.9024 -0.5676
13195TIP3    H261001   0.254   3.870  11.528 -0.1943 -0.5231  1.4517
13196TIP3   OH261002   4.970   6.197  17.155 -0.1124 -0.1698  0.0805
13196TIP3    H161003   5.029   6.234  17.090 -1.5301 -0.5700 -1.4921
13196TIP3    H261004   4.982   6.103  17.148 -0.4155 -0.2232  0.2480
13197TIP3   OH261005   1.531   3.999  17.040 -0.1991 -0.1397  0.4020
13197TIP3    H161006   1.463   4.063  17.061 -1.1646 -0.3843 -1.7434
13197TIP3    H261007   1.514   3.926  17.099 -2.5790 -0.6773 -0.8313
13198TIP3   OH261008   5.211   4.301   3.418  0.1985 -0.5837  0.4079
13198TIP3    H161009   5.258   4.377   3.453 -0.9426  1.7893 -2.6827
13198TIP3    H261010   5.121   4.314   3.449 -0.0193 -0.6123 -0.2132
13199TIP3   OH261011   6.648   3.253  15.408 -0.0449  0.6275 -0.1147
13199TIP3    H161012   6.712   3.186  15.385 -2.2272 -1.4101 -0.6214
13199TIP3    H261013   6.679   3.287  15.492  0.7742 -1.5506  0.5398
13200TIP3   OH261014   0.153   1.802   1.815 -0.0063 -0.4863 -0.6263
13200TIP3    H161015   0.195   1.869   1.761  2.6609 -1.4873  0.0360
13200TIP3    H261016   0.113   1.742   1.753  0.4076 -0.0061 -1.3663
13201TIP3   OH261017   4.790   1.519   2.472  0.4484  0.2630 -0.2024
13201TIP3    H161018   4.764   1.444   2.525 -0.2814 -1.5174 -2.8747
13201TIP3    H261019   4.723   1.585   2.488 -0.4838 -0.7337  0.0957
13202TIP3   OH261020   6.572   3.191  14.892  0.1860  0.5570 -0.3948
13202TIP3    H161021   6.579   3.191  14.987 -0.3268  2.0220 -0.3364
13202TIP3    H261022   6.662   3.206  14.861  0.3964 -0.1896 -0.1632
13203TIP3   OH261023   0.808   4.834  11.294 -0.4255  0.4467 -0.2443
13203TIP3    H161024   0.752   4.903  11.329 -1.0102 -0.1935  0.1346
13203TIP3    H261025   0.747   4.762  11.275  0.2327 -0.1590 -0.1021
13204TIP3   OH261026   0.696   2.558  10.656  0.1043  1.0897 -0.2861
13204TIP3    H161027   0.765   2.519  10.603  0.0135  0.5464 -0.0122
13204TIP3    H261028   0.614   2.524  10.620  0.0926 -0.4924  1.1113
13205TIP3   OH261029   2.938   0.550  11.929 -0.0278  0.2756  0.3923
13205TIP3    H161030   2.878   0.546  11.855 -0.4898  2.4363  0.5845
13205TIP3    H261031   2.998   0.622  11.908  1.1810 -0.4711  1.1673
13206TIP3   OH261032   1.656   6.240   6.085  0.4004 -0.6660  0.4874
13206TIP3    H161033   1.612   6.162   6.119  2.1869 -1.4871  1.0519
13206TIP3    H261034   1.720   6.263   6.152  0.7868  0.5200 -0.2504
13207TIP3   OH261035   1.473   5.693  11.631 -0.3476 -0.9355  0.0351
13207TIP3    H161036   1.458   5.616  11.686  0.9385 -0.5782  0.9397
13207TIP3    H261037   1.537   5.745  11.679 -0.5990  0.3349 -0.9269
13208TIP3   OH261038   4.242   1.584   4.059 -0.1835 -0.1636 -0.0952
13208TIP3    H161039   4.321   1.532   4.042  0.1075  0.1833  0.1538
13208TIP3    H261040   4.219   1.563   4.150 -0.9885 -1.0536 -0.4971
13209TIP3   OH261041   4.190   6.294   4.145  0.0596  0.4535  0.3341
13209TIP3    H161042   4.278   6.291   4.106  1.1905  0.4433  2.6923
13209TIP3    H261043   4.195   6.233   4.219 -2.8174 -1.6377 -1.0086
13210TIP3   OH261044   3.168   1.308  17.068  0.1443  0.8300 -0.1688
13210TIP3    H161045   3.250   1.260  17.056 -0.0423  0.6205 -0.6229
13210TIP3    H261046   3.105   1.261  17.013 -0.6934 -0.0253  1.4655
13211TIP3   OH261047   5.088   1.188  13.464 -0.2527 -0.7191 -0.3505
13211TIP3    H161048   5.095   1.093  13.459 -0.4885 -0.7549 -0.0053
13211TIP3    H261049   5.000   1.204  13.499 -0.6179 -0.3474 -1.4050
13212TIP3   OH261050   3.692   0.084   5.036  0.9269 -0.7285 -0.0767
13212TIP3    H161051   3.677   0.082   4.941  1.9548  0.7006 -0.3096
13212TIP3    H261052   3.759   0.017   5.052  0.2005 -1.5052 -0.2277
13213TIP3   OH261053   1.549   2.530   2.864  0.2719  0.5237 -0.8588
13213TIP3    H161054   1.554   2.611   2.812  2.6815  0.6229 -0.5877
13213TIP3    H261055   1.547   2.460   2.799  0.6693  0.7406 -1.1146
13214TIP3   OH261056   0.158   2.746   0.066  0.5229 -0.3946  0.4250
13214TIP3    H161057   0.161   2.768   0.160  1.3364 -1.2790  0.6232
13214TIP3    H261058   0.146   2.651   0.065  1.3066 -0.4940 -0.3617
13215TIP3   OH261059   5.234   1.783   1.683  0.7631  0.2000 -0.1848
13215TIP3    H161060   5.161   1.813   1.629 -0.4368 -0.5361  0.9487
13215TIP3    H261061   5.231   1.688   1.675  0.8368  0.1065  0.7974
13216TIP3   OH261062   4.930   4.598   0.939 -0.0149 -0.1505  0.1793
13216TIP3    H161063   4.988   4.612   0.865  1.3077 -0.8562  1.0490
13216TIP3    H261064   4.966   4.651   1.010 -1.2927  0.5614  0.3409
13217TIP3   OH261065   0.165   1.429  12.593 -0.2161  0.7289  0.3158
13217TIP3    H161066   0.168   1.339  12.625  1.1595  0.6918  0.1689
13217TIP3    H261067   0.210   1.480  12.661 -0.6679  1.2427  0.2332
13218TIP3   OH261068   6.435   5.088   5.101 -0.0300  0.3965 -0.6574
13218TIP3    H161069   6.392   5.004   5.120  0.0244  0.2445 -1.1775
13218TIP3    H261070   6.426   5.139   5.181  0.5151 -0.3527 -0.1103
13219TIP3   OH261071   0.870   5.405  11.413  0.0589 -0.3421  0.2639
13219TIP3    H161072   0.854   5.436  11.502 -0.5124 -2.1469  0.8371
13219TIP3    H261073   0.947   5.349  11.421  0.2627 -0.1744 -0.4630
13220TIP3   OH261074   2.241   0.490  13.472 -0.3893  0.1718 -0.4957
13220TIP3    H161075   2.234   0.510  13.565  0.7684 -1.2461 -0.0699
13220TIP3    H261076   2.333   0.507  13.450 -0.4666 -0.2433 -1.1880
13221TIP3   OH261077   4.529   1.993   1.537 -0.5442  0.0252  0.5301
13221TIP3    H161078   4.554   2.025   1.624  0.5246  0.2223  0.1591
13221TIP3    H261079   4.500   1.903   1.553 -1.9653  0.5904  1.3270
13222TIP3   OH261080   5.376   3.540  13.059 -0.3734  0.0418 -0.0734
13222TIP3    H161081   5.434   3.560  12.986 -0.6400  1.2466  0.0158
13222TIP3    H261082   5.389   3.613  13.120 -2.1945  0.5154 -0.1996
13223TIP3   OH261083   0.150   4.248   0.568 -0.2774  0.3478  0.0572
13223TIP3    H161084   0.057   4.272   0.574 -0.3636 -0.2043  1.3408
13223TIP3    H261085   0.149   4.155   0.545 -0.1450 -0.2829  2.3091
13224TIP3   OH261086   5.042   4.475  14.409  0.8915 -0.0160 -0.2781
13224TIP3    H161087   5.117   4.450  14.355  1.7187 -0.8303  1.2113
13224TIP3    H261088   5.078   4.493  14.495 -0.7766 -1.6620  0.8358
13225TIP3   OH261089   6.641   5.972   2.817 -0.0665  0.1577  0.2508
13225TIP3    H161090   6.702   5.902   2.797  0.1206  0.7864 -1.4943
13225TIP3    H261091   6.663   6.042   2.756 -2.6359  0.3385 -0.5876
13226TIP3   OH261092   2.436   4.066  11.332  0.3432 -0.4132 -0.2524
13226TIP3    H161093   2.508   4.026  11.283 -0.7615 -2.1855 -0.5272
13226TIP3    H261094   2.424   4.152  11.292  0.8123 -1.0022 -1.7215
13227TIP3   OH261095   3.791   3.988  14.551  0.2295 -0.4256  0.2919
13227TIP3    H161096   3.806   3.947  14.636 -0.2318 -1.1712  0.0177
13227TIP3    H261097   3.841   4.070  14.555 -0.1981 -0.2050  1.4635
13228TIP3   OH261098   1.304   4.055   6.717  0.7304  0.5155  0.8197
13228TIP3    H161099   1.241   4.068   6.788 -0.0104 -0.1761  0.3125
13228TIP3    H261100   1.325   3.962   6.721  0.6255  0.4587  0.0890
13229TIP3   OH261101   3.257   1.373  13.828 -0.0164 -0.0983  0.0525
13229TIP3    H161102   3.164   1.350  13.832  0.1325 -0.8395 -0.5746
13229TIP3    H261103   3.297   1.301  13.779  1.2241 -0.8555  2.0735
13230TIP3   OH261104   0.119   3.054   0.359  0.1396  0.0001  0.5299
13230TIP3    H161105   0.048   3.018   0.411 -0.8219  1.6868  0.4711
13230TIP3    H261106   0.199   3.030   0.406 -0.4805 -1.6108  0.7887
13231TIP3   OH261107   2.209   0.800  13.531 -0.4454 -0.7272  0.6745
13231TIP3    H161108   2.171   0.761  13.609 -0.5897  3.2482  2.8487
13231TIP3    H261109   2.135   0.814  13.472 -1.5474  1.7627  2.4971
13232TIP3   OH261110   2.577   3.641   5.064  0.0381  0.1791  0.2461
13232TIP3    H161111   2.545   3.599   5.143  0.6932 -2.0592 -0.5974
13232TIP3    H261112   2.501   3.688   5.029 -1.1116 -1.3320  0.6168
13233TIP3   OH261113   3.440   0.904   2.840  0.1798 -0.3627 -0.4859
13233TIP3    H161114   3.455   0.931   2.931  0.6253  0.5106 -0.8008
13233TIP3    H261115   3.348   0.922   2.824  0.1602 -0.2816 -0.2787
13234TIP3   OH261116   6.532   3.659   0.748 -0.3316  0.5798 -0.2387
13234TIP3    H161117   6.444   3.623   0.742  0.8526 -2.3371 -3.1995
13234TIP3    H261118   6.553   3.654   0.841 -3.1495  1.2194  0.5302
13235TIP3   OH261119   2.363   1.740  12.690  0.0663  0.3866 -0.1338
13235TIP3    H161120   2.329   1.652  12.672 -3.1691  0.2880  4.5547
13235TIP3    H261121   2.457   1.727  12.703 -0.3113 -2.4772  0.5059
13236TIP3   OH261122   3.117   0.735  15.979 -0.3649 -0.0137 -0.8145
13236TIP3    H161123   3.099   0.808  16.037  1.8107  0.2798 -0.4227
13236TIP3    H261124   3.173   0.772  15.910 -1.2642 -0.7845 -2.0016
13237TIP3   OH261125   2.690   5.460   5.170  0.2457 -0.4207  0.2491
13237TIP3    H161126   2.663   5.551   5.166 -1.4281 -0.9330 -0.8204
13237TIP3    H261127   2.778   5.459   5.132  0.5198  0.8080  0.8037
13238TIP3   OH261128   6.059   6.193  15.649 -0.3923 -0.3801  0.2552
13238TIP3    H161129   6.076   6.099  15.650  0.4082 -0.2617 -0.5618
13238TIP3    H261130   6.093   6.222  15.564 -0.0111  0.7568  0.7777
13239TIP3   OH261131   5.238   4.977   3.006 -0.2521  0.0121 -0.0046
13239TIP3    H161132   5.247   4.952   3.098 -2.3983 -0.3810  0.1601
13239TIP3    H261133   5.211   4.896   2.962  2.0465 -0.1442 -1.2740
13240TIP3   OH261134   2.811   0.932  11.039  0.3926  0.3582 -0.0364
13240TIP3    H161135   2.864   0.911  10.962  1.3433 -1.6716  1.0811
13240TIP3    H261136   2.796   0.847  11.081  0.7088  1.4775  2.5268
13241TIP3   OH261137   3.228   1.374   5.079 -0.2944 -0.3771  0.5426
13241TIP3    H161138   3.133   1.369   5.068 -0.2074 -2.0092  0.2009
13241TIP3    H261139   3.255   1.283   5.088  1.3862 -0.0520 -0.7404
13242TIP3   OH261140   5.240   4.138  13.875  0.9962 -0.5942 -0.3430
13242TIP3    H161141   5.276   4.082  13.944  1.3267  0.0015 -0.0254
13242TIP3    H261142   5.316   4.164  13.823  0.7357 -1.1382 -1.0166
13243TIP3   OH261143   6.624   4.723   2.537 -0.0695 -0.4786  0.5107
13243TIP3    H161144   6.611   4.629   2.546 -3.4959 -0.1096  0.7976
13243TIP3    H261145   6.690   4.744   2.603  1.4259 -2.7507 -0.1657
13244TIP3   OH261146   2.996   2.200  16.720  0.6728 -0.5666  0.0627
13244TIP3    H161147   2.930   2.149  16.674  0.7866 -0.2758 -0.4364
13244TIP3    H261148   3.063   2.137  16.745  0.6361 -0.7223 -0.2276
13245TIP3   OH261149   1.629   2.995   1.949  0.3072 -0.0239 -0.4128
13245TIP3    H161150   1.622   2.984   1.854  0.5575 -0.2713 -0.4023
13245TIP3    H261151   1.663   2.912   1.980  1.1572  0.3946 -0.2122
13246TIP3   OH261152   4.732   3.977  14.345 -0.5351  0.0885 -0.1012
13246TIP3    H161153   4.818   3.951  14.376 -0.9343 -0.4802  0.5478
13246TIP3    H261154   4.670   3.932  14.402 -1.2693  0.5197 -0.5268
13247TIP3   OH261155   2.638   2.890  15.799 -0.3594 -0.0921  0.1502
13247TIP3    H161156   2.720   2.879  15.847  1.6357  2.3236 -2.3639
13247TIP3    H261157   2.629   2.810  15.747  2.1968  0.7387 -1.8101
13248TIP3   OH261158   3.304   4.629   5.336 -0.7632  0.2585  0.0827
13248TIP3    H161159   3.220   4.650   5.296 -1.4072 -0.1386  1.1953
13248TIP3    H261160   3.368   4.679   5.285 -1.3697 -1.1812 -2.2438
13249TIP3   OH261161   4.118   6.241   4.502 -0.3599 -0.1664 -0.2489
13249TIP3    H161162   4.153   6.184   4.434 -0.9073  0.5967 -1.2017
13249TIP3    H261163   4.140   6.197   4.584 -0.2546 -1.4379 -0.9304
13250TIP3   OH261164   5.523   1.730  13.986 -0.3285  0.2072 -0.2107
13250TIP3    H161165   5.496   1.762  13.900 -0.4749 -1.8350 -0.9660
13250TIP3    H261166   5.444   1.735  14.039 -0.0352  2.2924  0.1134
13251TIP3   OH261167   6.098   1.456   0.710  0.3017  1.0761  0.2329
13251TIP3    H161168   6.143   1.540   0.706  2.6844  0.0741  2.7989
13251TIP3    H261169   6.168   1.391   0.712 -1.3965 -0.8391  0.5916
13252TIP3   OH261170   0.546   3.778  11.164 -0.3067 -0.3789  0.7712
13252TIP3    H161171   0.631   3.823  11.162  1.0650 -2.5411  3.4085
13252TIP3    H261172   0.561   3.698  11.113 -0.9852 -0.4677  0.7045
13253TIP3   OH261173   0.150   3.303   1.781  0.1704 -0.0394  0.0487
13253TIP3    H161174   0.163   3.342   1.868  0.0653  1.5868 -0.6442
13253TIP3    H261175   0.058   3.317   1.762 -0.4043 -2.4975  0.6222
13254TIP3   OH261176   2.993   1.944  17.034  0.5174  0.6198 -0.3352
13254TIP3    H161177   3.054   1.996  16.982  2.3172  1.0715  2.0543
13254TIP3    H261178   2.953   1.884  16.971  1.5259  2.0277 -2.4382
13255TIP3   OH261179   2.763   3.894  12.887  0.1465  0.2778 -0.7295
13255TIP3    H161180   2.765   3.799  12.897  0.8871  0.1612 -1.8053
13255TIP3    H261181   2.701   3.924  12.954  1.8269 -0.7058  1.3955
13256TIP3   OH261182   6.198   5.746   4.721 -0.0645  0.1072 -0.2793
13256TIP3    H161183   6.222   5.689   4.795 -1.5408 -0.3334 -0.1053
13256TIP3    H261184   6.272   5.739   4.660 -0.8106 -3.2225 -0.9702
13257TIP3   OH261185   6.339   2.821   2.137  0.3165 -0.1252 -0.0532
13257TIP3    H161186   6.357   2.872   2.216 -1.1657  0.7815 -0.2542
13257TIP3    H261187   6.288   2.746   2.168 -0.8080  0.5589 -0.1904
13258TIP3   OH261188   1.231   4.523   1.104 -0.0665 -0.7093  0.4144
13258TIP3    H161189   1.312   4.480   1.077 -0.6074 -1.1491 -0.5470
13258TIP3    H261190   1.162   4.459   1.088 -0.3969 -1.3792  3.7316
13259TIP3   OH261191   4.082   6.104  12.065  0.1076 -0.5138  0.0013
13259TIP3    H161192   4.120   6.111  12.152 -2.2788 -0.6885  1.1325
13259TIP3    H261193   4.041   6.189  12.049  2.0820  0.1999 -1.8271
13260TIP3   OH261194   3.352   2.177  10.195 -0.4817  0.5469  0.1928
13260TIP3    H161195   3.273   2.144  10.153  0.6459  0.5444 -2.1323
13260TIP3    H261196   3.414   2.104  10.189  0.0165  0.8915  1.0063
13261TIP3   OH261197   5.620   1.694  14.926  0.3094 -0.5612  0.3592
13261TIP3    H161198   5.549   1.754  14.904  0.2616 -0.4065  0.9240
13261TIP3    H261199   5.624   1.633  14.852  0.8743  0.5968 -0.6010
13262TIP3   OH261200   1.712   1.249   3.241  0.4395  0.5701  0.1174
13262TIP3    H161201   1.701   1.155   3.229 -1.0046  1.0507 -4.0721
13262TIP3    H261202   1.635   1.276   3.292  0.4212 -0.4177  0.6175
13263TIP3   OH261203   3.505   6.194  12.333 -0.0149  0.6572  0.2848
13263TIP3    H161204   3.570   6.175  12.401  1.1070  1.5692 -0.4916
13263TIP3    H261205   3.481   6.286  12.349 -0.8147  0.4482  0.3051
13264TIP3   OH261206   0.935   6.605   0.289  0.3495 -0.2371 -0.6175
13264TIP3    H161207   0.929   6.701   0.293  0.7694 -0.2313  0.0427
13264TIP3    H261208   0.891   6.575   0.368 -0.8123 -0.6453 -1.4050
13265TIP3   OH261209   4.040   3.542   4.670  0.3406 -0.0362 -0.2269
13265TIP3    H161210   3.996   3.471   4.716  0.8988  0.3557  0.9384
13265TIP3    H261211   4.119   3.502   4.634  0.7034  0.0183  0.5105
13266TIP3   OH261212   3.588   6.629  17.280 -0.2578 -0.7270 -0.1642
13266TIP3    H161213   3.529   6.657  17.350 -0.9387 -0.8074 -0.6924
13266TIP3    H261214   3.667   6.683  17.291 -0.7114 -0.1093  0.1164
13267TIP3   OH261215   0.506   5.775   4.319  0.0514 -0.4362 -0.1286
13267TIP3    H161216   0.589   5.734   4.294  0.0496  0.1029 -1.0588
13267TIP3    H261217   0.469   5.808   4.237 -0.2507  0.8741  0.5063
13268TIP3   OH261218   4.984   5.751  16.963  0.3915 -0.2318  0.1954
13268TIP3    H161219   4.920   5.715  17.026 -1.3723 -0.6818 -1.7402
13268TIP3    H261220   5.007   5.676  16.908  1.2987  0.3327 -0.2066
13269TIP3   OH261221   6.084   1.868  13.865  0.7497  0.0793  0.0419
13269TIP3    H161222   6.053   1.847  13.777 -2.2388 -0.7757  1.1652
13269TIP3    H261223   6.039   1.950  13.887 -1.0073 -1.2657  1.7919
13270TIP3   OH261224   2.047   5.301   3.492 -0.2708 -0.0202  0.3976
13270TIP3    H161225   2.130   5.323   3.449  1.1359 -2.3641  1.7205
13270TIP3    H261226   2.051   5.345   3.576  1.0135 -2.3141  1.6363
13271TIP3   OH261227   1.413   3.547  15.830 -0.2276 -0.0141  0.2778
13271TIP3    H161228   1.462   3.615  15.876 -0.8673  0.3911  0.3661
13271TIP3    H261229   1.421   3.470  15.885 -1.2544  0.5483  1.2387
13272TIP3   OH261230   2.290   2.946   1.605 -0.3147 -0.4127 -0.4922
13272TIP3    H161231   2.237   2.990   1.672  0.4005 -0.9824  0.4667
13272TIP3    H261232   2.263   2.855   1.609  2.4649 -1.2543  1.8268
13273TIP3   OH261233   5.268   6.240   0.038  0.2506  0.8376  0.0517
13273TIP3    H161234   5.303   6.164  -0.009 -0.4903  0.7077 -0.2933
13273TIP3    H261235   5.206   6.280  -0.023 -0.4870  0.8525  0.8006
13274TIP3   OH261236   1.697   2.123   4.167 -0.3145 -0.9692  0.5512
13274TIP3    H161237   1.636   2.197   4.170 -0.6875 -1.2298 -0.4026
13274TIP3    H261238   1.654   2.058   4.113  0.6317 -1.3328  0.2135
13275TIP3   OH261239   6.401   4.346   6.139 -0.2816 -0.0553 -0.1524
13275TIP3    H161240   6.348   4.408   6.090 -2.5145 -1.2881  0.5837
13275TIP3    H261241   6.461   4.401   6.189 -1.3313  1.4423 -0.4557
13276TIP3   OH261242   1.933   1.866  12.807 -0.2577 -0.2460 -0.6401
13276TIP3    H161243   1.969   1.888  12.893 -3.1753  1.9286  0.1713
13276TIP3    H261244   1.951   1.942  12.753 -0.6487 -0.5496 -1.2063
13277TIP3   OH261245   2.653   1.637  16.563  0.0559 -0.1865  0.5626
13277TIP3    H161246   2.592   1.564  16.572 -0.6377  0.3405  0.2957
13277TIP3    H261247   2.598   1.711  16.536  0.8167  0.3072  0.3179
13278TIP3   OH261248   5.656   1.950  15.943 -0.2094 -0.0605 -0.4761
13278TIP3    H161249   5.580   1.922  15.892 -0.4001  0.5776 -0.5603
13278TIP3    H261250   5.665   2.043  15.923  0.6480 -0.1478 -0.5280
13279TIP3   OH261251   0.312   1.439  11.218 -0.5692  0.1649  0.5020
13279TIP3    H161252   0.265   1.416  11.138 -0.4531 -3.2699  1.2818
13279TIP3    H261253   0.404   1.430  11.195 -0.4426  1.2659  0.5112
13280TIP3   OH261254   2.442   6.596  12.843 -0.2116 -0.0678 -0.0280
13280TIP3    H161255   2.354   6.602  12.807  0.0699  0.6230 -0.6196
13280TIP3    H261256   2.487   6.674  12.811  0.3346  0.0784  1.0471
13281TIP3   OH261257   3.666   6.182  14.701 -0.2375  0.4612  0.1616
13281TIP3    H161258   3.638   6.234  14.625  0.9705  0.5526 -0.2428
13281TIP3    H261259   3.761   6.193  14.703 -0.1580 -0.3392  1.1131
13282TIP3   OH261260   3.285   6.426   0.037 -0.2305  0.3651 -0.0804
13282TIP3    H161261   3.339   6.417   0.115  1.0456  0.0926 -0.9580
13282TIP3    H261262   3.348   6.427  -0.036 -1.1685  2.7858 -0.9883
13283TIP3   OH261263   2.719   5.277   3.094 -0.2290 -0.2206 -0.1451
13283TIP3    H161264   2.624   5.269   3.101 -0.1820 -1.3181 -0.5622
13283TIP3    H261265   2.738   5.254   3.003  0.4162  0.1783 -0.1138
13284TIP3   OH261266   0.199   2.178  16.179 -0.1840  0.1049  0.5970
13284TIP3    H161267   0.240   2.261  16.158  0.3575 -0.3164 -0.0549
13284TIP3    H261268   0.208   2.125  16.099  0.8065 -1.0991  1.4554
13285TIP3   OH261269   4.366   4.818  10.796 -0.1604  0.4161 -0.6169
13285TIP3    H161270   4.433   4.782  10.854  0.1183  3.2445  0.9895
13285TIP3    H261271   4.411   4.830  10.712  0.3804 -0.6881 -0.5008
13286TIP3   OH261272   2.180   4.921   2.903 -0.0422 -0.1649  0.4778
13286TIP3    H161273   2.274   4.913   2.920  0.1576 -1.2394 -0.9095
13286TIP3    H261274   2.145   4.835   2.928 -0.7191  0.3228  1.2484
13287TIP3   OH261275   3.184   0.398   5.181 -0.2799 -0.0675  0.1892
13287TIP3    H161276   3.221   0.467   5.236  0.8684 -1.1111  0.7730
13287TIP3    H261277   3.092   0.424   5.168 -0.0694  1.1676  1.0112
13288TIP3   OH261278   3.366   1.434  10.536  0.9825 -0.4747 -0.6738
13288TIP3    H161279   3.368   1.345  10.500 -0.7082 -0.4311 -0.9311
13288TIP3    H261280   3.435   1.480  10.488  1.4449 -1.4762 -0.9957
13289TIP3   OH261281   2.824   6.510   0.801 -0.0719  0.4364  0.5402
13289TIP3    H161282   2.766   6.523   0.875  1.1238  2.7546  1.1988
13289TIP3    H261283   2.831   6.415   0.791 -0.5394  0.0524  3.1818
13290TIP3   OH261284   5.109   2.934   2.887  0.3553  0.0426  0.0408
13290TIP3    H161285   5.064   2.862   2.930  1.0585  0.9084  2.3974
13290TIP3    H261286   5.045   3.005   2.886 -0.0280 -0.2845 -1.4394
13291TIP3   OH261287   4.260   0.059  16.619 -0.0042 -0.4608 -0.5312
13291TIP3    H161288   4.330   0.045  16.556 -0.3311  0.8760 -1.2114
13291TIP3    H261289   4.221  -0.028  16.631 -0.6305 -0.5690 -2.9837
13292TIP3   OH261290   4.078   0.844   3.430 -0.3655 -0.6926  0.4473
13292TIP3    H161291   3.986   0.867   3.419 -0.2805 -1.2530 -1.8161
13292TIP3    H261292   4.122   0.927   3.447 -1.2866 -0.4600  1.8741
13293TIP3   OH261293   3.946   3.743  15.631  0.1789 -0.2197  0.2828
13293TIP3    H161294   3.955   3.745  15.726  0.8880 -3.0681  0.3796
13293TIP3    H261295   3.860   3.704  15.616  0.2942 -0.2858 -0.2356
13294TIP3   OH261296   3.778   0.874   3.673  0.6044 -0.2476  0.2267
13294TIP3    H161297   3.851   0.822   3.705  1.4830  1.7541  1.6542
13294TIP3    H261298   3.816   0.929   3.604 -0.5263 -2.0735 -1.9886
13295TIP3   OH261299   0.719   3.334   3.050  0.8211 -0.3034  0.3242
13295TIP3    H161300   0.718   3.396   3.123 -0.6542  0.2194 -0.1157
13295TIP3    H261301   0.668   3.259   3.082 -0.2001  0.1101 -0.3172
13296TIP3   OH261302   6.211   3.531  16.337 -0.3385  0.0390 -0.2249
13296TIP3    H161303   6.196   3.606  16.280  1.5035  0.8445  0.2594
13296TIP3    H261304   6.226   3.457  16.278  1.1123  0.7707 -0.8135
13297TIP3   OH261305   5.643   0.392   1.334  0.4721  0.1499 -0.0418
13297TIP3    H161306   5.611   0.475   1.369  3.4174  0.8309  1.3741
13297TIP3    H261307   5.633   0.331   1.407  0.4473 -0.1396 -0.2872
13298TIP3   OH261308   4.550   3.481   3.652 -0.1431 -0.1413 -0.0511
13298TIP3    H161309   4.614   3.411   3.649  0.0127 -0.0912  1.4636
13298TIP3    H261310   4.505   3.470   3.736 -2.0470 -0.1049 -1.0073
13299TIP3   OH261311   6.155   2.413   5.591 -0.6117 -0.2675  0.2005
13299TIP3    H161312   6.184   2.339   5.538 -1.4526 -1.4348  1.3138
13299TIP3    H261313   6.181   2.490   5.540 -0.4973 -1.3159 -1.4157
13300TIP3   OH261314   6.773   3.126  10.800  0.6798  0.4470  0.1665
13300TIP3    H161315   6.759   3.208  10.753 -1.6407 -1.1026 -2.1724
13300TIP3    H261316   6.699   3.120  10.861  1.2649  0.4199  0.8919
13301TIP3   OH261317   2.698   0.095  16.696 -0.1529 -0.2699  0.2543
13301TIP3    H161318   2.741   0.010  16.694 -0.6735 -0.5479  0.6445
13301TIP3    H261319   2.753   0.151  16.642  0.3480 -0.7807  0.2269
13302TIP3   OH261320   5.933   5.228   3.200 -0.3871 -0.2983 -0.2601
13302TIP3    H161321   6.026   5.252   3.201 -0.7810  1.4523 -1.0019
13302TIP3    H261322   5.896   5.280   3.129 -2.1209 -0.1783  0.6727
13303TIP3   OH261323   3.205   5.848  15.647 -0.4056 -0.2138 -0.4546
13303TIP3    H161324   3.245   5.801  15.720 -2.3450  0.4306  1.1210
13303TIP3    H261325   3.148   5.913  15.688 -2.9368 -0.9761 -2.4666
13304TIP3   OH261326   1.859   4.432   5.581  0.2631  0.3736  0.0978
13304TIP3    H161327   1.831   4.358   5.526 -2.4963  1.3691 -0.0142
13304TIP3    H261328   1.897   4.391   5.658  2.2675 -1.0815 -1.5373
13305TIP3   OH261329   6.363   1.618  16.950 -0.4112 -0.1143 -0.1303
13305TIP3    H161330   6.333   1.707  16.972  0.4720  0.6062 -1.6185
13305TIP3    H261331   6.384   1.623  16.856  0.2573 -1.7360 -0.0993
13306TIP3   OH261332   0.100   1.906  15.037  0.3410 -0.3528 -0.5644
13306TIP3    H161333   0.062   1.968  15.100 -0.3552  1.9595 -3.0449
13306TIP3    H261334   0.195   1.921  15.045  0.2937 -0.3730  0.1721
13307TIP3   OH261335   0.285   1.130  15.632  0.2451  0.0556 -0.3000
13307TIP3    H161336   0.211   1.144  15.690 -0.1633  0.7334 -0.9749
13307TIP3    H261337   0.266   1.046  15.590 -0.1868  0.2696 -0.5378
13308TIP3   OH261338   4.973   6.606   1.720  0.1049 -0.0232 -0.1048
13308TIP3    H161339   4.928   6.623   1.637  2.3233  1.7543 -1.0532
13308TIP3    H261340   4.962   6.687   1.770  0.4720 -0.3392  0.4971
13309TIP3   OH261341   2.323   2.543   5.811 -0.3780 -0.3102  0.3297
13309TIP3    H161342   2.385   2.616   5.821  0.0295 -0.7757  1.3553
13309TIP3    H261343   2.240   2.586   5.791  0.1987  0.3399 -0.7803
13310TIP3   OH261344   5.167   2.349  10.710  0.4827 -0.3720  0.2094
13310TIP3    H161345   5.161   2.430  10.660  1.9031  0.1473  0.8044
13310TIP3    H261346   5.107   2.289  10.667 -1.0694  1.1677  0.1055
13311TIP3   OH261347   4.540   0.927  16.970 -0.9021 -0.7195  0.2512
13311TIP3    H161348   4.463   0.871  16.966 -0.7482 -0.8739 -0.9435
13311TIP3    H261349   4.571   0.932  16.880 -0.1497  0.2336  0.5449
13312TIP3   OH261350   3.069   5.158  17.164 -0.1511 -0.3051 -0.5025
13312TIP3    H161351   3.069   5.126  17.254 -1.7546 -0.4191 -0.5148
13312TIP3    H261352   3.127   5.235  17.166 -0.3313 -0.1830  0.6670
13313TIP3   OH261353   1.594   2.082  15.319 -0.3514 -0.0912 -0.0046
13313TIP3    H161354   1.637   2.002  15.288 -0.5439 -0.0816 -0.3024
13313TIP3    H261355   1.609   2.145  15.249  2.0811  0.9498  1.3393
13314TIP3   OH261356   5.467   3.374  14.928  0.3930 -0.2862 -0.2693
13314TIP3    H161357   5.381   3.357  14.890  1.1414 -2.7167 -1.0993
13314TIP3    H261358   5.528   3.364  14.855  1.7196 -3.1750  1.0729
13315TIP3   OH261359   5.362   3.496   3.903 -0.2422 -0.7961  0.0307
13315TIP3    H161360   5.375   3.585   3.937  0.0473 -0.1777 -1.6204
13315TIP3    H261361   5.301   3.506   3.830  0.2830 -1.8497 -0.5847
13316TIP3   OH261362   0.665   5.361  16.071  0.2526 -1.1048 -0.2087
13316TIP3    H161363   0.687   5.410  16.150 -0.3565 -1.1772  0.0110
13316TIP3    H261364   0.735   5.382  16.009  0.0472 -0.0156 -0.0966
13317TIP3   OH261365   0.580   6.444  11.085  0.0500  0.3994  0.0813
13317TIP3    H161366   0.643   6.474  11.151  0.4048  0.9008 -0.4769
13317TIP3    H261367   0.570   6.351  11.102  1.4041  0.1809 -0.1950
13318TIP3   OH261368   2.711   5.605   0.609 -0.2598  0.1136 -0.4533
13318TIP3    H161369   2.754   5.677   0.655 -0.0440  0.1526 -0.7103
13318TIP3    H261370   2.676   5.550   0.679  0.7348 -0.2368 -0.2046
13319TIP3   OH261371   1.543   2.233   3.670 -0.2346 -0.5468  0.0765
13319TIP3    H161372   1.564   2.272   3.754 -1.3537 -1.1366  0.6610
13319TIP3    H261373   1.566   2.140   3.680  0.9598 -0.3605 -0.7672
13320TIP3   OH261374   1.595   6.097   2.528  0.0585 -0.4037 -0.3025
13320TIP3    H161375   1.542   6.017   2.538  0.6226 -1.0082 -1.8539
13320TIP3    H261376   1.550   6.162   2.582 -1.4595 -1.2874 -0.4331
13321TIP3   OH261377   0.776   3.957  15.125  0.0974 -0.5413 -0.4616
13321TIP3    H161378   0.726   4.004  15.191 -1.7710  0.1493 -2.2596
13321TIP3    H261379   0.757   3.864  15.143 -1.0174 -0.3295 -0.4851
13322TIP3   OH261380   0.979   2.403  12.991  0.1149 -0.7993  0.0679
13322TIP3    H161381   0.988   2.314  12.957  0.1040 -0.7950  0.0539
13322TIP3    H261382   0.885   2.413  13.008  0.3074 -1.3274  1.5437
13323TIP3   OH261383   5.438   4.236   1.747 -0.2637 -0.0674  0.8429
13323TIP3    H161384   5.366   4.178   1.772  0.1428 -0.4300  1.1718
13323TIP3    H261385   5.394   4.313   1.710 -0.8068 -1.4050 -1.5170
13324TIP3   OH261386   5.346   3.088   2.100 -0.6938  0.2000  0.6241
13324TIP3    H161387   5.330   3.131   2.016 -1.1336 -0.7983  0.1776
13324TIP3    H261388   5.341   3.158   2.165  0.6920  1.1616 -0.2759
13325TIP3   OH261389   3.858   0.259  14.690 -0.3375 -0.0864  0.1765
13325TIP3    H161390   3.853   0.164  14.705 -0.5379 -0.2325 -0.7547
13325TIP3    H261391   3.951   0.277  14.675 -0.4876 -0.4199 -1.3091
13326TIP3   OH261392   0.443   3.917  12.427  0.3887 -0.2862  0.0808
13326TIP3    H161393   0.420   3.856  12.357  1.1536 -0.8161  0.2781
13326TIP3    H261394   0.397   3.998  12.405  0.5774 -0.4650 -0.9905
13327TIP3   OH261395   1.752   4.122   6.276  0.2519  0.1716 -0.2604
13327TIP3    H161396   1.839   4.083   6.267 -0.0640 -0.8037  0.6149
13327TIP3    H261397   1.767   4.216   6.272  1.2038 -0.0069 -1.2150
13328TIP3   OH261398   4.213   1.043   5.453  0.1956 -0.5969  0.1358
13328TIP3    H161399   4.303   1.073   5.467 -0.3090 -0.1535  3.0142
13328TIP3    H261400   4.158   1.110   5.494 -1.3824 -1.6546 -0.1544
13329TIP3   OH261401   5.262   4.269  16.177  0.0338 -0.3598 -0.2291
13329TIP3    H161402   5.270   4.358  16.212 -0.2652 -0.1260 -0.7486
13329TIP3    H261403   5.346   4.251  16.135 -0.3893  0.2218 -1.3638
13330TIP3   OH261404   2.986   5.087   2.939  0.0340 -0.9066 -0.1924
13330TIP3    H161405   2.996   5.068   2.846  2.7612 -2.5133  0.3380
13330TIP3    H261406   3.055   5.151   2.958 -1.6510  0.8486  0.4480
13331TIP3   OH261407   1.036   3.286  11.900 -0.0167  0.2543 -0.4405
13331TIP3    H161408   0.968   3.232  11.860  1.1540 -0.4353 -1.6001
13331TIP3    H261409   1.109   3.283  11.837  1.8401 -0.6974  1.6284
13332TIP3   OH261410   5.207   2.574   4.381 -0.7080  0.3389 -0.0264
13332TIP3    H161411   5.290   2.528   4.396 -0.2278  0.8023 -1.1401
13332TIP3    H261412   5.150   2.544   4.451  0.1425 -0.6315  0.2756
13333TIP3   OH261413   6.026   2.639  11.923 -0.2202  0.4970  0.1755
13333TIP3    H161414   6.060   2.596  12.002  0.7553  0.9326  0.0182
13333TIP3    H261415   6.018   2.569  11.859  0.0204  0.3161  0.3390
13334TIP3   OH261416   1.452   0.419  15.600  0.2037 -0.5536 -0.1458
13334TIP3    H161417   1.405   0.433  15.518  0.2893 -0.8865 -0.2549
13334TIP3    H261418   1.536   0.383  15.574 -0.3910 -2.2763  0.1397
13335TIP3   OH261419   3.714   5.893  17.098 -0.0969 -0.9616 -0.1617
13335TIP3    H161420   3.647   5.924  17.038  1.1255  2.7418  0.1106
13335TIP3    H261421   3.669   5.881  17.181 -0.8983 -1.3980 -0.6452
13336TIP3   OH261422   6.401   2.224   4.275  0.1358  0.7164 -0.2097
13336TIP3    H161423   6.423   2.210   4.367  0.2307  0.7407 -0.2289
13336TIP3    H261424   6.307   2.208   4.271  0.0128  1.3528  0.0157
13337TIP3   OH261425   3.358   6.449   2.432  0.2816  0.0778  0.0409
13337TIP3    H161426   3.348   6.503   2.511 -0.0969 -0.3683  0.3070
13337TIP3    H261427   3.348   6.510   2.359 -0.3432  0.3424  0.3391
13338TIP3   OH261428   3.114   2.943  16.166  0.0481  0.1004  0.1967
13338TIP3    H161429   3.088   3.032  16.141  0.5680 -0.0075 -0.7857
13338TIP3    H261430   3.196   2.955  16.214 -0.4580  0.2317  1.0455
13339TIP3   OH261431   5.809   2.999  13.738 -0.2602 -0.0014  0.2175
13339TIP3    H161432   5.818   3.094  13.744  1.5328  0.1251 -2.8079
13339TIP3    H261433   5.775   2.983  13.650  1.6868 -2.2156 -0.2172
13340TIP3   OH261434   5.880   1.906  12.755  0.5134  0.0700 -0.5511
13340TIP3    H161435   5.851   1.991  12.789 -2.1830 -1.6660  2.0023
13340TIP3    H261436   5.958   1.885  12.806  0.3799  0.4244 -0.1949
13341TIP3   OH261437   1.926   3.940  14.591 -0.5724 -0.0868  0.0916
13341TIP3    H161438   1.870   3.973  14.662 -2.2399  0.2365 -1.2942
13341TIP3    H261439   1.937   4.015  14.533  0.2691 -0.5003 -0.2906
13342TIP3   OH261440   0.221   6.296   1.285 -0.1537  0.1096  0.0456
13342TIP3    H161441   0.230   6.209   1.246  1.4061  0.2916 -0.0322
13342TIP3    H261442   0.238   6.357   1.213 -0.5173  0.4841  0.2689
13343TIP3   OH261443   3.888   2.933   4.085  0.0106  0.4234  0.1193
13343TIP3    H161444   3.942   3.008   4.111  0.2333  0.5264 -0.6162
13343TIP3    H261445   3.896   2.929   3.990 -0.4028 -0.2328  0.1020
13344TIP3   OH261446   3.946   1.970  13.150 -0.0707  0.3276 -0.0451
13344TIP3    H161447   3.928   1.998  13.240  0.5225  1.8401 -0.3700
13344TIP3    H261448   3.860   1.959  13.111 -0.3301  0.0545  0.5822
13345TIP3   OH261449   6.111   1.767  16.184 -0.6128  0.2202 -0.4924
13345TIP3    H161450   6.116   1.843  16.241 -1.1713 -0.1711  0.0897
13345TIP3    H261451   6.022   1.770  16.148 -0.5131  0.0503 -0.7555
13346TIP3   OH261452   0.677   6.736   0.856 -0.3057  0.1519  0.0814
13346TIP3    H161453   0.705   6.797   0.925  0.5255  0.6332 -0.6681
13346TIP3    H261454   0.680   6.650   0.898  0.8778  0.3632  0.4620
13347TIP3   OH261455   3.736   3.422  16.023 -0.0112 -0.3671  0.1776
13347TIP3    H161456   3.758   3.431  15.931 -0.0853  1.3616  0.3025
13347TIP3    H261457   3.658   3.477  16.035  0.6135  0.2920  1.4657
13348TIP3   OH261458   2.987   1.591  12.787  0.2775 -0.7080 -0.4911
13348TIP3    H161459   3.047   1.553  12.722 -0.2910 -2.2875 -0.1482
13348TIP3    H261460   2.924   1.521  12.805 -0.9019  0.4632  0.1273
13349TIP3   OH261461   6.500   4.468   2.112  0.1117  0.3431  0.0554
13349TIP3    H161462   6.486   4.479   2.206 -0.8430 -1.1749  0.1177
13349TIP3    H261463   6.477   4.553   2.075 -0.3777  0.6856  1.1116
13350TIP3   OH261464   2.162   3.655   2.710 -0.3336  0.1959 -0.3474
13350TIP3    H161465   2.161   3.571   2.665 -2.2977  0.8727 -1.7170
13350TIP3    H261466   2.086   3.652   2.767  1.0180  0.1228  1.5344
13351TIP3   OH261467   5.110   0.835  17.103  0.3702 -0.1088 -0.4074
13351TIP3    H161468   5.070   0.751  17.126  0.8407 -0.1774  0.1921
13351TIP3    H261469   5.058   0.900  17.149 -0.1661 -0.0383 -1.0943
13352TIP3   OH261470   5.231   3.877   5.440 -0.1906 -0.0054 -0.1250
13352TIP3    H161471   5.142   3.856   5.470  0.0843 -0.6574  0.2422
13352TIP3    H261472   5.279   3.795   5.448  0.8200  0.6721  1.0092
13353TIP3   OH261473   1.886   4.061  12.614  0.5640  0.1014 -1.2992
13353TIP3    H161474   1.973   4.020  12.614  1.6076  2.0212  1.1163
13353TIP3    H261475   1.888   4.122  12.541  2.0309  1.4608 -0.1985
13354TIP3   OH261476   2.689   0.210   5.656  0.4011 -0.0609 -0.3054
13354TIP3    H161477   2.704   0.162   5.737 -0.7850  0.4835  0.2662
13354TIP3    H261478   2.687   0.143   5.588 -1.2820 -0.8594  0.4891
13355TIP3   OH261479   1.052   3.880   4.931  0.3367 -0.1236 -0.0141
13355TIP3    H161480   1.127   3.879   4.991  1.0152  0.9090 -0.8105
13355TIP3    H261481   1.085   3.923   4.852 -0.7898 -0.6601 -0.7978
13356TIP3   OH261482   0.242   1.894   5.781 -0.2442 -0.4534 -0.2281
13356TIP3    H161483   0.148   1.883   5.769 -0.3545 -0.5382  0.6682
13356TIP3    H261484   0.251   1.946   5.861  0.4545  0.2027 -0.7190
13357TIP3   OH261485   3.627   2.354  12.647  0.1967 -0.3046  0.4215
13357TIP3    H161486   3.644   2.426  12.707  1.0345  0.7176 -0.9971
13357TIP3    H261487   3.604   2.396  12.565 -2.2109 -1.6606  0.3031
13358TIP3   OH261488   4.051   4.230  13.667  0.2983  0.9304  0.2340
13358TIP3    H161489   4.124   4.287  13.691  1.1522 -0.3211  0.7245
13358TIP3    H261490   4.060   4.218  13.573  0.2422  1.4243  0.1639
13359TIP3   OH261491   5.171   0.476  11.379  0.5465 -0.4064 -0.8083
13359TIP3    H161492   5.232   0.414  11.418  0.8209  0.3052 -0.0859
13359TIP3    H261493   5.096   0.422  11.353  0.4064 -0.9374  0.5994
13360TIP3   OH261494   0.038   2.618  13.086 -0.4127 -0.3487  0.2608
13360TIP3    H161495  -0.026   2.589  13.151 -0.2018 -0.5959  0.3552
13360TIP3    H261496  -0.006   2.690  13.040 -0.9947 -0.9209 -0.0885
13361TIP3   OH261497   1.066   6.435   5.079 -0.4940 -1.1167 -0.5874
13361TIP3    H161498   0.977   6.458   5.106 -0.4716 -0.5675 -0.9627
13361TIP3    H261499   1.120   6.457   5.155 -0.4743  0.1040 -0.9432
13362TIP3   OH261500   5.479   3.758   6.535  0.0084 -0.1240 -0.2951
13362TIP3    H161501   5.427   3.684   6.505 -0.7059  0.1022  0.3502
13362TIP3    H261502   5.415   3.828   6.550  0.5969  0.4276 -0.2958
13363TIP3   OH261503   3.652   2.368  16.892  0.4189  0.4633  0.0417
13363TIP3    H161504   3.703   2.287  16.899 -0.2922 -0.1347 -1.2982
13363TIP3    H261505   3.653   2.390  16.799 -0.9582  0.9498  0.1112
13364TIP3   OH261506   2.140   2.563   3.163 -0.5809 -0.5239 -0.2428
13364TIP3    H161507   2.233   2.575   3.146 -0.5500 -0.7463 -0.2405
13364TIP3    H261508   2.134   2.476   3.203 -0.7551 -0.3822  0.0451
13365TIP3   OH261509   5.922   1.219  17.195 -0.5182 -0.0559  0.5383
13365TIP3    H161510   5.851   1.207  17.257 -0.6206 -1.2467  0.2125
13365TIP3    H261511   6.001   1.196  17.243 -0.2393  1.8586  1.0896
13366TIP3   OH261512   2.988   3.976  16.210 -0.2115  0.6910  0.0560
13366TIP3    H161513   3.040   4.041  16.163  1.6456 -0.3730  0.5097
13366TIP3    H261514   3.001   3.895  16.160 -1.2552  0.3372  0.3343
13367TIP3   OH261515   1.550   4.367  12.641 -0.6563  0.1341  0.4191
13367TIP3    H161516   1.520   4.441  12.588  2.6288 -0.0025 -1.9181
13367TIP3    H261517   1.604   4.406  12.709 -1.5321  0.0214  1.2053
13368TIP3   OH261518   0.101   0.615   2.727 -0.1158  0.4098 -0.1089
13368TIP3    H161519   0.036   0.586   2.791 -0.3652 -0.9464 -0.9273
13368TIP3    H261520   0.104   0.710   2.737  0.4446  0.2004  2.4540
13369TIP3   OH261521   4.586   4.132   1.858 -0.4813 -0.3204 -0.1058
13369TIP3    H161522   4.634   4.108   1.779  1.0873  0.0227  0.7040
13369TIP3    H261523   4.493   4.124   1.833 -0.1111  1.7053 -2.5915
13370TIP3   OH261524   4.680   0.671   3.471  0.0790 -0.5874  0.0129
13370TIP3    H161525   4.672   0.602   3.405 -1.9394  0.1529 -0.6049
13370TIP3    H261526   4.590   0.699   3.487  0.8387  2.7824 -0.7376
13371TIP3   OH261527   5.138   0.408   1.918  0.1214 -0.4522  0.1367
13371TIP3    H161528   5.233   0.405   1.903  0.2138 -0.3828  0.6807
13371TIP3    H261529   5.129   0.390   2.012 -0.3897 -0.1935  0.1351
13372TIP3   OH261530   0.511   4.014   2.837 -0.5861  0.0916  0.2682
13372TIP3    H161531   0.530   4.033   2.929  0.0418  1.2782 -0.0796
13372TIP3    H261532   0.555   3.931   2.820  0.7852  0.7216  0.6056
13373TIP3   OH261533   2.935   0.761   5.819 -0.2929 -0.4364  0.0501
13373TIP3    H161534   2.873   0.715   5.762  0.7571 -0.3090 -1.2299
13373TIP3    H261535   2.947   0.847   5.779  0.3718 -0.2976  0.5212
13374TIP3   OH261536   5.257   6.550  10.662  0.5745 -0.1040  0.2383
13374TIP3    H161537   5.343   6.558  10.620 -0.1217  1.5717 -1.0056
13374TIP3    H261538   5.201   6.513  10.594  0.1857 -0.7102  0.8817
13375TIP3   OH261539   3.348   5.267  15.351 -0.1845  0.7128  0.2271
13375TIP3    H161540   3.267   5.291  15.306 -0.7817 -0.5249  0.6152
13375TIP3    H261541   3.346   5.319  15.432 -0.2794  1.1424 -0.0449
13376TIP3   OH261542   6.051   3.178   0.838  0.1042 -0.1554 -0.1020
13376TIP3    H161543   6.071   3.249   0.900 -1.2389  1.3487 -1.2853
13376TIP3    H261544   6.136   3.145   0.811  0.7662 -1.2315  2.8386
13377TIP3   OH261545   0.678   3.528   3.721 -0.6293  0.2367  0.0419
13377TIP3    H161546   0.689   3.590   3.649 -1.4365  1.0281  0.5814
13377TIP3    H261547   0.766   3.493   3.735 -0.2964  0.7001 -0.7609
13378TIP3   OH261548   1.396   3.569   4.140 -0.5806 -0.3289 -0.2073
13378TIP3    H161549   1.321   3.628   4.148  0.4946  1.2265 -0.9109
13378TIP3    H261550   1.461   3.607   4.200 -0.0400 -1.1095 -0.2948
13379TIP3   OH261551   1.439   2.076   0.188  0.0332 -0.3779 -0.7772
13379TIP3    H161552   1.344   2.081   0.193  0.1133  0.5057  0.4532
13379TIP3    H261553   1.457   1.987   0.160 -1.1477 -0.6587 -0.7049
13380TIP3   OH261554   0.643   3.642   1.178  0.5455  0.1020 -0.4342
13380TIP3    H161555   0.673   3.556   1.207 -1.0266 -0.1153  0.6983
13380TIP3    H261556   0.704   3.703   1.219  0.1163 -0.3689  0.9666
13381TIP3   OH261557   1.196   0.933  15.233 -0.4980 -0.3744  0.2152
13381TIP3    H161558   1.148   0.990  15.293 -0.8236  0.1212 -0.4863
13381TIP3    H261559   1.131   0.910  15.166  0.0733 -0.1950 -0.4139
13382TIP3   OH261560   1.995   1.368  16.782  0.1495 -0.2957 -0.2712
13382TIP3    H161561   1.990   1.406  16.695 -0.2453 -0.6237 -0.3922
13382TIP3    H261562   2.041   1.284  16.769  0.7217 -0.0234 -0.0557
13383TIP3   OH261563   0.337   4.979   3.970  0.4745 -0.5094  0.3248
13383TIP3    H161564   0.292   4.905   4.012 -1.9378  1.8097  2.1677
13383TIP3    H261565   0.383   5.023   4.042  1.4441  0.1055 -0.6332
13384TIP3   OH261566   2.297   1.566   0.607  0.2440 -0.5222  0.4925
13384TIP3    H161567   2.345   1.485   0.588  2.9677  0.6729  1.8176
13384TIP3    H261568   2.319   1.624   0.534  1.3344  0.2206  1.3895
13385TIP3   OH261569   6.681   5.255   1.861  0.0537  0.0633  0.2635
13385TIP3    H161570   6.676   5.187   1.928 -2.1825 -0.0265  0.0586
13385TIP3    H261571   6.656   5.211   1.780 -3.2471  1.4074  0.4154
13386TIP3   OH261572   6.452   0.677   1.021  0.7005  0.6048 -0.7289
13386TIP3    H161573   6.461   0.601   0.964  0.1544 -1.2435  1.5094
13386TIP3    H261574   6.369   0.716   0.996 -0.5600 -1.3916  0.0714
13387TIP3   OH261575   2.664   3.609  14.529 -0.0163 -0.3977 -0.2029
13387TIP3    H161576   2.661   3.529  14.582  2.3912 -0.2524  0.2558
13387TIP3    H261577   2.652   3.579  14.439 -2.7516 -0.8026  0.1940
13388TIP3   OH261578   4.143   0.494   4.303  0.0297 -0.1851 -0.3798
13388TIP3    H161579   4.172   0.471   4.391 -0.7104 -0.5279 -0.2156
13388TIP3    H261580   4.088   0.420   4.276  0.3618 -0.1554 -1.1918
13389TIP3   OH261581   4.390   2.366   3.035  0.0060 -0.1793  0.3632
13389TIP3    H161582   4.453   2.434   3.011 -0.4862  0.0523 -0.3038
13389TIP3    H261583   4.423   2.287   2.991  0.2080 -0.2177  0.5828
13390TIP3   OH261584   6.010   4.848   0.669  0.0040  0.0410  0.0670
13390TIP3    H161585   5.993   4.903   0.746 -0.2213 -1.4146  1.0816
13390TIP3    H261586   5.945   4.877   0.605 -1.6633 -0.6076  1.4062
13391TIP3   OH261587   1.435   6.259   4.266  0.1321  0.5889  0.1410
13391TIP3    H161588   1.422   6.325   4.198 -1.3455 -0.3893 -0.5585
13391TIP3    H261589   1.518   6.217   4.243  0.7206  1.6819  0.1857
13392TIP3   OH261590   1.131   6.112  15.144  0.3343 -0.0539  0.4452
13392TIP3    H161591   1.198   6.053  15.111  0.4181  0.0292  0.4689
13392TIP3    H261592   1.084   6.060  15.209  0.6420  0.0219  0.7308
13393TIP3   OH261593   6.582   2.393  14.313 -0.1609 -0.4313 -0.3795
13393TIP3    H161594   6.649   2.376  14.379  1.0138  0.1768 -1.3770
13393TIP3    H261595   6.623   2.452  14.251 -1.7851  0.3297 -0.7935
13394TIP3   OH261596   5.036   6.032  14.611 -0.1029  0.2459  0.7232
13394TIP3    H161597   5.116   5.980  14.606  0.6652  1.4754 -0.8579
13394TIP3    H261598   5.012   6.031  14.703  1.1905 -0.9450  1.0793
13395TIP3   OH261599   0.038   0.329   1.622  0.4253 -0.1227 -0.2241
13395TIP3    H161600  -0.009   0.413   1.614 -1.2153 -1.0604 -1.0503
13395TIP3    H261601   0.126   0.353   1.649 -0.2572  1.8156  0.4759
13396TIP3   OH261602   2.705   6.201  16.191 -0.3673  0.0046 -0.5904
13396TIP3    H161603   2.715   6.265  16.261  2.0664 -0.5431 -0.3651
13396TIP3    H261604   2.719   6.117  16.233 -1.9432 -0.6009 -1.1927
13397TIP3   OH261605   3.370   5.940   5.780  0.0565  0.0516 -0.1112
13397TIP3    H161606   3.303   5.881   5.744  0.5630 -0.0273 -0.9621
13397TIP3    H261607   3.429   5.882   5.828 -0.6435  0.1599  0.8967
13398TIP3   OH261608   4.808   5.066   3.099  0.1422  0.0506 -0.1280
13398TIP3    H161609   4.724   5.031   3.129  1.2426 -2.3752  0.3467
13398TIP3    H261610   4.852   4.991   3.059  2.2113  1.1818 -0.0684
13399TIP3   OH261611   2.579   0.199   2.920  0.9696  0.3634 -0.1963
13399TIP3    H161612   2.533   0.152   2.850  0.3617  1.2193 -0.3801
13399TIP3    H261613   2.516   0.205   2.991  0.3903  2.4626 -0.8295
13400TIP3   OH261614   0.835   5.310  12.556 -0.0073 -0.3529 -0.4837
13400TIP3    H161615   0.758   5.336  12.607 -0.2202  1.9176 -1.8245
13400TIP3    H261616   0.907   5.312  12.620 -0.2421  2.5529 -0.1643
13401TIP3   OH261617   0.339   0.555   5.697  0.2428  0.5678  0.0858
13401TIP3    H161618   0.365   0.476   5.745 -1.0306  1.1394  1.7780
13401TIP3    H261619   0.398   0.623   5.729  0.1555  0.6973 -0.0265
13402TIP3   OH261620   1.363   6.061   2.030  0.2367 -0.2293  0.8116
13402TIP3    H161621   1.350   5.992   1.965 -1.0788 -0.5462  1.3896
13402TIP3    H261622   1.397   6.135   1.979  1.7744 -1.2904  0.1976
13403TIP3   OH261623   3.800   1.215  15.395  0.4629  0.5076 -0.2730
13403TIP3    H161624   3.872   1.278  15.388 -0.1689  1.1078 -1.6232
13403TIP3    H261625   3.785   1.206  15.489  0.9257  1.9532 -0.0421
13404TIP3   OH261626   4.918   5.110  11.974 -0.4509  0.5194  0.5156
13404TIP3    H161627   4.977   5.049  11.930 -0.1418  1.0878  0.1318
13404TIP3    H261628   4.836   5.061  11.985  0.3099 -0.5478  1.7502
13405TIP3   OH261629   0.942   5.597  16.816  0.3054  0.0515  0.4066
13405TIP3    H161630   1.026   5.616  16.774  0.1766 -2.1275 -0.9555
13405TIP3    H261631   0.917   5.680  16.856  2.5307  1.0751 -0.1574
13406TIP3   OH261632   0.850   6.751  11.610  0.1895 -0.3223  0.3004
13406TIP3    H161633   0.793   6.770  11.685  0.3729  0.6270  0.2117
13406TIP3    H261634   0.814   6.804  11.539  0.5246 -0.5654 -0.0548
13407TIP3   OH261635   0.567   0.784  11.558 -0.0593  0.0737 -0.6390
13407TIP3    H161636   0.477   0.756  11.575 -0.7311  1.8530 -1.0659
13407TIP3    H261637   0.558   0.861  11.502  1.7118  0.6078 -0.2446
13408TIP3   OH261638   3.615   6.263   1.720 -0.2532 -0.5036  0.1071
13408TIP3    H161639   3.526   6.236   1.698 -0.7328  0.8099  0.3427
13408TIP3    H261640   3.605   6.314   1.801  0.7191 -0.4224  0.1817
13409TIP3   OH261641   3.344   2.542  10.232 -0.2737  0.3131  0.1654
13409TIP3    H161642   3.385   2.571  10.151 -0.3637  0.8292  0.3014
13409TIP3    H261643   3.250   2.551  10.217 -0.3202 -0.2936  0.0671
13410TIP3   OH261644   6.174   2.189  12.230 -0.1904 -0.8694 -0.3300
13410TIP3    H161645   6.231   2.114  12.244 -0.8400 -1.1108  1.2774
13410TIP3    H261646   6.193   2.248  12.304 -1.5322 -0.6620 -0.1122
13411TIP3   OH261647   3.023   5.276   3.271  0.0052  0.4255 -0.3211
13411TIP3    H161648   3.030   5.287   3.176 -1.8797 -1.7078 -0.7902
13411TIP3    H261649   3.036   5.182   3.285 -0.3070  0.6154  1.4808
13412TIP3   OH261650   5.694   1.818  10.794  0.2742 -0.3850 -0.5774
13412TIP3    H161651   5.779   1.853  10.822 -0.3337  1.0958 -0.4859
13412TIP3    H261652   5.636   1.894  10.794 -1.0298 -1.3488 -0.7563
13413TIP3   OH261653   2.862   3.553   0.881 -0.2666  0.2641  0.4838
13413TIP3    H161654   2.870   3.634   0.932 -3.3721  0.4669  0.8836
13413TIP3    H261655   2.800   3.500   0.930  1.2991 -2.1950 -0.0600
13414TIP3   OH261656   5.497   3.946   2.046  0.1723 -0.3298  0.0754
13414TIP3    H161657   5.410   3.978   2.070  0.2503 -0.2523  0.2596
13414TIP3    H261658   5.482   3.887   1.973 -0.2144 -1.5853  1.1208
13415TIP3   OH261659   2.053   6.111   5.339  0.2689 -0.4643  0.1658
13415TIP3    H161660   2.055   6.032   5.284  1.6309 -0.8949  0.7968
13415TIP3    H261661   2.142   6.146   5.335 -0.1611  0.7138  0.3858
13416TIP3   OH261662   1.371   5.518  12.209 -0.9350  0.5614 -0.0578
13416TIP3    H161663   1.323   5.565  12.141 -4.2896 -0.7583  1.1822
13416TIP3    H261664   1.388   5.432  12.171 -1.9296  0.1505  0.4242
13417TIP3   OH261665   4.372   5.746  15.341  0.2028  0.0310 -1.0787
13417TIP3    H161666   4.304   5.678  15.344 -1.1257  1.2896 -1.2339
13417TIP3    H261667   4.454   5.698  15.345 -0.6942 -1.4718  1.1468
13418TIP3   OH261668   5.430   5.256   2.758 -0.0967 -0.3595 -0.7975
13418TIP3    H161669   5.377   5.224   2.685  0.9374 -0.6236 -1.4591
13418TIP3    H261670   5.388   5.337   2.784  0.0532  0.2440 -2.3336
13419TIP3   OH261671   3.337   2.492   5.968 -0.3761 -0.4502 -0.4689
13419TIP3    H161672   3.301   2.423   5.912 -1.4546 -1.1653  1.0351
13419TIP3    H261673   3.267   2.512   6.029  1.0394 -0.3184  1.1771
13420TIP3   OH261674   0.031   5.570  14.247  0.1511  0.0483 -0.5720
13420TIP3    H161675   0.039   5.487  14.294 -1.7381 -0.6619 -1.3960
13420TIP3    H261676   0.031   5.546  14.155 -0.3232  0.9518 -0.8211
13421TIP3   OH261677   4.658   4.627   5.985 -0.5954  0.1607 -0.1230
13421TIP3    H161678   4.622   4.672   6.061  0.0833 -1.9801  1.5700
13421TIP3    H261679   4.752   4.641   5.991 -0.5570  0.1652 -0.6940
13422TIP3   OH261680   0.671   1.935  13.625 -0.1990 -0.0586 -0.1934
13422TIP3    H161681   0.722   1.869  13.672 -1.4609 -0.6790  0.3563
13422TIP3    H261682   0.620   1.885  13.561  0.3590  0.6263 -1.2062
13423TIP3   OH261683   2.323   5.379   3.471  0.2120  0.0709  0.2694
13423TIP3    H161684   2.396   5.361   3.530 -0.6482  2.9825  2.4531
13423TIP3    H261685   2.363   5.425   3.397  1.0933 -2.3426 -0.8714
13424TIP3   OH261686   2.633   5.502   2.844 -0.3256 -0.2299 -0.2275
13424TIP3    H161687   2.566   5.527   2.908 -1.1983 -0.0617 -1.1775
13424TIP3    H261688   2.716   5.525   2.886 -0.8337 -0.6695  1.0741
13425TIP3   OH261689   0.294   6.539  12.408 -0.0860 -0.1763 -0.7314
13425TIP3    H161690   0.295   6.634  12.414 -0.1614 -0.1357 -1.3247
13425TIP3    H261691   0.215   6.519  12.357 -0.3258 -0.5818 -0.2118
13426TIP3   OH261692   6.539   5.489  12.917  0.2766 -0.7478 -1.1207
13426TIP3    H161693   6.480   5.490  12.841 -1.4381 -0.4650  0.1388
13426TIP3    H261694   6.497   5.548  12.980  1.8908 -0.6223 -0.1174
13427TIP3   OH261695   1.850   1.131   4.060  0.3249 -0.2348 -0.1118
13427TIP3    H161696   1.819   1.154   4.147 -1.3608  0.5121 -0.8696
13427TIP3    H261697   1.946   1.129   4.068  0.1876 -3.1599  2.4556
13428TIP3   OH261698   3.722   5.146  11.564  0.2964 -0.0434  0.1869
13428TIP3    H161699   3.669   5.225  11.575 -1.7161 -1.2410 -0.4937
13428TIP3    H261700   3.736   5.140  11.470  0.5514 -0.4573  0.2502
13429TIP3   OH261701   2.917   2.353  14.892 -0.0236  0.2706  0.5967
13429TIP3    H161702   2.955   2.295  14.827  0.5611  0.3659  0.8460
13429TIP3    H261703   2.890   2.295  14.963 -1.9952 -0.0097 -0.3144
13430TIP3   OH261704   2.241   5.472   4.094 -0.1895 -0.2237  0.3408
13430TIP3    H161705   2.166   5.517   4.134  0.6850  0.9045  0.7662
13430TIP3    H261706   2.299   5.452   4.168  1.5123  1.9927 -0.2632
13431TIP3   OH261707   2.291   4.483   0.433 -0.0687  0.3253 -0.4110
13431TIP3    H161708   2.213   4.430   0.414  1.5071 -2.5916  0.6139
13431TIP3    H261709   2.279   4.513   0.523  0.5488 -1.3571  0.2757
13432TIP3   OH261710   6.621   2.320   4.848 -0.2379 -0.3259  0.3058
13432TIP3    H161711   6.637   2.409   4.817  0.2116  0.1948  1.9364
13432TIP3    H261712   6.542   2.291   4.801  0.0734  0.6157 -0.8267
13433TIP3   OH261713   5.742   6.260   6.716 -0.1877  0.7268 -0.3015
13433TIP3    H161714   5.829   6.281   6.749 -0.1578  1.5089 -0.8409
13433TIP3    H261715   5.754   6.179   6.666 -0.0389  0.1110  0.7085
13434TIP3   OH261716   2.556   2.947   5.932 -0.5691  0.5608  0.3997
13434TIP3    H161717   2.596   2.893   5.864  0.2361  1.1334  0.3968
13434TIP3    H261718   2.605   3.029   5.929  1.9965 -0.5714  4.0426
13435TIP3   OH261719   6.239   3.611   0.314  0.4900 -0.4533  0.3740
13435TIP3    H161720   6.295   3.688   0.326 -0.7951  0.4834  0.6383
13435TIP3    H261721   6.172   3.620   0.382  0.1311 -1.6500  0.1996
13436TIP3   OH261722   3.354   3.086   4.826 -0.9682  0.1834  0.0729
13436TIP3    H161723   3.392   3.107   4.911 -1.0526 -0.3394  0.2441
13436TIP3    H261724   3.349   3.170   4.780  0.0940  0.3100  0.1708
13437TIP3   OH261725   0.896   1.834   4.786  1.0059 -0.2772 -0.0012
13437TIP3    H161726   0.931   1.781   4.715  0.1349 -1.6267  0.5316
13437TIP3    H261727   0.913   1.924   4.760  2.6127 -0.8135 -0.8894
13438TIP3   OH261728   4.945   1.831   0.183  0.0120 -0.5539  0.0263
13438TIP3    H161729   4.858   1.802   0.158 -0.5696  1.3101 -0.3050
13438TIP3    H261730   4.946   1.824   0.279 -0.8680  0.3033  0.1115
13439TIP3   OH261731   1.312   1.831   0.791  0.1848 -0.1686 -0.0223
13439TIP3    H161732   1.228   1.853   0.751  0.4016 -0.3065 -0.5658
13439TIP3    H261733   1.372   1.899   0.759  0.2695 -0.0359  0.4098
13440TIP3   OH261734   3.198   5.391  16.432 -0.2135 -0.2058  0.3311
13440TIP3    H161735   3.137   5.462  16.453 -1.6729 -1.3630  0.1537
13440TIP3    H261736   3.143   5.313  16.425  1.2276 -1.2116 -0.3435
13441TIP3   OH261737   1.839   2.185  12.063  0.1918  0.1101 -0.0637
13441TIP3    H161738   1.912   2.128  12.087 -1.8779 -2.3981  0.8133
13441TIP3    H261739   1.866   2.272  12.091  3.0034 -0.6313 -0.2188
13442TIP3   OH261740   3.002   3.767  14.584  0.2441 -0.1944 -0.1210
13442TIP3    H161741   2.956   3.806  14.509  0.7879 -0.7782 -0.7660
13442TIP3    H261742   2.931   3.733  14.640 -0.3077  2.2228  0.8036
13443TIP3   OH261743   3.397   2.351   4.015 -0.1625  0.1057  0.1932
13443TIP3    H161744   3.440   2.436   4.021  0.5380 -0.2926  1.0073
13443TIP3    H261745   3.424   2.316   3.930 -0.9412  0.9424 -0.4117
13444TIP3   OH261746   1.560   4.469   5.614 -0.5743 -0.4108 -0.7360
13444TIP3    H161747   1.620   4.541   5.595  0.1169 -0.8505 -0.2853
13444TIP3    H261748   1.599   4.424   5.689 -2.9918  1.0057  1.5257
13445TIP3   OH261749   3.488   0.055   2.878  0.1453 -0.3315  0.0166
13445TIP3    H161750   3.500  -0.036   2.905 -0.4263 -0.7327 -1.0254
13445TIP3    H261751   3.522   0.059   2.789 -1.0673  0.1376 -0.4473
13446TIP3   OH261752   5.661   0.029   5.545  0.1559 -0.0734  0.5489
13446TIP3    H161753   5.669  -0.001   5.635 -0.1995  1.5131  1.1352
13446TIP3    H261754   5.568   0.018   5.525 -0.0230  0.8395  0.8520
13447TIP3   OH261755   2.067   3.045   0.896 -0.0548 -0.5039 -0.5977
13447TIP3    H161756   2.102   3.100   0.827  0.0102  0.1024 -0.0872
13447TIP3    H261757   1.972   3.059   0.892  0.0998  1.8584  1.3047
13448TIP3   OH261758   4.578   1.630  11.316 -0.6881 -0.3200  0.4889
13448TIP3    H161759   4.541   1.613  11.403 -2.2086  0.2783 -0.0035
13448TIP3    H261760   4.539   1.563  11.260  0.3033 -0.7149  0.2380
13449TIP3   OH261761   3.644   1.129   6.057  0.1189  0.2100 -0.2983
13449TIP3    H161762   3.582   1.195   6.087  0.0345 -0.6445  1.5236
13449TIP3    H261763   3.665   1.155   5.967 -1.0397  1.8496 -0.1365
13450TIP3   OH261764   1.010   4.272   1.278  0.1144 -0.9681 -0.6862
13450TIP3    H161765   1.003   4.286   1.184 -1.9514  0.3852 -0.3741
13450TIP3    H261766   0.929   4.306   1.315  1.2581 -0.5715  1.7034
13451TIP3   OH261767   6.255   6.301   4.108 -0.2526 -0.7128  0.4487
13451TIP3    H161768   6.232   6.216   4.070 -0.9490  0.8768 -3.2063
13451TIP3    H261769   6.339   6.323   4.067  0.2111  0.1099  1.8031
13452TIP3   OH261770   6.746   0.054   1.559 -1.2903 -0.0707 -0.1948
13452TIP3    H161771   6.805   0.037   1.633  0.6814 -0.0330 -1.6767
13452TIP3    H261772   6.750   0.149   1.548  1.3706 -0.3202 -2.5162
13453TIP3   OH261773   5.104   4.694  13.720 -0.2529 -0.7237 -0.1266
13453TIP3    H161774   5.045   4.751  13.770 -0.5817 -1.0712 -0.1103
13453TIP3    H261775   5.144   4.638  13.787 -1.6363 -2.0472 -0.3499
13454TIP3   OH261776   6.253   3.361  12.370 -0.2386 -0.2672  0.1506
13454TIP3    H161777   6.250   3.270  12.400  0.3803 -1.2294 -2.4463
13454TIP3    H261778   6.309   3.405  12.435 -0.7474 -1.6345  1.5900
13455TIP3   OH261779   2.048   4.290   6.388  0.0343  0.1252 -0.5126
13455TIP3    H161780   2.026   4.350   6.317 -1.1414  1.6529  1.0476
13455TIP3    H261781   2.065   4.206   6.345  1.5861  1.4934 -2.7826
13456TIP3   OH261782   2.793   2.691   0.548 -0.5202 -0.3907 -0.0087
13456TIP3    H161783   2.728   2.761   0.552 -0.4025 -0.2100 -0.9863
13456TIP3    H261784   2.866   2.729   0.500 -0.6030 -1.3007 -0.8811
13457TIP3   OH261785   4.648   2.649   1.150 -0.2259  0.0279 -0.1827
13457TIP3    H161786   4.593   2.658   1.072 -2.3118  1.6243  1.3731
13457TIP3    H261787   4.595   2.683   1.222  2.4827  0.9152  1.5842
13458TIP3   OH261788   5.631   4.486   1.770 -0.4056 -0.0440 -0.1800
13458TIP3    H161789   5.647   4.425   1.842  0.0664  0.5989  0.2737
13458TIP3    H261790   5.602   4.431   1.698  0.8255 -0.9134 -0.0385
13459TIP3   OH261791   4.003   2.778   6.139  0.7014  0.0366  0.2467
13459TIP3    H161792   3.912   2.759   6.116  0.3471  0.6242  1.1426
13459TIP3    H261793   4.043   2.691   6.150  1.0541 -0.3570 -2.9708
13460TIP3   OH261794   6.009   2.133   3.512  0.5377  0.3949  0.1510
13460TIP3    H161795   5.961   2.214   3.528 -0.4461  0.0176 -0.7664
13460TIP3    H261796   5.988   2.077   3.586  0.1449  0.4969  0.1156
13461TIP3   OH261797   3.727   0.262  15.885  0.3094 -0.3102  0.7278
13461TIP3    H161798   3.652   0.315  15.861  1.4730  2.1419  2.1682
13461TIP3    H261799   3.772   0.246  15.802  0.5195  1.9856  0.3354
13462TIP3   OH261800   0.586   1.600   5.193 -0.4402 -0.2927 -0.0808
13462TIP3    H161801   0.665   1.604   5.247 -0.8878  0.1099  0.5585
13462TIP3    H261802   0.555   1.691   5.189 -1.2747 -0.5482  0.2949
13463TIP3   OH261803   2.231   3.345  16.829  0.3677  0.0022  0.5562
13463TIP3    H161804   2.249   3.251  16.826  1.0338  0.1233  0.6697
13463TIP3    H261805   2.255   3.372  16.917  0.9193  0.4186  0.2877
13464TIP3   OH261806   5.798   2.643   0.683 -0.8776 -0.2732  0.0341
13464TIP3    H161807   5.753   2.693   0.614 -0.4663 -0.0564 -0.0831
13464TIP3    H261808   5.890   2.643   0.655 -0.1982  2.1470  1.9239
13465TIP3   OH261809   6.578   1.349  16.427 -0.6496  0.5558 -0.1584
13465TIP3    H161810   6.660   1.394  16.405 -0.1937 -0.7667 -1.2925
13465TIP3    H261811   6.575   1.352  16.523  1.0369  0.1022 -0.0529
13466TIP3   OH261812   0.784   3.838  13.035  0.3137 -0.1173  0.0819
13466TIP3    H161813   0.856   3.782  13.006 -0.1585 -0.0855 -1.2090
13466TIP3    H261814   0.826   3.919  13.064  0.9657 -0.9473  1.5243
13467TIP3   OH261815   2.503   2.139  12.630  0.0686  0.3783 -0.1979
13467TIP3    H161816   2.492   2.098  12.716  0.4730 -1.1094 -0.8332
13467TIP3    H261817   2.538   2.226  12.650 -2.6974  1.2655  1.2884
13468TIP3   OH261818   5.028   0.205  11.656  0.5203  0.0994 -0.0414
13468TIP3    H161819   4.993   0.292  11.672  0.5537  0.0810  0.1336
13468TIP3    H261820   5.115   0.221  11.620  0.4586  0.1407 -0.1698
13469TIP3   OH261821   0.695   6.318  14.901 -0.2246  0.4496  0.5855
13469TIP3    H161822   0.722   6.405  14.872 -3.7755  1.6259  0.4440
13469TIP3    H261823   0.765   6.290  14.961  2.5995  1.9497 -1.7282
13470TIP3   OH261824   4.236   1.036  16.491  0.3201 -0.4713  0.0883
13470TIP3    H161825   4.259   0.979  16.417 -0.9242  0.1579 -0.8253
13470TIP3    H261826   4.300   1.107  16.487 -0.5393  0.2769 -1.2662
13471TIP3   OH261827   4.605   0.240  12.776 -0.2418  0.1523 -0.3888
13471TIP3    H161828   4.667   0.312  12.792  1.2265 -1.4999  2.0374
13471TIP3    H261829   4.606   0.229  12.681 -0.4549  3.2023 -0.8484
13472TIP3   OH261830   6.259   1.565  16.325 -0.0732  0.2909 -0.7255
13472TIP3    H161831   6.204   1.591  16.251 -0.0515 -1.6181 -1.4899
13472TIP3    H261832   6.306   1.488  16.294  0.0920 -0.4569  1.2092
13473TIP3   OH261833   6.049   5.608   1.718  0.0147  0.8894  0.5292
13473TIP3    H161834   5.976   5.561   1.678 -0.6196  2.2982 -0.0448
13473TIP3    H261835   6.120   5.544   1.722 -1.3236 -0.5884  1.3531
13474TIP3   OH261836   4.886   6.421  12.642  0.0901  0.0606 -0.2047
13474TIP3    H161837   4.963   6.419  12.698 -0.3129  1.5201  0.4486
13474TIP3    H261838   4.875   6.514  12.620 -0.7288 -0.2877 -1.3538
13475TIP3   OH261839   6.628   4.382  11.781 -0.3624 -0.1083 -0.4253
13475TIP3    H161840   6.550   4.377  11.837  0.5635  0.0308  0.9149
13475TIP3    H261841   6.646   4.291  11.758 -0.6591 -0.1826 -0.3710
13476TIP3   OH261842   3.526   6.445  12.411  1.0833 -0.5935 -0.2472
13476TIP3    H161843   3.482   6.511  12.356  0.5190 -0.1590  0.6939
13476TIP3    H261844   3.534   6.488  12.497  0.2126 -1.9399  0.5387
13477TIP3   OH261845   0.713   4.359  10.857 -0.3357  0.7742 -0.2493
13477TIP3    H161846   0.709   4.355  10.761  1.8288 -1.2845 -0.3626
13477TIP3    H261847   0.627   4.327  10.886 -0.3080 -0.6066 -1.5487
13478TIP3   OH261848   1.244   3.731   3.056 -0.4515  0.4329 -0.5041
13478TIP3    H161849   1.316   3.786   3.026 -0.6756  0.1229 -1.6576
13478TIP3    H261850   1.229   3.670   2.984  0.7624 -2.1627  1.2464
13479TIP3   OH261851   3.176   5.088  16.631  0.5716  0.2817 -0.9457
13479TIP3    H161852   3.108   5.142  16.590 -0.3640  0.0626  0.2641
13479TIP3    H261853   3.186   5.124  16.719 -0.0178 -1.4365 -0.1308
13480TIP3   OH261854   5.599   3.101  11.641  0.5361  0.2215 -0.1745
13480TIP3    H161855   5.575   3.180  11.688 -0.2151  0.0628 -0.2787
13480TIP3    H261856   5.695   3.106  11.632  0.6612  0.3757  1.1205
13481TIP3   OH261857   5.863   3.053   1.687 -0.5210 -0.2531 -0.1248
13481TIP3    H161858   5.957   3.067   1.685 -0.3751 -1.1295 -0.1046
13481TIP3    H261859   5.853   2.965   1.723 -1.2623 -0.8208 -1.6265
13482TIP3   OH261860   5.742   5.315   0.008  0.4870 -0.2835 -0.2135
13482TIP3    H161861   5.707   5.281  -0.075  0.8450 -2.7992  0.5918
13482TIP3    H261862   5.799   5.386  -0.019 -0.5494 -0.0523 -2.0124
13483TIP3   OH261863   4.306   0.014  12.517 -0.2138  0.1238  0.2006
13483TIP3    H161864   4.210   0.005  12.511 -0.3586  1.6413 -0.1786
13483TIP3    H261865   4.330   0.055  12.434  0.6617  0.5849  0.6792
13484TIP3   OH261866   3.404   5.768   4.676  0.2514 -0.0270 -0.0188
13484TIP3    H161867   3.310   5.773   4.694  0.1875  0.2741 -0.4269
13484TIP3    H261868   3.434   5.858   4.681  0.2505  0.0632 -1.2973
13485TIP3   OH261869   3.812   2.509  11.481  0.0130  0.1839 -0.8356
13485TIP3    H161870   3.724   2.513  11.519 -0.6579 -1.1748 -2.0992
13485TIP3    H261871   3.814   2.580  11.417 -1.0943 -1.2301 -2.5178
13486TIP3   OH261872   6.660   0.341  11.419 -0.1293  0.2102 -0.2313
13486TIP3    H161873   6.725   0.312  11.355  1.1342  0.9059  0.6989
13486TIP3    H261874   6.709   0.349  11.501 -0.8880  2.7604  0.0554
13487TIP3   OH261875   4.695   2.388  16.184  0.6391  0.1110 -0.0426
13487TIP3    H161876   4.634   2.380  16.111  0.0760  1.9414  0.1709
13487TIP3    H261877   4.670   2.319  16.244 -1.7474  1.2305  0.3638
13488TIP3   OH261878   1.651   5.593  16.931 -0.2996 -0.5402 -0.4767
13488TIP3    H161879   1.616   5.681  16.943  1.8292  0.5557 -1.7195
13488TIP3    H261880   1.690   5.595  16.843  0.5303 -2.4662 -0.2003
13489TIP3   OH261881   2.761   2.736   1.568  0.0702  0.7214 -0.6133
13489TIP3    H161882   2.687   2.791   1.593  0.8106  1.7241 -0.5811
13489TIP3    H261883   2.770   2.750   1.474  0.4881  0.9410 -0.5420
13490TIP3   OH261884   2.959   0.900  17.021  0.4819  0.2503 -0.6589
13490TIP3    H161885   2.906   0.830  16.982 -1.4037  1.0423  0.3568
13490TIP3    H261886   3.006   0.857  17.093  0.9484 -0.3742 -1.3139
13491TIP3   OH261887   5.220   5.969  13.141  0.3752  0.1290  0.0220
13491TIP3    H161888   5.210   5.930  13.228  0.6687 -0.9519 -0.4071
13491TIP3    H261889   5.304   6.014  13.144  0.9001 -0.8245 -0.0254
13492TIP3   OH261890   6.067   2.374  15.494 -0.0666 -0.0064  0.2269
13492TIP3    H161891   6.085   2.319  15.418 -1.1435 -1.3666  0.9167
13492TIP3    H261892   6.118   2.454  15.478 -0.3696 -0.1900 -1.9584
13493TIP3   OH261893   6.338   5.800   1.024 -0.2113  0.3442 -0.0220
13493TIP3    H161894   6.361   5.850   1.102 -0.5565  2.5414 -1.2556
13493TIP3    H261895   6.243   5.812   1.014 -0.1563  0.2005 -0.8413
13494TIP3   OH261896   1.356   5.894  11.948  0.4591  0.5433 -0.8482
13494TIP3    H161897   1.267   5.929  11.940  0.6083  1.2938  0.4141
13494TIP3    H261898   1.410   5.956  11.900  0.4616  0.9079 -0.3878
13495TIP3   OH261899   1.130   2.562  12.229  0.3552  0.3586 -0.3003
13495TIP3    H161900   1.074   2.623  12.182 -1.1917 -0.6643  0.1393
13495TIP3    H261901   1.145   2.603  12.314  1.2917  1.1746 -0.8362
13496TIP3   OH261902   1.004   5.352  12.764 -0.2063  0.1415  0.0532
13496TIP3    H161903   1.039   5.439  12.747  1.4047 -0.4181  0.3035
13496TIP3    H261904   0.957   5.360  12.847  0.4066  0.6550  0.3537
13497TIP3   OH261905   1.118   3.716   0.296  0.3411  0.4010  0.2619
13497TIP3    H161906   1.170   3.759   0.228 -0.8401  1.2574 -0.1424
13497TIP3    H261907   1.080   3.640   0.252 -0.4283  0.9583 -0.0604
13498TIP3   OH261908   6.550   4.384   5.732 -0.4093  0.3110 -0.4945
13498TIP3    H161909   6.537   4.314   5.796  1.3140 -0.3144 -0.7693
13498TIP3    H261910   6.549   4.464   5.784 -1.2712 -0.0043 -0.0133
13499TIP3   OH261911   4.988   2.249  13.063 -0.2522  0.5854 -0.5638
13499TIP3    H161912   4.963   2.157  13.058  0.7448  0.2275  0.6608
13499TIP3    H261913   5.019   2.261  13.152  0.8538  1.8090 -1.0809
13500TIP3   OH261914   0.648   2.901   2.517 -0.0984  0.2855 -1.1806
13500TIP3    H161915   0.610   2.869   2.598  0.0668  1.6199 -0.5487
13500TIP3    H261916   0.580   2.887   2.451  0.2094 -1.9627 -1.1229
13501TIP3   OH261917   0.939   2.583   5.291  0.0865  0.2026  0.6779
13501TIP3    H161918   0.872   2.518   5.270 -2.3378  2.7102  0.1437
13501TIP3    H261919   0.967   2.618   5.206  0.6529  0.5159  0.9875
13502TIP3   OH261920   0.371   1.070   5.215 -0.4824  0.3990 -0.3301
13502TIP3    H161921   0.405   1.153   5.183  0.1928  0.8100  1.3918
13502TIP3    H261922   0.321   1.035   5.141  3.1504  0.0125 -2.8451
13503TIP3   OH261923   1.653   3.209  15.704 -0.0080  0.0386  0.4571
13503TIP3    H161924   1.688   3.147  15.768 -0.3457  0.6329  1.2301
13503TIP3    H261925   1.675   3.295  15.739  1.0245  0.3665 -0.9265
13504TIP3   OH261926   3.780   0.508   5.467 -0.0464  0.3788  0.1748
13504TIP3    H161927   3.787   0.500   5.562 -0.3752 -0.6549  0.1255
13504TIP3    H261928   3.866   0.540   5.440 -0.3054  1.7812  0.9114
13505TIP3   OH261929   2.647   4.653  14.920 -0.2350 -0.7775  0.6064
13505TIP3    H161930   2.596   4.678  14.843 -0.8151  0.4021  1.3468
13505TIP3    H261931   2.738   4.664  14.893 -0.4342  1.5091  0.6289
13506TIP3   OH261932   1.448   4.509  13.309  0.3174  0.7792  0.2447
13506TIP3    H161933   1.488   4.582  13.356 -0.6869  1.0100  0.7630
13506TIP3    H261934   1.358   4.505  13.342  0.1849 -0.3272 -0.1989
13507TIP3   OH261935   5.182   2.933   0.782  0.3272  0.1212  0.3548
13507TIP3    H161936   5.256   2.926   0.721 -0.6176 -0.5034 -0.7564
13507TIP3    H261937   5.105   2.909   0.730 -0.5456 -0.2200  1.7422
13508TIP3   OH261938   3.908   2.737  12.047  0.2171 -0.1351 -0.0689
13508TIP3    H161939   3.889   2.666  11.985 -0.1140  0.9533 -1.2604
13508TIP3    H261940   4.001   2.755  12.035 -0.3000  1.6726 -2.0923
13509TIP3   OH261941   4.732   4.489  15.595 -0.6732  0.2787 -0.0027
13509TIP3    H161942   4.723   4.460  15.504 -0.4228 -1.6990  0.5657
13509TIP3    H261943   4.785   4.568  15.589 -0.4453  0.0434 -1.5588
13510TIP3   OH261944   2.772   3.408   6.281 -0.1845  0.7217 -0.0976
13510TIP3    H161945   2.778   3.504   6.281  0.5588  0.6833  0.4589
13510TIP3    H261946   2.856   3.379   6.317  0.4609 -0.1912 -2.1564
13511TIP3   OH261947   3.471   3.102  13.922  0.3500  0.0504 -0.4228
13511TIP3    H161948   3.516   3.102  13.838  0.6650 -2.6789 -0.3341
13511TIP3    H261949   3.381   3.128  13.901  0.8283  1.0608 -1.2980
13512TIP3   OH261950   4.736   4.111   2.584 -0.1030  0.3757  0.2081
13512TIP3    H161951   4.670   4.063   2.633 -0.1782  0.2938  0.0257
13512TIP3    H261952   4.739   4.197   2.626 -0.2599  0.3492  0.2726
13513TIP3   OH261953   6.727   6.386   1.141 -0.4647 -0.2366  0.3129
13513TIP3    H161954   6.788   6.428   1.201 -0.2572 -1.5989  1.0902
13513TIP3    H261955   6.783   6.338   1.079 -0.7085  0.1449 -0.2142
13514TIP3   OH261956   5.179   0.267  14.094  0.4872  0.0241  0.8511
13514TIP3    H161957   5.221   0.339  14.046 -1.6634  0.6874 -0.1995
13514TIP3    H261958   5.169   0.197  14.030 -3.0979  1.1892 -0.1159
13515TIP3   OH261959   2.155   5.479  15.090 -0.3735  0.7205 -0.0117
13515TIP3    H161960   2.244   5.482  15.126 -0.0461  0.2645 -0.7741
13515TIP3    H261961   2.146   5.560  15.040 -0.7984  1.3127  0.9856
13516TIP3   OH261962   3.219   3.995   0.351 -0.0640  0.0697 -0.3451
13516TIP3    H161963   3.229   4.074   0.404  1.8097  1.5307 -2.6927
13516TIP3    H261964   3.126   3.993   0.327 -0.3801  0.8200  0.7402
13517TIP3   OH261965   1.580   4.499   0.484  0.3523 -0.2859  0.4483
13517TIP3    H161966   1.663   4.474   0.443  0.8762  0.3406  1.0955
13517TIP3    H261967   1.525   4.420   0.478  1.1861 -0.8800  0.4977
13518TIP3   OH261968   1.342   2.170   5.892 -0.3710  0.1053 -0.0229
13518TIP3    H161969   1.305   2.087   5.923 -0.8972  0.5994  0.6991
13518TIP3    H261970   1.369   2.151   5.802 -2.4292 -0.2925 -0.6199
13519TIP3   OH261971   1.264   1.574  13.159 -0.2105  0.0026  0.0642
13519TIP3    H161972   1.325   1.598  13.090  1.0408 -0.7776  0.8679
13519TIP3    H261973   1.230   1.657  13.192  1.7212  0.5691  0.7458
13520TIP3   OH261974   3.924   1.093  10.760  0.6277 -0.2553 -0.2069
13520TIP3    H161975   3.903   1.071  10.670  0.9380 -1.1154 -0.0750
13520TIP3    H261976   3.941   1.009  10.803 -2.1589 -0.1696  1.3507
13521TIP3   OH261977   5.543   4.901  14.872 -0.0944  0.0177 -0.4310
13521TIP3    H161978   5.508   4.891  14.784 -1.1313  0.9978 -0.1529
13521TIP3    H261979   5.466   4.893  14.930  0.5218 -0.3012  0.3675
13522TIP3   OH261980   1.821   0.213   5.475 -0.3597 -0.1266 -0.3374
13522TIP3    H161981   1.837   0.201   5.569 -0.1514 -0.4513 -0.4134
13522TIP3    H261982   1.878   0.149   5.433  0.4823  0.8473 -0.7416
13523TIP3   OH261983   2.797   1.196   4.919  0.2061 -0.0094 -0.3279
13523TIP3    H161984   2.739   1.126   4.949  0.0071  0.1179 -0.4126
13523TIP3    H261985   2.845   1.222   4.997  0.7645 -0.6970 -0.4352
13524TIP3   OH261986   3.511   4.720   3.501 -0.0845 -0.3675  0.4966
13524TIP3    H161987   3.566   4.774   3.445 -0.0880  0.5733  1.3717
13524TIP3    H261988   3.441   4.688   3.444  0.4741 -0.2681 -0.2509
13525TIP3   OH261989   5.845   5.680  11.139 -0.4772 -0.2358 -0.3400
13525TIP3    H161990   5.877   5.753  11.087  0.1594  0.0230  0.3996
13525TIP3    H261991   5.923   5.632  11.163 -0.3523  1.3675  2.9610
13526TIP3   OH261992   5.905   2.698  12.601  0.0578 -0.1426 -0.4096
13526TIP3    H161993   5.990   2.673  12.565  1.5271 -2.9348  4.1368
13526TIP3    H261994   5.914   2.792  12.620  2.1519 -0.3533 -0.1012
13527TIP3   OH261995   6.020   4.368  15.592  0.0706 -0.0553 -0.3643
13527TIP3    H161996   6.046   4.322  15.672 -2.1580 -1.1526 -0.1737
13527TIP3    H261997   6.041   4.308  15.521  1.5061  0.6729 -0.5833
13528TIP3   OH261998   3.402   3.205  15.173 -0.1628 -0.5947 -0.8014
13528TIP3    H161999   3.435   3.223  15.261 -2.6513  0.5087 -0.0099
13528TIP3    H262000   3.307   3.204  15.182 -0.5098 -0.2995 -3.5145
13529TIP3   OH262001   1.639   5.462   0.317  0.1579 -0.8143  0.8584
13529TIP3    H162002   1.566   5.497   0.266  1.2915 -1.6787 -1.4839
13529TIP3    H262003   1.695   5.538   0.334 -0.4332 -0.4487  1.1920
13530TIP3   OH262004   2.883   4.009  10.818  0.0787 -0.3908 -0.2205
13530TIP3    H162005   2.973   3.977  10.824 -0.1112 -1.3645 -1.8498
13530TIP3    H262006   2.879   4.083  10.879  1.6536 -1.0232  0.6979
13531TIP3   OH262007   5.633   3.104   1.951 -0.6946  0.2109  0.1329
13531TIP3    H162008   5.590   3.023   1.978 -0.2959 -0.0367  0.0345
13531TIP3    H262009   5.713   3.075   1.907 -2.0422  0.5266 -2.6942
13532TIP3   OH262010   1.314   3.386   4.878 -0.5471 -0.0796  0.4247
13532TIP3    H162011   1.256   3.420   4.946 -1.2854 -1.5534  0.5824
13532TIP3    H262012   1.359   3.312   4.920  1.0205  0.6566  0.1149
13533TIP3   OH262013   3.074   5.884   1.391 -0.5418  0.3032 -0.3999
13533TIP3    H162014   3.039   5.801   1.356 -1.6960  1.1132 -1.2416
13533TIP3    H262015   3.147   5.906   1.333 -1.5480  0.9106 -1.4762
13534TIP3   OH262016   5.924   0.203  15.073 -0.3408  0.0071  0.1013
13534TIP3    H162017   5.966   0.283  15.042 -0.5615 -0.0196 -0.2725
13534TIP3    H262018   5.997   0.143  15.090 -0.1955  0.1646  0.0316
13535TIP3   OH262019   2.355   6.430   3.319  0.1936 -0.5584 -0.2139
13535TIP3    H162020   2.275   6.426   3.267  1.1542  0.5175 -1.8779
13535TIP3    H262021   2.377   6.523   3.321  2.2193 -0.9571 -1.1702
13536TIP3   OH262022   0.604   1.012  10.746  0.4284  0.0535  0.2974
13536TIP3    H162023   0.516   1.034  10.776 -0.2328 -1.5907 -0.3489
13536TIP3    H262024   0.590   0.963  10.664  2.0240  1.4680 -0.8975
13537TIP3   OH262025   5.582   2.496  12.896  0.2957  0.1486  0.1203
13537TIP3    H162026   5.566   2.435  12.968 -1.0166  0.9844  0.5631
13537TIP3    H262027   5.669   2.472  12.863 -0.1063 -1.8314  0.3924
13538TIP3   OH262028   6.159   6.317   3.497  0.0190  0.2170  0.0715
13538TIP3    H162029   6.235   6.343   3.548 -0.3827  1.6265  0.0105
13538TIP3    H262030   6.154   6.222   3.508  1.2659  0.2046  0.7758
13539TIP3   OH262031   0.127   4.366   0.871 -0.0015 -0.2319  0.0798
13539TIP3    H162032   0.108   4.301   0.938  0.3130 -0.1649  0.2368
13539TIP3    H262033   0.081   4.335   0.794 -0.8672  0.0043  0.4888
13540TIP3   OH262034   5.285   0.731   3.379  0.0724  0.1052 -0.4084
13540TIP3    H162035   5.373   0.718   3.344  0.0782  0.7502 -0.6630
13540TIP3    H262036   5.233   0.660   3.342  0.6440 -0.7285  0.3492
13541TIP3   OH262037   3.650   6.412   2.423  0.1798  0.3763 -0.2144
13541TIP3    H162038   3.595   6.423   2.500  2.4258  1.1786  1.3702
13541TIP3    H262039   3.633   6.490   2.370  0.3203  0.9849  0.6193
13542TIP3   OH262040   2.928   3.884   0.934 -0.3810 -0.2136  0.8089
13542TIP3    H162041   2.852   3.939   0.955  0.2792  0.4067  1.7134
13542TIP3    H262042   2.951   3.908   0.845 -1.0345 -0.1559  0.6492
13543TIP3   OH262043   6.332   5.520  15.940  0.2410  0.0375 -0.7070
13543TIP3    H162044   6.366   5.505  15.851  0.0523 -1.9370 -0.4960
13543TIP3    H262045   6.410   5.518  15.996  0.9383  5.1033 -1.0430
13544TIP3   OH262046   3.397   2.223   5.615  0.2234  0.0993 -0.1562
13544TIP3    H162047   3.474   2.205   5.668 -0.1328  1.1026  0.7467
13544TIP3    H262048   3.337   2.269   5.674 -1.6530 -1.8159 -0.4225
13545TIP3   OH262049   6.069   6.337  14.529 -0.8392 -0.0689 -0.3094
13545TIP3    H162050   6.079   6.412  14.471 -1.5544  0.4876  0.2628
13545TIP3    H262051   6.010   6.278  14.482 -0.2708 -0.2857 -0.7636
13546TIP3   OH262052   6.744   5.624   1.682 -0.2383  0.0604 -0.4058
13546TIP3    H162053   6.678   5.693   1.696 -1.6623 -1.6279  2.0100
13546TIP3    H262054   6.827   5.671   1.678 -1.3787  2.1119 -1.5892
13547TIP3   OH262055   1.306   5.321   1.659 -0.6085  0.1106  0.4693
13547TIP3    H162056   1.347   5.238   1.682 -0.0373  0.5933  1.2274
13547TIP3    H262057   1.282   5.311   1.566  0.7694 -0.3739  0.1385
13548TIP3   OH262058   0.451   3.521  14.466 -0.2221  0.4747 -0.1457
13548TIP3    H162059   0.515   3.454  14.440 -0.1675  0.2582  0.5499
13548TIP3    H262060   0.453   3.521  14.561 -0.3419  1.3545 -0.1343
13549TIP3   OH262061   4.571   3.631   3.988  0.0734  0.0132 -0.1460
13549TIP3    H162062   4.479   3.632   4.016  0.4465 -1.8392  1.3646
13549TIP3    H262063   4.621   3.630   4.069  1.3518 -1.3905 -0.8904
13550TIP3   OH262064   4.950   2.685   0.174 -0.7932 -0.2496  0.0452
13550TIP3    H162065   4.952   2.780   0.162  1.7514  0.0934  2.2918
13550TIP3    H262066   4.892   2.672   0.248 -0.0623 -0.2686  0.6293
13551TIP3   OH262067   0.406   2.923  15.268 -0.1539  0.0677  0.7786
13551TIP3    H162068   0.456   2.999  15.239 -0.0131  0.3124  1.6344
13551TIP3    H262069   0.331   2.920  15.208  0.3984  0.2330  0.0634
13552TIP3   OH262070   2.130   6.087  11.304  0.1955 -0.5214  0.6019
13552TIP3    H162071   2.042   6.125  11.304  1.3082  2.3016 -0.3534
13552TIP3    H262072   2.133   6.034  11.384 -2.3706 -0.8050  0.6081
13553TIP3   OH262073   0.494   1.196  11.863  0.1903 -0.4280 -0.7114
13553TIP3    H162074   0.423   1.133  11.856  0.2516 -0.6492  0.5596
13553TIP3    H262075   0.467   1.257  11.931  0.0110  1.1191 -2.0886
13554TIP3   OH262076   5.372   1.861  13.777  0.5199  0.3991  0.4708
13554TIP3    H162077   5.299   1.825  13.727  1.6148 -1.6972  0.2933
13554TIP3    H262078   5.356   1.956  13.777 -2.0614  0.0244  0.2874
13555TIP3   OH262079   3.216   4.989   1.846 -0.1409 -0.0037 -0.1526
13555TIP3    H162080   3.179   4.980   1.758 -0.5616  2.2134 -0.2618
13555TIP3    H262081   3.160   4.936   1.902 -0.6724 -0.3712 -1.0182
13556TIP3   OH262082   3.657   6.248   3.678 -0.3320  0.3998  0.2302
13556TIP3    H162083   3.724   6.306   3.715 -0.6611  0.4115  0.8336
13556TIP3    H262084   3.693   6.220   3.594  0.3215  0.5979  0.4350
13557TIP3   OH262085   2.221   4.165  14.606  0.0558  0.5333 -0.4449
13557TIP3    H162086   2.273   4.124  14.675 -0.8978  0.3599  0.1878
13557TIP3    H262087   2.209   4.256  14.635  2.4484  1.4704 -1.9973
13558TIP3   OH262088   1.115   1.400  14.885 -0.0557 -0.0002 -0.5302
13558TIP3    H162089   1.060   1.335  14.929  2.7350 -2.5812 -0.5384
13558TIP3    H262090   1.102   1.383  14.791 -0.0727  0.1006 -0.5460
13559TIP3   OH262091   1.141   2.914   3.574  0.0415  0.0390 -0.7543
13559TIP3    H162092   1.105   2.893   3.488 -1.5223  2.9665 -0.9352
13559TIP3    H262093   1.092   2.858   3.635 -0.9542  0.0600 -1.5112
13560TIP3   OH262094   3.509   6.179   2.407 -0.0776 -0.2336  0.2929
13560TIP3    H162095   3.526   6.272   2.420 -0.9305 -0.0749  0.3329
13560TIP3    H262096   3.555   6.135   2.478  1.2203  0.0643 -0.3409
13561TIP3   OH262097   1.092   5.672   4.367 -0.2719 -0.4175  0.1402
13561TIP3    H162098   1.011   5.626   4.391 -0.2704 -0.2785  0.4109
13561TIP3    H262099   1.101   5.740   4.434  0.1590 -0.5406  0.2070
13562TIP3   OH262100   6.676   1.742   0.123 -0.3140  0.0582 -0.2195
13562TIP3    H162101   6.722   1.760   0.205 -0.4732  1.4018 -0.3982
13562TIP3    H262102   6.654   1.649   0.127  3.5140 -1.0342 -0.7085
13563TIP3   OH262103   1.344   5.637  15.417  0.1905 -0.0200  0.2269
13563TIP3    H162104   1.377   5.609  15.502  0.7705  1.1560  0.4055
13563TIP3    H262105   1.387   5.721  15.401 -0.4491  0.1090 -0.9084
13564TIP3   OH262106   6.270   4.494  16.376 -0.3135  0.1116  0.9561
13564TIP3    H162107   6.281   4.420  16.317  0.7994  0.9361  0.0692
13564TIP3    H262108   6.180   4.487  16.408 -0.6570 -0.8462 -0.1671
13565TIP3   OH262109   4.346   3.952   5.704  0.1081  0.4170 -0.0690
13565TIP3    H162110   4.372   3.930   5.793  1.1204  0.7974 -0.2582
13565TIP3    H262111   4.250   3.953   5.706  0.0812 -1.1912  0.6057
13566TIP3   OH262112   6.632   6.554  16.366 -0.1407  0.5361 -0.3935
13566TIP3    H162113   6.679   6.569  16.283  1.0402 -0.8112 -0.0052
13566TIP3    H262114   6.584   6.472  16.352  0.0582  0.3062  0.2491
13567TIP3   OH262115   2.361   2.848  14.171 -0.1992 -0.1463  0.5066
13567TIP3    H162116   2.315   2.792  14.109 -0.8579  0.3236  0.5653
13567TIP3    H262117   2.404   2.786  14.231  0.3890 -0.5995 -0.3663
13568TIP3   OH262118   0.906   0.715  14.909  0.0394  0.2224  0.4078
13568TIP3    H162119   0.821   0.704  14.952 -0.5793 -1.8100 -1.1771
13568TIP3    H262120   0.911   0.808  14.889 -1.8616  0.3684  0.4467
13569TIP3   OH262121   3.238   0.525   2.648  0.1525  0.2040 -0.0235
13569TIP3    H162122   3.243   0.536   2.554  0.6269  0.4025  0.0233
13569TIP3    H262123   3.167   0.461   2.661 -1.9946  2.3852 -0.3437
13570TIP3   OH262124   4.692   6.469  16.330  0.1727  0.4951  0.0256
13570TIP3    H162125   4.736   6.518  16.399  0.8519 -1.0879  0.7603
13570TIP3    H262126   4.708   6.377  16.351  0.8220 -0.0544 -2.5002
13571TIP3   OH262127   6.484   6.021   1.913  0.4526 -0.4577  0.5544
13571TIP3    H162128   6.554   6.082   1.935  0.0540 -0.2348  1.2420
13571TIP3    H262129   6.406   6.057   1.954  0.1819 -1.3572  0.8683
13572TIP3   OH262130   1.928   1.445  10.142 -0.2527 -0.4338 -0.0750
13572TIP3    H162131   1.860   1.512  10.136 -0.5707 -0.8509 -1.5208
13572TIP3    H262132   1.959   1.450  10.232 -0.9213  1.0138  0.0963
13573TIP3   OH262133   0.821   4.781   6.698  0.0622 -0.5022  0.0388
13573TIP3    H162134   0.798   4.709   6.758 -0.6190 -0.0173  0.3842
13573TIP3    H262135   0.741   4.796   6.647  0.6754 -0.9938 -1.1046
13574TIP3   OH262136   2.971   4.295  11.660 -0.3514 -0.1584 -0.2493
13574TIP3    H162137   2.888   4.251  11.679 -0.8197  1.2905  1.3362
13574TIP3    H262138   2.952   4.352  11.586 -1.2550  1.2946  1.0389
13575TIP3   OH262139   6.166   0.611   5.022  0.2134  0.5180 -0.0819
13575TIP3    H162140   6.094   0.657   5.065  0.7051  1.0680  0.1763
13575TIP3    H262141   6.200   0.551   5.088 -0.9795 -0.8683 -0.6942
13576TIP3   OH262142   0.755   1.078   4.575  0.5300  0.0800  0.2474
13576TIP3    H162143   0.731   0.986   4.585  0.9578 -0.2826 -1.6725
13576TIP3    H262144   0.673   1.126   4.590 -0.5182 -0.8556 -2.0059
13577TIP3   OH262145   5.995   6.341  14.170 -0.2201  0.5585  0.0372
13577TIP3    H162146   5.948   6.366  14.091  0.3775  1.4352 -0.0503
13577TIP3    H262147   6.048   6.266  14.142 -0.9586  0.0534 -0.0555
13578TIP3   OH262148   3.067   4.864   1.198 -0.1603  0.2484  0.1372
13578TIP3    H162149   3.043   4.772   1.191  0.6096 -0.0023  0.6022
13578TIP3    H262150   3.128   4.878   1.126 -0.1286  0.3431  0.1817
13579TIP3   OH262151   3.613   4.027  12.556 -0.0351  0.2610  0.5877
13579TIP3    H162152   3.646   3.981  12.633  0.3552 -0.5432 -0.0377
13579TIP3    H262153   3.518   4.017  12.560 -0.1381  1.4505  1.7009
13580TIP3   OH262154   6.670   1.790  14.592 -0.1961  0.1352 -0.5000
13580TIP3    H162155   6.608   1.783  14.664  0.9671  1.8753  0.7739
13580TIP3    H262156   6.743   1.842  14.628  1.8071 -1.4277 -2.0304
13581TIP3   OH262157   3.959   3.060   3.406  0.0856  0.0042  0.7609
13581TIP3    H162158   4.033   3.057   3.466  0.9982  1.2535 -0.2363
13581TIP3    H262159   3.980   2.995   3.339  1.0800  1.4014 -0.3424
13582TIP3   OH262160   2.397   5.102  13.287 -0.4556 -0.0087 -0.0063
13582TIP3    H162161   2.468   5.053  13.247  0.6875  3.4456 -2.7347
13582TIP3    H262162   2.320   5.047  13.274  1.0839 -2.1992 -0.4271
13583TIP3   OH262163   3.814   0.888   5.782 -0.9585 -0.5781  0.2044
13583TIP3    H162164   3.760   0.898   5.859 -1.8360 -1.0326 -0.3367
13583TIP3    H262165   3.894   0.846   5.814 -1.8358 -1.9454  0.6884
13584TIP3   OH262166   2.422   4.668   5.105  0.3118  0.4877 -0.3892
13584TIP3    H162167   2.503   4.618   5.104 -0.3420 -0.6447 -2.5542
13584TIP3    H262168   2.433   4.733   5.036 -0.4273  0.6497 -0.3635
13585TIP3   OH262169   5.689   4.991  14.386  0.4368  0.8067  0.2518
13585TIP3    H162170   5.689   5.083  14.411 -1.2502  1.6952 -2.5455
13585TIP3    H262171   5.779   4.963  14.398  0.3131  1.6356  4.7313
13586TIP3   OH262172   3.206   5.421  14.005 -0.6703  0.5543 -0.1430
13586TIP3    H162173   3.162   5.431  14.089  0.2161  0.7492  0.3167
13586TIP3    H262174   3.280   5.482  14.009  1.2233 -1.6039  0.2231
13587TIP3   OH262175   6.159   5.978  14.951  0.1532 -0.3858 -0.4095
13587TIP3    H162176   6.167   5.955  14.859  1.1393  0.5905 -0.5932
13587TIP3    H262177   6.235   6.033  14.968 -0.9891  0.9644  0.5103
13588TIP3   OH262178   6.709   5.168  11.370 -0.0114 -0.0921  0.4494
13588TIP3    H162179   6.716   5.195  11.278 -2.1670  1.2707  0.6293
13588TIP3    H262180   6.793   5.194  11.408 -0.5796  3.2167 -0.2594
13589TIP3   OH262181   0.243   6.444   5.689 -0.0771 -0.1693 -0.7754
13589TIP3    H162182   0.186   6.373   5.718 -0.7469  0.2033 -1.1519
13589TIP3    H262183   0.231   6.447   5.594  0.0210  0.3801 -0.7727
13590TIP3   OH262184   3.183   2.468   0.631 -0.0587  0.1120  0.8276
13590TIP3    H162185   3.128   2.434   0.701 -0.3950  0.6142  0.8139
13590TIP3    H262186   3.259   2.505   0.675  0.1262 -0.3045  0.8670
13591TIP3   OH262187   4.834   4.335  12.727 -0.6299 -0.4575 -0.3023
13591TIP3    H162188   4.923   4.302  12.740 -0.5774 -0.9936 -1.8006
13591TIP3    H262189   4.839   4.428  12.751  0.8749  0.0510 -2.3165
13592TIP3   OH262190   4.741   5.682   5.744 -0.5097 -0.3200  0.1914
13592TIP3    H162191   4.654   5.720   5.735 -0.2790  0.7087  2.0117
13592TIP3    H262192   4.730   5.610   5.805 -0.2308 -0.7765 -0.2841
13593TIP3   OH262193   2.654   2.964   4.614  0.1056 -0.0392 -0.8076
13593TIP3    H162194   2.586   2.960   4.547  0.0129 -0.2726 -0.7001
13593TIP3    H262195   2.639   3.048   4.658 -0.5167 -0.3735 -0.3626
13594TIP3   OH262196   5.594   3.768   2.903 -0.2915  0.9339  0.4202
13594TIP3    H162197   5.517   3.716   2.925 -1.2265  1.3318 -1.6369
13594TIP3    H262198   5.603   3.831   2.975 -0.6946 -0.3664  1.6384
13595TIP3   OH262199   2.143   5.779   0.917  0.1734 -0.9460  0.0354
13595TIP3    H162200   2.178   5.763   0.829  0.7576 -0.8873  0.2530
13595TIP3    H262201   2.215   5.822   0.964 -0.9685  1.4997 -0.2543
13596TIP3   OH262202   1.306   4.508  15.189  0.3498 -0.2078 -0.0416
13596TIP3    H162203   1.241   4.439  15.183 -0.8489  0.9942 -1.8814
13596TIP3    H262204   1.387   4.468  15.159  0.3767 -1.5388  1.6534
13597TIP3   OH262205   1.959   3.195  15.092  0.1547 -0.2966 -0.6896
13597TIP3    H162206   1.995   3.246  15.019  0.1773  1.9118  0.7892
13597TIP3    H262207   2.033   3.184  15.152 -0.0565 -1.4235 -0.6162
13598TIP3   OH262208   6.008   0.101  15.922 -0.2071  0.2482 -0.1410
13598TIP3    H162209   5.953   0.031  15.887 -0.6743  0.6975 -0.3153
13598TIP3    H262210   5.947   0.172  15.941  0.1834  0.3994  0.5876
13599TIP3   OH262211   2.049   5.434   2.054 -0.2231 -0.2789  0.3958
13599TIP3    H162212   1.971   5.379   2.058  0.5872 -1.4628  0.5796
13599TIP3    H262213   2.122   5.372   2.053  0.7248  0.7957  0.3273
13600TIP3   OH262214   2.142   0.123   0.110 -0.3481 -0.3751  0.6299
13600TIP3    H162215   2.132   0.212   0.144  1.8819 -1.0039  3.3837
13600TIP3    H262216   2.091   0.068   0.170  0.6739 -1.1845  0.7948
13601TIP3   OH262217   5.851   6.690  16.760  0.0265  0.0021  0.3695
13601TIP3    H162218   5.869   6.630  16.688 -0.4387  1.5234 -1.0774
13601TIP3    H262219   5.761   6.670  16.786 -0.1966  0.1952 -0.2404
13602TIP3   OH262220   1.721   0.940  11.892  0.7741 -0.2220  0.5756
13602TIP3    H162221   1.647   0.992  11.861 -0.9622 -2.1944  1.1868
13602TIP3    H262222   1.695   0.911  11.980  2.5561 -0.4626  1.0592
13603TIP3   OH262223   0.062   3.457   4.506  0.0028 -0.6540 -0.3434
13603TIP3    H162224   0.031   3.546   4.489  2.2494 -0.0471 -1.5876
13603TIP3    H262225   0.043   3.409   4.426  0.5184 -0.7966 -0.3791
13604TIP3   OH262226   0.906   1.904  12.337 -0.8629  0.0048 -0.2235
13604TIP3    H162227   0.895   1.997  12.316 -0.7579 -0.2466 -1.5125
13604TIP3    H262228   1.000   1.888  12.328 -0.5934  0.1602  1.8429
13605TIP3   OH262229   2.560   1.564   1.233 -0.6393  0.3763  0.1019
13605TIP3    H162230   2.482   1.621   1.238 -0.9174 -0.0395  0.6853
13605TIP3    H262231   2.550   1.504   1.307  0.1392  0.1832  0.0572
13606TIP3   OH262232   1.144   4.545   1.561  0.4928 -0.2579 -0.0601
13606TIP3    H162233   1.173   4.586   1.642  1.5516  1.3673 -1.2131
13606TIP3    H262234   1.217   4.490   1.534  0.3544 -0.3817 -0.1884
13607TIP3   OH262235   5.591   4.411   3.738 -0.2441  0.8815  0.4438
13607TIP3    H162236   5.669   4.394   3.686  0.5204 -0.1268  1.8588
13607TIP3    H262237   5.521   4.365   3.691  0.0960  1.3398 -0.5408
13608TIP3   OH262238   4.621   5.137  16.716 -0.7019 -0.1843  0.8140
13608TIP3    H162239   4.528   5.158  16.713 -0.7314 -0.2403  1.2436
13608TIP3    H262240   4.665   5.220  16.694 -0.8328  0.1662  1.7971
13609TIP3   OH262241   1.250   3.937  14.962 -0.1060  0.0784  0.0421
13609TIP3    H162242   1.273   4.017  15.008 -1.1608  1.9104 -2.4347
13609TIP3    H262243   1.170   3.907  15.004  0.9042 -0.4136  1.7371
13610TIP3   OH262244   0.802   0.766  13.874  0.1627  0.0994 -0.3196
13610TIP3    H162245   0.828   0.854  13.846 -0.7111  0.2935 -0.5376
13610TIP3    H262246   0.883   0.715  13.866  0.5798  0.7741 -0.6126
13611TIP3   OH262247   1.723   0.109  13.431  0.5728  0.0332  0.0284
13611TIP3    H162248   1.793   0.044  13.423  0.7049  0.3082 -1.1594
13611TIP3    H262249   1.754   0.184  13.380 -2.5629 -1.5318 -4.8154
13612TIP3   OH262250   0.581   2.870  16.703 -0.2825  0.4357 -0.1921
13612TIP3    H162251   0.585   2.798  16.641  0.3346  0.8653 -0.6547
13612TIP3    H262252   0.577   2.827  16.789 -0.3909 -0.1509 -0.4835
13613TIP3   OH262253   5.495   5.823   0.090  0.8519  0.1656 -0.2967
13613TIP3    H162254   5.566   5.874   0.052  0.0187  1.6544  0.0666
13613TIP3    H262255   5.537   5.742   0.120  2.1591  0.4930 -1.1541
13614TIP3   OH262256   0.327   1.761  15.973  0.4062 -0.1131  0.0933
13614TIP3    H162257   0.327   1.702  16.048  0.5397 -1.3082 -0.8190
13614TIP3    H262258   0.347   1.705  15.898  0.8039  1.1443 -0.7738
13615TIP3   OH262259   2.150   3.793  16.544  0.0380 -0.3382  0.7208
13615TIP3    H162260   2.227   3.740  16.562 -0.8591 -1.1130  2.5684
13615TIP3    H262261   2.123   3.768  16.456  1.5228 -0.5025  0.2958
13616TIP3   OH262262   1.418   0.917   1.793 -0.0222 -0.4397 -1.4618
13616TIP3    H162263   1.421   1.003   1.751  0.1044  0.5637  0.4749
13616TIP3    H262264   1.508   0.903   1.824 -0.2963 -0.7334 -0.7778
13617TIP3   OH262265   4.556   5.821   3.352  0.1921  0.7436 -0.1265
13617TIP3    H162266   4.617   5.748   3.352 -0.6693 -0.0849  2.2133
13617TIP3    H262267   4.551   5.849   3.261  2.9002 -0.0803 -0.6088
13618TIP3   OH262268   2.311   0.470  16.100 -0.4998  0.0561 -0.3531
13618TIP3    H162269   2.237   0.440  16.048 -1.8706  2.5558 -0.0284
13618TIP3    H262270   2.376   0.498  16.036 -0.8281  0.0872 -0.6728
13619TIP3   OH262271   6.585   1.214  15.230 -0.1142  0.1491 -0.4378
13619TIP3    H162272   6.558   1.295  15.273 -0.4183  0.4101 -1.1031
13619TIP3    H262273   6.680   1.213  15.237 -0.2296 -1.4102  3.0908
13620TIP3   OH262274   6.646   0.006   0.266 -0.5604  0.0168 -0.7488
13620TIP3    H162275   6.661  -0.088   0.275  0.5005 -0.0039 -2.2528
13620TIP3    H262276   6.701   0.046   0.333 -0.9700 -0.4151 -0.1394
13621TIP3   OH262277   0.218   6.753  15.218 -0.2435  0.1939  0.4068
13621TIP3    H162278   0.220   6.661  15.190  0.0914  0.2811  0.1350
13621TIP3    H262279   0.180   6.750  15.306  0.1469 -0.2517  0.5650
13622TIP3   OH262280   0.595   2.568   2.913 -0.6380 -0.5837  0.2332
13622TIP3    H162281   0.662   2.539   2.850  0.5578 -0.1776  1.2665
13622TIP3    H262282   0.641   2.570   2.997 -1.7437  0.5235  0.8363
13623TIP3   OH262283   5.082   6.181   3.217 -0.1449 -0.8416  0.3009
13623TIP3    H162284   5.074   6.159   3.309  1.1261 -1.7379  0.2194
13623TIP3    H262285   4.999   6.223   3.195  0.5169  1.8494  2.4864
13624TIP3   OH262286   0.224   3.145   5.914  0.3120  0.0048  0.6747
13624TIP3    H162287   0.164   3.119   5.983  1.0405 -1.9751  0.6327
13624TIP3    H262288   0.293   3.078   5.916  0.5150  0.0631 -1.7415
13625TIP3   OH262289   5.196   4.067  12.638  0.7864  0.5302  0.7700
13625TIP3    H162290   5.121   4.014  12.614 -1.5161  3.3265  1.1591
13625TIP3    H262291   5.248   4.075  12.558 -0.2292 -0.1025  0.0315
13626TIP3   OH262292   0.926   0.405  11.934  0.4758  0.0808 -0.0742
13626TIP3    H162293   0.857   0.414  11.999  1.2521 -1.0353  0.9524
13626TIP3    H262294   0.904   0.470  11.867 -0.3509  1.2803  1.2840
13627TIP3   OH262295   0.364   1.748   3.923 -0.7741  0.0427 -0.0967
13627TIP3    H162296   0.306   1.817   3.954 -0.7690 -0.4360  1.0549
13627TIP3    H262297   0.422   1.791   3.860 -0.1391  1.3317  1.3001
13628TIP3   OH262298   4.668   5.382   2.687  0.1611 -0.5966 -0.3003
13628TIP3    H162299   4.620   5.335   2.619  0.3593  0.5117 -1.2514
13628TIP3    H262300   4.752   5.338   2.692  0.3041 -0.4370 -1.0968
13629TIP3   OH262301   6.600   1.260   4.118 -0.5400 -0.4646  0.4220
13629TIP3    H162302   6.536   1.198   4.152  1.0178 -2.9262 -0.8649
13629TIP3    H262303   6.639   1.216   4.042  1.0366  1.8892 -0.2655
13630TIP3   OH262304   5.740   3.268  13.659 -0.0604 -0.6395  0.0467
13630TIP3    H162305   5.657   3.261  13.612 -0.6566 -0.0865  0.9782
13630TIP3    H262306   5.778   3.350  13.629 -0.0680 -0.6710 -0.0484
13631TIP3   OH262307   1.425   1.929   6.398 -0.3163 -0.2782 -0.0062
13631TIP3    H162308   1.440   1.995   6.465  1.0955  0.4366 -0.9748
13631TIP3    H262309   1.453   1.847   6.438 -0.0731  0.0386  0.4818
13632TIP3   OH262310   0.583   6.707   2.779 -0.4427  0.4366  0.0855
13632TIP3    H162311   0.548   6.793   2.757 -0.7876  0.1463 -0.5039
13632TIP3    H262312   0.522   6.645   2.740  0.2759 -0.0792 -0.2431
13633TIP3   OH262313   4.677   2.916   3.374  0.4446 -0.8614  0.1629
13633TIP3    H162314   4.653   2.963   3.295 -0.2619  0.7130  1.2553
13633TIP3    H262315   4.623   2.837   3.373 -0.8039 -0.0290 -0.1041
13634TIP3   OH262316   4.622   6.370  11.493 -1.0303  0.1691 -0.4421
13634TIP3    H162317   4.691   6.319  11.537 -0.6538  1.1884  0.1742
13634TIP3    H262318   4.549   6.308  11.485 -1.1017 -0.0717  1.6151
13635TIP3   OH262319   3.434   0.924  14.254  0.0605 -0.0188 -0.7554
13635TIP3    H162320   3.392   0.966  14.179 -1.9076  0.9510  0.8012
13635TIP3    H262321   3.523   0.959  14.255 -1.4656  4.5157  0.5327
13636TIP3   OH262322   6.763   3.216   4.673 -0.4617  0.2589 -0.1641
13636TIP3    H162323   6.855   3.242   4.661  0.3653 -1.1440  2.4511
13636TIP3    H262324   6.754   3.136   4.621 -0.2767  0.5142 -0.5972
13637TIP3   OH262325   5.214   3.752  11.250  0.1353 -0.3724 -0.4204
13637TIP3    H162326   5.121   3.762  11.233 -0.0105  2.0093  1.3651
13637TIP3    H262327   5.249   3.841  11.249  2.1964 -1.1171  0.0144
13638TIP3   OH262328   1.881   2.727   2.493  0.7358 -0.1458  0.6803
13638TIP3    H162329   1.943   2.776   2.439  0.4519  0.2758  0.7341
13638TIP3    H262330   1.902   2.635   2.477 -0.3693 -0.1000 -1.3930
13639TIP3   OH262331   6.452   1.083   5.575 -0.2594  0.2328 -0.0421
13639TIP3    H162332   6.493   1.051   5.656  1.1285  1.4314 -0.2315
13639TIP3    H262333   6.481   1.020   5.509  0.9441  0.7977 -0.0856
13640TIP3   OH262334   2.497   1.040  12.184  0.5025  0.5310  0.1893
13640TIP3    H162335   2.407   1.018  12.160  1.0416 -0.6867 -0.8762
13640TIP3    H262336   2.493   1.131  12.212 -0.6683  1.3050 -2.2338
13641TIP3   OH262337   1.894   4.518  16.300  0.0750 -0.2560 -0.4323
13641TIP3    H162338   1.935   4.487  16.381 -0.7547 -0.6620 -0.1530
13641TIP3    H262339   1.846   4.442  16.268  2.6860 -1.0448 -2.8757
13642TIP3   OH262340   0.962   3.951  13.891 -0.5582 -0.5130 -0.0764
13642TIP3    H162341   0.960   3.978  13.800  0.0447  2.3293  0.6589
13642TIP3    H262342   0.894   4.003  13.933  0.2137 -0.6025  1.3491
13643TIP3   OH262343   4.734   0.792  16.022  0.1775 -0.2565 -0.5466
13643TIP3    H162344   4.661   0.855  16.026  0.1339 -0.3359  0.1710
13643TIP3    H262345   4.709   0.724  16.084  0.3559 -0.8465 -1.1157
13644TIP3   OH262346   1.375   6.351  12.711 -0.0316 -0.3172 -0.2010
13644TIP3    H162347   1.434   6.286  12.672 -0.6754 -0.3946 -1.0850
13644TIP3    H262348   1.313   6.299  12.761  0.4809 -0.2534  0.5137
13645TIP3   OH262349   2.916   6.341   2.223  0.0400  0.7622 -0.4147
13645TIP3    H162350   2.828   6.304   2.214  0.0364  1.0243 -1.7395
13645TIP3    H262351   2.958   6.289   2.291 -0.5415 -0.5472 -1.0350
13646TIP3   OH262352   5.370   0.098   1.991  0.4196  0.2937  0.0593
13646TIP3    H162353   5.360   0.026   1.929 -1.1948  0.0341  0.5722
13646TIP3    H262354   5.461   0.126   1.980  0.7867 -1.1265 -0.8958
13647TIP3   OH262355   3.916   5.997  14.016  0.0233 -0.3396 -0.0220
13647TIP3    H162356   3.968   5.925  13.979 -1.0157 -0.9395 -0.3584
13647TIP3    H262357   3.915   6.063  13.947  0.1498 -0.4217 -0.1034
13648TIP3   OH262358   0.612   4.772  13.829 -0.3654 -1.0664  0.0755
13648TIP3    H162359   0.602   4.862  13.859 -2.7205 -1.1069 -0.3764
13648TIP3    H262360   0.686   4.738  13.879  1.3103  1.3870 -0.5029
13649TIP3   OH262361   1.761   0.933   1.668  0.3169 -0.5158 -0.3151
13649TIP3    H162362   1.718   1.018   1.676  0.8847 -0.4034  2.4669
13649TIP3    H262363   1.703   0.883   1.610 -1.2782  0.9941 -0.1219
13650TIP3   OH262364   5.920   1.834  17.018 -0.2435 -0.5097 -0.1203
13650TIP3    H162365   5.938   1.746  17.052 -0.3067 -0.0472  1.1870
13650TIP3    H262366   5.896   1.885  17.096 -0.3525  0.6269 -0.8746
13651TIP3   OH262367   5.421   0.619   5.900 -0.4790 -0.4769 -0.0467
13651TIP3    H162368   5.420   0.528   5.871 -1.9496 -0.2230 -0.9302
13651TIP3    H262369   5.512   0.646   5.895 -0.3299 -1.2440 -1.9694
13652TIP3   OH262370   6.566   5.859   1.472  0.0296  0.0050  0.0029
13652TIP3    H162371   6.656   5.887   1.451  0.3908 -0.3154  1.0894
13652TIP3    H262372   6.561   5.865   1.567 -1.7459  1.9496 -0.1364
13653TIP3   OH262373   1.937   4.508  14.475 -0.4124  0.0495  0.1615
13653TIP3    H162374   1.902   4.479  14.391  0.9553  0.4421 -0.5861
13653TIP3    H262375   1.943   4.603  14.467 -1.4029  0.2090  1.1797
13654TIP3   OH262376   1.825   4.326   1.199  0.0565  0.9064  0.0190
13654TIP3    H162377   1.879   4.322   1.278  0.9429  0.1666 -0.5955
13654TIP3    H262378   1.749   4.271   1.219 -0.1361  1.3977  0.6512
13655TIP3   OH262379   3.442   5.364  14.405  0.0814  0.3418 -0.6794
13655TIP3    H162380   3.357   5.409  14.403 -0.3525 -0.4935 -2.4415
13655TIP3    H262381   3.420   5.271  14.412  0.7032 -0.0640 -3.0649
13656TIP3   OH262382   4.923   0.875   5.014 -0.6078 -0.4976  0.3908
13656TIP3    H162383   4.852   0.937   5.030  0.3722  0.3101  1.8659
13656TIP3    H262384   4.996   0.929   4.984  0.2082 -0.9437  1.5284
13657TIP3   OH262385   4.802   3.041  16.918 -0.2721  0.2573  0.0881
13657TIP3    H162386   4.889   3.065  16.949 -0.0865  0.5320 -0.6191
13657TIP3    H262387   4.759   3.124  16.900 -0.0814  0.1064 -1.1466
13658TIP3   OH262388   0.872   3.996  14.706  0.1416  0.0560  0.1804
13658TIP3    H162389   0.843   3.917  14.661 -0.5832 -0.0145  0.7537
13658TIP3    H262390   0.841   4.068  14.651 -1.0157 -0.0230  0.7040
13659TIP3   OH262391   3.484   6.429  10.776 -0.2593 -0.1975  0.4287
13659TIP3    H162392   3.512   6.444  10.866 -2.0497  2.2109  0.6596
13659TIP3    H262393   3.389   6.422  10.780 -0.4064  0.2540 -1.3226
13660TIP3   OH262394   1.412   2.985   1.160 -0.1711 -0.0968  0.1560
13660TIP3    H162395   1.367   2.982   1.076 -1.2888  2.1714  0.5955
13660TIP3    H262396   1.469   3.061   1.154  0.8898 -0.8158  0.9145
13661TIP3   OH262397   0.907   2.095   3.453  0.1533  0.2959 -0.4865
13661TIP3    H162398   0.925   2.001   3.458  0.5549  0.4008  0.1143
13661TIP3    H262399   0.858   2.105   3.371 -0.3974 -0.5196 -0.2809
13662TIP3   OH262400   1.239   4.221   6.301  0.5451 -0.3435 -0.0291
13662TIP3    H162401   1.174   4.187   6.362 -0.5291  0.1892 -0.8394
13662TIP3    H262402   1.321   4.180   6.328 -0.0241 -0.6442  1.3314
13663TIP3   OH262403   5.197   3.552   1.583  0.5739 -0.2266 -1.1070
13663TIP3    H162404   5.169   3.504   1.661 -1.0024 -2.0837 -2.7077
13663TIP3    H262405   5.292   3.541   1.581  0.6329 -0.2986  0.4149
13664TIP3   OH262406   3.632   6.071  13.307  0.5014  0.4511 -0.9223
13664TIP3    H162407   3.548   6.025  13.309 -0.2360  1.7297  1.0303
13664TIP3    H262408   3.655   6.083  13.399  3.4905 -0.9186 -1.3566
13665TIP3   OH262409   3.737   5.982  15.549 -0.1245 -0.1331  0.1617
13665TIP3    H162410   3.726   6.075  15.570  1.0566  0.2489 -0.8148
13665TIP3    H262411   3.648   5.945  15.556 -0.6426  1.1130  0.3434
13666TIP3   OH262412   2.350   5.349   1.886  0.3269  0.0911 -0.2924
13666TIP3    H162413   2.311   5.319   1.968  1.3660 -2.3273 -0.6251
13666TIP3    H262414   2.279   5.343   1.822  0.3985 -1.2995 -0.2564
13667TIP3   OH262415   2.823   1.904   3.772  0.0868 -0.9384  0.3313
13667TIP3    H162416   2.819   1.812   3.799  0.8186 -0.3883  2.4704
13667TIP3    H262417   2.765   1.950   3.832  0.7029  0.1788  0.0929
13668TIP3   OH262418   1.197   3.162  15.716 -0.2786 -0.3780  0.1497
13668TIP3    H162419   1.109   3.124  15.715 -1.0459  0.7494 -5.3176
13668TIP3    H262420   1.188   3.242  15.769 -1.3094 -2.2363  3.0098
13669TIP3   OH262421   3.036   1.458   2.364 -0.1844 -0.4774  0.0993
13669TIP3    H162422   3.085   1.451   2.446  2.1113  2.9086 -0.7741
13669TIP3    H262423   3.102   1.452   2.296 -1.7394 -0.9754 -1.4352
13670TIP3   OH262424   6.501   6.618   1.806  0.0604  0.2124 -0.2671
13670TIP3    H162425   6.510   6.545   1.868 -2.1117  0.2798  0.2230
13670TIP3    H262426   6.516   6.578   1.720  0.7067 -0.4026  0.1144
13671TIP3   OH262427   3.860   6.073  15.298 -0.1178  0.0272  0.1380
13671TIP3    H162428   3.846   6.055  15.391  1.0075 -1.8489  0.0167
13671TIP3    H262429   3.900   5.992  15.265  1.8296  1.5281 -1.4291
13672TIP3   OH262430   0.013   6.446   1.445  0.4847  0.5504  0.6465
13672TIP3    H162431   0.059   6.383   1.390 -0.8143 -1.3630  1.6320
13672TIP3    H262432   0.082   6.492   1.492  1.5094  0.6423 -0.8766
13673TIP3   OH262433   2.973   5.525   1.600 -0.0125  0.2807 -0.4255
13673TIP3    H162434   2.988   5.437   1.566  0.6123  0.5564 -0.8963
13673TIP3    H262435   2.951   5.513   1.692 -0.0653 -0.3709 -0.5229
13674TIP3   OH262436   2.850   6.084   4.697 -0.0972 -0.0144  0.4133
13674TIP3    H162437   2.887   6.152   4.753  1.3415 -0.6487  0.2702
13674TIP3    H262438   2.783   6.129   4.645  0.7188  1.2586  0.4360
13675TIP3   OH262439   2.578   6.245  15.796 -0.1173 -0.3271 -0.8659
13675TIP3    H162440   2.625   6.202  15.724  1.8889 -1.6572  1.0803
13675TIP3    H262441   2.610   6.335  15.795  0.6296 -0.5832 -1.0863
13676TIP3   OH262442   6.571   1.214  15.901 -0.3023 -0.1517  0.1665
13676TIP3    H162443   6.485   1.175  15.886 -0.4588  0.5363 -0.8713
13676TIP3    H262444   6.551   1.305  15.926  0.1122 -0.1362  0.4491
13677TIP3   OH262445   5.341   5.991  12.289  0.2170  0.3951  0.1167
13677TIP3    H162446   5.307   5.904  12.312 -1.6492  1.7724  3.1221
13677TIP3    H262447   5.426   5.995  12.334  0.1695  0.2536  0.2208
13678TIP3   OH262448   6.197   1.398   4.719 -0.0203 -0.0487  0.3736
13678TIP3    H162449   6.226   1.419   4.808 -2.1408 -0.3972  1.1938
13678TIP3    H262450   6.219   1.306   4.708 -2.6046 -0.9328  1.8257
13679TIP3   OH262451   2.550   4.372  11.566  0.6068  0.2188  0.6194
13679TIP3    H162452   2.611   4.337  11.632  0.7204 -1.3713 -0.2643
13679TIP3    H262453   2.562   4.314  11.490 -0.0342  1.5640 -0.5499
13680TIP3   OH262454   4.807   3.577   3.030  0.0461  0.4146 -0.3812
13680TIP3    H162455   4.865   3.591   2.955 -1.2877 -0.5897 -1.6581
13680TIP3    H262456   4.761   3.660   3.040 -0.5305  0.2352 -1.3923
13681TIP3   OH262457   4.472   5.429   2.194 -0.0975 -0.3021 -0.1782
13681TIP3    H162458   4.399   5.488   2.213  0.3352  0.1831 -0.0014
13681TIP3    H262459   4.431   5.344   2.180 -0.6855 -0.0627  0.0642
13682TIP3   OH262460   4.096   2.722   3.622  0.4051 -0.3784 -0.1481
13682TIP3    H162461   4.151   2.693   3.695  0.4426  0.0499 -0.0038
13682TIP3    H262462   4.126   2.811   3.603 -0.9769  0.2925  0.6683
13683TIP3   OH262463   4.712   1.658   1.774 -0.1274 -0.2678 -0.0981
13683TIP3    H162464   4.680   1.575   1.737 -0.0088  0.6773 -2.5270
13683TIP3    H262465   4.633   1.703   1.802 -0.2041 -1.1341  1.1429
13684TIP3   OH262466   5.793   1.102   1.823  0.4505  0.2220 -0.1164
13684TIP3    H162467   5.753   1.177   1.866 -2.6944 -1.5140  0.3253
13684TIP3    H262468   5.779   1.117   1.730  2.4019  1.4383 -0.2607
13685TIP3   OH262469   5.394   3.234   0.477 -0.9155 -0.4329  0.6636
13685TIP3    H162470   5.300   3.257   0.478 -0.8039  0.2893 -1.0563
13685TIP3    H262471   5.435   3.307   0.430  0.4448 -0.9911  0.9589
13686TIP3   OH262472   0.604   0.494  13.543  0.3071 -0.1590  0.6246
13686TIP3    H162473   0.552   0.474  13.621  1.4332 -2.4792  0.8852
13686TIP3    H262474   0.560   0.449  13.472 -0.4960  1.6313 -0.0692
13687TIP3   OH262475   5.600   0.641   1.937 -0.7888 -0.2585 -0.4961
13687TIP3    H162476   5.540   0.705   1.899 -1.4208 -0.3469  0.3279
13687TIP3    H262477   5.586   0.647   2.031 -0.8782 -1.6243 -0.4009
13688TIP3   OH262478   6.366   6.665   3.070  0.1806  0.2833 -0.0234
13688TIP3    H162479   6.361   6.601   3.142 -0.9766  1.0384  0.5964
13688TIP3    H262480   6.295   6.726   3.088  0.0736  0.6727 -1.6516
13689TIP3   OH262481   3.652   1.841  14.584  0.3417 -0.4176 -0.3017
13689TIP3    H162482   3.624   1.796  14.503 -0.6650 -1.4206  0.5632
13689TIP3    H262483   3.606   1.925  14.581  2.3007  0.7025 -1.9736
13690TIP3   OH262484   4.882   4.966   0.441 -0.1643  0.2147 -0.4477
13690TIP3    H162485   4.977   4.963   0.449 -0.2519 -1.5516  0.4927
13690TIP3    H262486   4.854   5.027   0.510  0.2567  0.3649 -0.4078
13691TIP3   OH262487   3.577   3.549   5.112 -0.1891  0.5056  0.2625
13691TIP3    H162488   3.620   3.635   5.117  2.8248 -0.9173  1.2160
13691TIP3    H262489   3.602   3.515   5.026 -0.2451  0.0286  0.4349
13692TIP3   OH262490   5.616   3.384  16.635  1.0710 -0.0252 -0.3387
13692TIP3    H162491   5.634   3.415  16.724 -0.2019 -1.8927  0.6566
13692TIP3    H262492   5.640   3.456  16.579 -1.4782  2.7117  1.7539
13693TIP3   OH262493   0.712   0.726   0.954 -0.0431 -0.7696 -0.3929
13693TIP3    H162494   0.696   0.640   0.915  0.7194 -0.7062 -0.8743
13693TIP3    H262495   0.730   0.784   0.880 -0.0462 -0.3067 -0.0423
13694TIP3   OH262496   4.315   2.076  12.272  0.5311 -0.0297  0.2519
13694TIP3    H162497   4.331   2.143  12.339 -0.5377  0.8117 -0.2888
13694TIP3    H262498   4.231   2.037  12.297  1.0109 -0.9834  0.4033
13695TIP3   OH262499   4.903   0.987   1.839  0.5183  0.7292 -0.2390
13695TIP3    H162500   4.951   0.972   1.757 -0.6720 -1.0488 -0.6774
13695TIP3    H262501   4.817   0.948   1.823  0.1608  0.6104  1.7761
13696TIP3   OH262502   3.870   0.750   0.241  0.1871  0.5470  0.1696
13696TIP3    H162503   3.831   0.724   0.158  1.6185  0.6266 -0.5630
13696TIP3    H262504   3.946   0.693   0.252  0.6588  1.2704  0.8627
13697TIP3   OH262505   3.162   3.219  11.546  0.3853 -0.2708  0.1874
13697TIP3    H162506   3.211   3.152  11.498 -0.6247 -1.7346  1.1084
13697TIP3    H262507   3.079   3.226  11.500  1.0327  1.4992 -0.7963
13698TIP3   OH262508   1.740   3.983   4.641 -0.5194  0.3424  0.1591
13698TIP3    H162509   1.651   3.971   4.607  0.0449 -2.4436 -0.6342
13698TIP3    H262510   1.756   3.905   4.693  1.1255  1.2965  1.1565
13699TIP3   OH262511   5.170   2.130  17.000  0.3097 -0.2338  0.6427
13699TIP3    H162512   5.122   2.187  17.060  0.6549 -0.6684  1.3484
13699TIP3    H262513   5.136   2.153  16.913  1.2219  1.8424  0.7663
13700TIP3   OH262514   0.487   0.179   0.855  0.4353  0.2375  0.8097
13700TIP3    H162515   0.503   0.092   0.817 -0.3090  0.1222  0.7422
13700TIP3    H262516   0.545   0.237   0.807 -0.5182  0.1071 -0.5622
13701TIP3   OH262517   1.400   1.977  11.437 -0.1371 -0.2504 -0.3984
13701TIP3    H162518   1.403   2.043  11.368 -1.2816  1.8019  1.3808
13701TIP3    H262519   1.407   2.027  11.519  0.5563 -2.5016  1.0249
13702TIP3   OH262520   2.460   4.456   5.397 -0.5042  0.2909  0.8344
13702TIP3    H162521   2.528   4.392   5.418 -1.2478 -0.5268  0.8050
13702TIP3    H262522   2.507   4.531   5.361  0.2973 -0.6409 -0.0917
13703TIP3   OH262523   4.467   1.832  13.648  0.2060 -0.9376 -0.2488
13703TIP3    H162524   4.499   1.842  13.738  0.0373 -0.2667 -0.2594
13703TIP3    H262525   4.395   1.894  13.641  1.0015 -0.0858 -1.2261
13704TIP3   OH262526   1.789   3.227   1.303 -0.1869 -0.4781  0.6709
13704TIP3    H162527   1.835   3.226   1.387  1.1697 -0.5917 -0.0546
13704TIP3    H262528   1.782   3.320   1.281  0.6676 -0.4925  0.2859
13705TIP3   OH262529   1.876   0.450   5.750  0.0659 -0.3546  0.1445
13705TIP3    H162530   1.786   0.422   5.766  0.3104  0.1638  2.8503
13705TIP3    H262531   1.922   0.431   5.832  2.5207 -0.8370 -1.2310
13706TIP3   OH262532   1.034   5.645   5.175 -0.1092 -0.0842 -0.6547
13706TIP3    H162533   0.984   5.581   5.126 -0.6170  0.9049 -1.4673
13706TIP3    H262534   0.993   5.729   5.154 -0.4264  0.3717  1.5752
13707TIP3   OH262535   6.304   3.903   2.413 -0.3911  0.0110 -0.0667
13707TIP3    H162536   6.355   3.965   2.359 -1.0273  1.5927  1.0688
13707TIP3    H262537   6.329   3.923   2.503 -0.4672 -1.5742  0.3395
13708TIP3   OH262538   2.183   0.457   3.729 -0.8762 -0.6885 -0.2083
13708TIP3    H162539   2.199   0.409   3.810  2.9006 -0.2757 -0.5461
13708TIP3    H262540   2.270   0.473   3.693 -2.0116  3.8596 -1.5985
13709TIP3   OH262541   4.550   5.032  13.562  0.3180 -0.5019 -0.1523
13709TIP3    H162542   4.602   5.049  13.640  0.2534  0.1463 -0.2488
13709TIP3    H262543   4.524   4.940  13.571  1.9032 -1.0027 -0.3638
13710TIP3   OH262544   5.608   0.477  16.944 -0.6643  0.4471 -0.2806
13710TIP3    H162545   5.588   0.562  16.903  2.4329  0.7538 -1.4516
13710TIP3    H262546   5.644   0.424  16.872  2.1460 -0.0589  1.3622
13711TIP3   OH262547   3.948   4.630  16.282  0.4490  0.0251 -0.1099
13711TIP3    H162548   4.035   4.601  16.256  0.6800  1.3414 -0.9165
13711TIP3    H262549   3.933   4.709  16.231 -1.2624 -0.2202 -0.0536
13712TIP3   OH262550   0.112   0.518   5.871  0.0138 -0.0396 -0.0073
13712TIP3    H162551   0.113   0.602   5.916  0.1727  0.3303 -0.6944
13712TIP3    H262552   0.194   0.515   5.823  1.5602 -1.9585  2.4730
13713TIP3   OH262553   2.932   1.768  15.138  0.2084  0.3910 -0.1408
13713TIP3    H162554   2.977   1.762  15.223  2.2701 -0.0608 -1.1915
13713TIP3    H262555   2.987   1.827  15.087 -1.1586  0.8729 -1.1054
13714TIP3   OH262556   2.975   0.801   2.626 -0.4140  0.1087  0.2533
13714TIP3    H162557   2.891   0.789   2.582  0.2762 -0.7071 -0.8852
13714TIP3    H262558   2.967   0.751   2.707 -0.7954 -0.4954 -0.1518
13715TIP3   OH262559   4.782   3.382  14.045 -0.3547 -0.1811  0.1754
13715TIP3    H162560   4.858   3.329  14.023 -1.1400 -0.9597 -0.6971
13715TIP3    H262561   4.768   3.438  13.968  1.2430  2.3183  1.5358
13716TIP3   OH262562   4.734   6.619   4.345  0.2192  0.1288  0.2637
13716TIP3    H162563   4.792   6.552   4.309 -1.2715 -1.4507  0.6565
13716TIP3    H262564   4.724   6.682   4.274  0.9621 -0.5142 -0.4471
13717TIP3   OH262565   5.145   0.168   1.610  0.0508  0.2272  0.4204
13717TIP3    H162566   5.220   0.225   1.593 -0.3976  0.7239  0.0360
13717TIP3    H262567   5.148   0.151   1.704 -0.2097  1.4804  0.6704
13718TIP3   OH262568   6.353   2.011   2.005  0.2837 -0.1321  0.0507
13718TIP3    H162569   6.434   2.038   2.049  0.6065  0.3550 -0.8172
13718TIP3    H262570   6.330   1.928   2.047 -0.6845  1.3757  2.7743
13719TIP3   OH262571   5.555   2.956  12.175  0.1830 -0.0605 -1.0490
13719TIP3    H162572   5.579   2.877  12.225 -0.2589  0.9663  0.8774
13719TIP3    H262573   5.511   2.922  12.097 -0.7225 -1.7306  0.1110
13720TIP3   OH262574   6.262   2.303  11.582  0.3136 -0.0429  0.4183
13720TIP3    H162575   6.252   2.299  11.486 -1.2236 -2.5090  0.5859
13720TIP3    H262576   6.173   2.291  11.615  0.9569 -0.2217  2.1540
13721TIP3   OH262577   5.877   2.985   0.921  0.3959 -0.0276 -0.0548
13721TIP3    H162578   5.864   3.004   1.014  0.2195 -2.3865  0.4638
13721TIP3    H262579   5.940   3.050   0.892  1.1468  0.2201  1.9475
13722TIP3   OH262580   0.312   3.757   0.077 -0.4768  0.2263 -0.3190
13722TIP3    H162581   0.351   3.722   0.157  2.4654  2.7204 -0.5008
13722TIP3    H262582   0.246   3.819   0.108  1.2379  1.8337  0.3373
13723TIP3   OH262583   3.900   2.290   4.835 -0.2498  0.2928 -0.1108
13723TIP3    H162584   3.919   2.375   4.875  1.1066  0.3262 -0.7942
13723TIP3    H262585   3.970   2.276   4.772 -1.2418 -0.6812 -1.0582
13724TIP3   OH262586   4.529   3.001   0.705 -0.4235 -0.0441 -0.0811
13724TIP3    H162587   4.452   3.044   0.669  0.4917  1.8885  0.1730
13724TIP3    H262588   4.603   3.041   0.660  0.4743 -1.8515 -0.3108
13725TIP3   OH262589   4.920   4.487   5.535  0.2045  0.3862 -0.8830
13725TIP3    H162590   4.952   4.554   5.595 -0.4922  0.3138 -0.4110
13725TIP3    H262591   4.923   4.405   5.586 -2.8988  0.7067  0.0881
13726TIP3   OH262592   4.789   2.689   0.423  0.3244  0.4318 -0.9037
13726TIP3    H162593   4.717   2.748   0.399  1.3198  1.1753 -2.2220
13726TIP3    H262594   4.753   2.601   0.410 -0.0411  0.7929 -2.6910
13727TIP3   OH262595   0.933   0.957   3.074 -0.0602 -0.0382 -0.1575
13727TIP3    H162596   0.933   0.895   3.000  0.9874 -1.1921  0.7670
13727TIP3    H262597   0.915   0.903   3.151  0.9772  0.7779  0.6907
13728TIP3   OH262598   5.376   4.598  15.643 -0.1176  0.4202 -0.1527
13728TIP3    H162599   5.439   4.666  15.618  0.5002 -0.4023 -0.8573
13728TIP3    H262600   5.425   4.539  15.700 -0.5855  0.4118  0.2556
13729TIP3   OH262601   0.418   2.315   6.198  0.4735 -0.0408 -0.6062
13729TIP3    H162602   0.422   2.405   6.166 -0.4425  0.2248 -0.0108
13729TIP3    H262603   0.452   2.319   6.287 -0.8514 -0.0145 -0.0796
13730TIP3   OH262604   4.105   0.880   4.259  0.2082 -0.1586  0.6954
13730TIP3    H162605   4.076   0.971   4.254 -0.7269 -0.3408  2.0495
13730TIP3    H262606   4.180   0.875   4.201  0.2973  1.4907  0.6219
13731TIP3   OH262607   5.374   4.887   0.130 -0.1638 -0.2124  0.6408
13731TIP3    H162608   5.438   4.882   0.200  2.0139 -0.8676 -1.2740
13731TIP3    H262609   5.382   4.803   0.084 -0.4781  0.7277 -1.2150
13732TIP3   OH262610   4.638   0.823  10.806  0.2747 -0.4854 -0.2756
13732TIP3    H162611   4.559   0.781  10.840 -0.2054  0.3642 -0.3259
13732TIP3    H262612   4.627   0.824  10.711  0.8795 -1.3982 -0.3676
13733TIP3   OH262613   2.506   4.502  15.141  0.2028  0.5911  0.4305
13733TIP3    H162614   2.561   4.514  15.063 -1.6130 -1.3499 -1.2976
13733TIP3    H262615   2.423   4.468  15.106 -0.4627 -1.0337  3.2728
13734TIP3   OH262616   4.299   2.404  16.084  0.4625  0.3931 -0.1941
13734TIP3    H162617   4.334   2.466  16.148  1.5985 -1.9581  1.5604
13734TIP3    H262618   4.373   2.384  16.027 -0.1142  1.1851 -1.2689
13735TIP3   OH262619   4.556   6.037  14.079  0.7066  0.9201 -0.1791
13735TIP3    H162620   4.523   6.013  13.993  2.0346  1.6537 -0.9329
13735TIP3    H262621   4.515   6.121  14.098 -1.3116 -0.2392  0.9475
13736TIP3   OH262622   3.375   3.325   1.981 -0.1671 -0.6877 -0.4042
13736TIP3    H162623   3.351   3.403   2.030  0.8931 -1.8390  2.0847
13736TIP3    H262624   3.458   3.349   1.938 -0.7659  0.1059 -1.1683
13737TIP3   OH262625   5.599   0.381  14.765  0.5067  0.3192  0.3973
13737TIP3    H162626   5.650   0.387  14.846  2.1267  2.3391 -0.6767
13737TIP3    H262627   5.640   0.310  14.716 -0.9458 -1.4215  1.5650
13738TIP3   OH262628   4.599   4.655   1.189 -0.0539  0.2300  0.0813
13738TIP3    H162629   4.533   4.725   1.191 -1.8760 -1.3986  0.1146
13738TIP3    H262630   4.589   4.609   1.273  1.3217  0.0822  0.1956
13739TIP3   OH262631   6.296   2.251  13.493  0.1263  0.5066 -0.2559
13739TIP3    H162632   6.277   2.158  13.497  2.1002  0.0919  0.8496
13739TIP3    H262633   6.211   2.294  13.502 -0.5867 -1.1599  1.7360
13740TIP3   OH262634   3.232   2.574  16.918 -0.5615  0.1271 -0.1422
13740TIP3    H162635   3.163   2.521  16.958 -2.1466  0.8304 -1.7990
13740TIP3    H262636   3.214   2.571  16.825  1.5309  0.5739 -0.6144
13741TIP3   OH262637   3.539   5.202   5.043 -0.3468 -0.7733 -0.3303
13741TIP3    H162638   3.600   5.190   5.115 -1.1349 -1.1080  0.2886
13741TIP3    H262639   3.452   5.193   5.082 -0.8148  0.0489 -1.1278
13742TIP3   OH262640   2.608   6.501  15.687  0.2156  0.4953 -0.0847
13742TIP3    H162641   2.658   6.558  15.629  0.5177  0.9363  0.5977
13742TIP3    H262642   2.646   6.516  15.774 -2.3778  2.3442  0.8344
13743TIP3   OH262643   1.596   4.982   2.091  0.1025 -0.0909 -0.0779
13743TIP3    H162644   1.547   5.045   2.037  1.4254  0.4382 -0.7128
13743TIP3    H262645   1.674   5.030   2.118  2.0983 -1.9488 -2.0971
13744TIP3   OH262646   4.251   0.205  13.660 -0.3333 -0.4664 -0.2707
13744TIP3    H162647   4.168   0.228  13.618 -0.5995 -0.7620  0.0788
13744TIP3    H262648   4.253   0.258  13.740 -0.7430 -1.3063  0.3146
13745TIP3   OH262649   0.904   2.975  10.982  0.1125 -0.7899  0.3507
13745TIP3    H162650   0.936   3.027  11.056 -1.5872  0.4780  0.2455
13745TIP3    H262651   0.941   2.888  10.997  1.1920 -0.1338  1.7626
13746TIP3   OH262652   2.875   3.436   6.006  0.1216  0.0651  0.1441
13746TIP3    H162653   2.834   3.443   6.093 -0.8603  0.5854 -0.3436
13746TIP3    H262654   2.957   3.390   6.022 -0.4019 -0.5240  1.2366
13747TIP3   OH262655   5.559   0.437   4.788 -0.3585 -0.2933 -0.1299
13747TIP3    H162656   5.490   0.373   4.803 -1.3925  1.2983  2.8656
13747TIP3    H262657   5.519   0.521   4.814  2.1624  0.9224  0.1192
13748TIP3   OH262658   6.710   1.879  15.645  0.7126  0.6473  0.1251
13748TIP3    H162659   6.660   1.917  15.718  0.8524  0.6435  0.2231
13748TIP3    H262660   6.684   1.787  15.643  1.0158  0.5549  0.4289
13749TIP3   OH262661   0.994   4.871  15.642  0.0385 -0.0643 -0.0465
13749TIP3    H162662   0.929   4.885  15.711 -0.8734 -0.8493 -0.7063
13749TIP3    H262663   1.049   4.949  15.644  0.2934 -0.2533  1.8236
13750TIP3   OH262664   2.672   3.121  15.647 -0.7083  0.0684 -0.0045
13750TIP3    H162665   2.639   3.032  15.657 -0.3788 -0.0697 -0.1507
13750TIP3    H262666   2.703   3.146  15.734  1.9347 -1.0433 -0.5529
13751TIP3   OH262667   5.502   6.760   2.642  0.2171 -0.0315  0.4411
13751TIP3    H162668   5.578   6.715   2.603 -1.4601 -1.5043 -1.3360
13751TIP3    H262669   5.483   6.831   2.581  1.2620  1.5712  1.8931
13752TIP3   OH262670   0.491   4.018  17.214 -0.0545  0.3548 -0.1415
13752TIP3    H162671   0.583   4.022  17.241  0.4100  3.3331 -1.7572
13752TIP3    H262672   0.445   4.074  17.276 -0.8642 -1.0962  0.6421
13753TIP3   OH262673   2.391   1.597   0.973 -0.6378  0.3999  0.2982
13753TIP3    H162674   2.476   1.588   0.930 -1.0795  0.7067 -0.6576
13753TIP3    H262675   2.399   1.545   1.053  0.5873  0.7694  0.4303
13754TIP3   OH262676   6.194   0.266  13.660 -0.1209  0.4348 -0.0957
13754TIP3    H162677   6.286   0.293  13.652  0.0635  0.0336  0.5408
13754TIP3    H262678   6.144   0.345  13.643  0.4097  1.2238  1.7529
13755TIP3   OH262679   1.094   4.709   0.646  0.4422  0.4333  0.7135
13755TIP3    H162680   1.114   4.648   0.717  3.0827 -0.8752 -0.9927
13755TIP3    H262681   1.014   4.753   0.674 -1.6209 -3.7154  2.1386
13756TIP3   OH262682   3.802   5.553  11.556 -0.0112  0.3951 -0.3328
13756TIP3    H162683   3.748   5.487  11.513 -3.2323  1.7389  1.2809
13756TIP3    H262684   3.809   5.624  11.492  0.1488  0.0455 -0.7007
13757TIP3   OH262685   2.607   4.433  16.240  0.1882  0.2071  0.1542
13757TIP3    H162686   2.565   4.405  16.322  0.3287 -3.2748 -0.8171
13757TIP3    H262687   2.700   4.415  16.253  0.2980  0.2324 -0.5431
13758TIP3   OH262688   1.848   5.639   6.278 -0.2734 -0.0013  0.1267
13758TIP3    H162689   1.859   5.555   6.323 -1.2211 -0.7022 -0.8765
13758TIP3    H262690   1.820   5.615   6.189 -1.5068  1.3775  0.0934
13759TIP3   OH262691   4.016   6.393   0.427 -0.3400 -0.1316 -0.1616
13759TIP3    H162692   4.094   6.338   0.429  0.7156  1.3190 -0.2829
13759TIP3    H262693   4.048   6.482   0.441 -2.0867  0.4014  0.8350
13760TIP3   OH262694   1.895   1.005   1.892  0.5184  0.1209  0.0990
13760TIP3    H162695   1.826   0.955   1.849  0.6905  1.4999 -1.8983
13760TIP3    H262696   1.976   0.970   1.854  0.7079  0.9786 -0.2984
13761TIP3   OH262697   5.390   2.187   5.732 -0.4234  0.3421  0.7954
13761TIP3    H162698   5.460   2.171   5.670 -1.2720 -1.4065  0.2355
13761TIP3    H262699   5.416   2.141   5.811 -0.8343 -0.1380  0.6543
13762TIP3   OH262700   5.610   3.650  16.051 -0.0088 -0.3547  0.0423
13762TIP3    H162701   5.550   3.610  16.115 -1.2417  0.8687 -0.2938
13762TIP3    H262702   5.554   3.710  16.001  1.1375 -0.5342 -1.5173
13763TIP3   OH262703   6.609   0.927   2.924 -0.3442 -0.3119 -0.4542
13763TIP3    H162704   6.526   0.901   2.883 -1.3336  0.0553  1.2360
13763TIP3    H262705   6.631   0.855   2.982 -1.0438  0.8271  1.2902
13764TIP3   OH262706   0.198   3.781   1.290  0.6191  0.3216 -0.2087
13764TIP3    H162707   0.148   3.790   1.209  1.2746 -0.5234 -0.7302
13764TIP3    H262708   0.288   3.765   1.260  0.9653  0.5635  0.6932
13765TIP3   OH262709   1.614   2.622  14.556 -0.2115 -0.5454  0.2010
13765TIP3    H162710   1.651   2.610  14.468 -0.5726 -0.4870  0.0412
13765TIP3    H262711   1.680   2.674  14.603 -1.4042  2.2900 -1.0164
13766TIP3   OH262712   0.465   5.314  13.989 -0.5731 -0.1937  0.1285
13766TIP3    H162713   0.530   5.370  14.031 -0.6263 -1.5577  2.1608
13766TIP3    H262714   0.392   5.374  13.970  1.0812  1.2915 -1.9366
13767TIP3   OH262715   2.858   0.974  14.408 -0.5209 -0.3592  0.0216
13767TIP3    H162716   2.923   0.903  14.404  3.6824  3.0888 -0.3258
13767TIP3    H262717   2.870   1.013  14.494 -2.2591  0.4175 -0.0458
13768TIP3   OH262718   5.328   6.588  13.745 -0.1943 -0.3653 -0.0322
13768TIP3    H162719   5.320   6.581  13.840  1.0141  0.7255  0.1894
13768TIP3    H262720   5.253   6.642  13.719  1.4396  2.5829  0.8581
13769TIP3   OH262721   1.865   6.371  14.407 -0.0494 -0.2040  0.1728
13769TIP3    H162722   1.935   6.422  14.365 -0.9059  0.2239 -0.7860
13769TIP3    H262723   1.909   6.322  14.476  1.0938  0.5290 -0.0051
13770TIP3   OH262724   1.027   1.045   4.519  0.0248 -0.2299  0.3617
13770TIP3    H162725   0.933   1.043   4.533 -0.1594 -1.2096 -0.7722
13770TIP3    H262726   1.054   0.953   4.521  0.5643 -0.1578 -1.5261
13771TIP3   OH262727   1.188   2.209   3.524  0.8020 -0.1321  0.3485
13771TIP3    H162728   1.205   2.288   3.574  0.7040 -0.0210  0.2071
13771TIP3    H262729   1.170   2.142   3.590  1.5946 -0.2096  0.4977
13772TIP3   OH262730   6.193   4.842   1.022  0.2712 -0.1615 -0.1733
13772TIP3    H162731   6.236   4.863   0.939 -2.2686  1.3625 -1.2330
13772TIP3    H262732   6.217   4.913   1.081  1.5144 -0.8802  0.2252
13773TIP3   OH262733   5.619   5.341   0.654  0.1659  0.2715  0.0011
13773TIP3    H162734   5.648   5.327   0.564  0.3939  0.3455  0.0616
13773TIP3    H262735   5.553   5.409   0.649  1.0224  1.1192  0.0275
13774TIP3   OH262736   1.600   3.315   2.851  0.0980 -0.3908  0.0935
13774TIP3    H162737   1.554   3.341   2.771  0.9399 -1.2625 -0.7109
13774TIP3    H262738   1.686   3.356   2.843  0.0693 -0.1904  0.7418
13775TIP3   OH262739   2.965   5.674  15.778 -0.5640 -0.1760 -0.0328
13775TIP3    H162740   2.889   5.708  15.825 -1.6096 -1.9703 -0.3375
13775TIP3    H262741   2.978   5.736  15.706 -1.5080  0.3585  0.2400
13776TIP3   OH262742   0.388   3.335   4.330 -0.0063 -0.2165 -0.6581
13776TIP3    H162743   0.409   3.242   4.335 -0.4817 -0.4516 -2.4352
13776TIP3    H262744   0.379   3.363   4.421  0.5035 -1.8148 -0.0922
13777TIP3   OH262745   5.060   5.021   4.895  0.3195  0.7015 -0.6906
13777TIP3    H162746   5.085   4.987   4.809 -0.8739  0.0834 -0.8035
13777TIP3    H262747   4.984   5.077   4.877 -1.1804 -0.9796  0.1799
13778TIP3   OH262748   6.004   4.194  14.009  0.6147  0.5052  0.3318
13778TIP3    H162749   5.975   4.246  13.934  0.2198  0.0960  0.1944
13778TIP3    H262750   6.099   4.204  14.010  0.4744  1.9699  0.8667
13779TIP3   OH262751   4.559   1.125   2.223  0.2257 -0.6389  0.3391
13779TIP3    H162752   4.598   1.117   2.310 -0.2074  0.4245  0.6483
13779TIP3    H262753   4.606   1.197   2.181 -0.5894 -0.1216  0.2758
13780TIP3   OH262754   5.921   0.010   6.137  0.0720  0.3118 -0.0560
13780TIP3    H162755   5.972  -0.035   6.069 -0.5602  0.5207 -0.6815
13780TIP3    H262756   5.900  -0.058   6.200 -0.6126 -0.2231 -0.8405
13781TIP3   OH262757   5.349   1.129  13.733  0.1807  0.4927  0.2520
13781TIP3    H162758   5.399   1.138  13.814  0.2374 -0.6794  0.3632
13781TIP3    H262759   5.407   1.162  13.664  1.7280 -2.1492  0.1859
13782TIP3   OH262760   2.325   6.164  14.183 -0.0722  0.6015 -0.4856
13782TIP3    H162761   2.329   6.130  14.272 -1.2978 -0.7560 -0.9196
13782TIP3    H262762   2.312   6.258  14.194 -0.9390  0.3599  0.7802
13783TIP3   OH262763   2.515   0.895   3.392  0.2585  0.1818 -0.0413
13783TIP3    H162764   2.499   0.893   3.298  0.4367 -1.3796 -0.0720
13783TIP3    H262765   2.607   0.920   3.400  1.3743 -3.1999 -0.5429
13784TIP3   OH262766   6.495   2.297  12.277  0.3520  0.1167  0.3152
13784TIP3    H162767   6.517   2.388  12.298  1.7655 -0.5321  1.9150
13784TIP3    H262768   6.466   2.260  12.361  1.2160 -1.2689  0.0334
13785TIP3   OH262769   4.421   3.729   1.138  0.0197 -0.5743 -0.0423
13785TIP3    H162770   4.353   3.661   1.140  0.4542 -1.0012  0.2874
13785TIP3    H262771   4.378   3.807   1.175 -0.4023 -0.7338 -0.1887
13786TIP3   OH262772   0.729   5.574   0.083  0.1712 -0.6581  0.2309
13786TIP3    H162773   0.751   5.514   0.013  2.0979 -0.6326  0.7478
13786TIP3    H262774   0.726   5.520   0.162 -2.0788 -0.7086  0.1753
13787TIP3   OH262775   5.756   3.680   0.347  0.0200 -0.0438 -0.3990
13787TIP3    H162776   5.806   3.741   0.401 -2.6022  2.4502 -0.5212
13787TIP3    H262777   5.672   3.672   0.392 -0.6670 -1.4382 -1.8377
13788TIP3   OH262778   1.827   1.217  14.134  0.5445  0.2857  0.4729
13788TIP3    H162779   1.798   1.126  14.136  1.7027 -0.1037  0.2874
13788TIP3    H262780   1.922   1.212  14.121  0.4289  1.5462 -1.0868
13789TIP3   OH262781   3.354   1.546   2.750  0.0459  0.0143  0.1329
13789TIP3    H162782   3.438   1.530   2.793  0.5993  0.2452 -0.8335
13789TIP3    H262783   3.289   1.535   2.819  0.7286 -1.9317  0.5243
13790TIP3   OH262784   1.048   0.430  13.112  0.2051 -0.3669 -0.4487
13790TIP3    H162785   1.001   0.492  13.056  0.3814  0.0099 -0.1800
13790TIP3    H262786   0.979   0.374  13.149  0.1315 -1.0491 -1.5404
13791TIP3   OH262787   4.996   4.438   4.818 -0.1250 -0.3618 -0.1246
13791TIP3    H162788   4.909   4.416   4.852 -0.3500  1.4859  0.6043
13791TIP3    H262789   5.005   4.385   4.739 -1.5383 -1.2648  0.2910
13792TIP3   OH262790   5.312   4.175  15.441  0.1125 -0.7224  0.0383
13792TIP3    H162791   5.322   4.269  15.427  0.4506 -0.4708  1.7841
13792TIP3    H262792   5.377   4.135  15.384  0.6104  0.1539 -0.0270
13793TIP3   OH262793   0.851   5.615  15.585  0.4769 -0.1021  0.2590
13793TIP3    H162794   0.772   5.564  15.602  2.1374 -2.1810  2.5944
13793TIP3    H262795   0.845   5.690  15.644 -0.1320  0.1941 -0.1820
13794TIP3   OH262796   2.210   2.498  10.291  0.2678 -0.0584 -0.1738
13794TIP3    H162797   2.146   2.494  10.361  1.4357  0.6005  0.9629
13794TIP3    H262798   2.278   2.556  10.323  0.5306  0.8012 -2.1229
13795TIP3   OH262799   3.892   5.865   4.842  0.3177  1.0044 -0.1745
13795TIP3    H162800   3.938   5.857   4.759  0.5137  1.1291 -0.0785
13795TIP3    H262801   3.799   5.869   4.818  0.3978  1.4632 -0.4156
13796TIP3   OH262802   4.705   1.267   3.544  0.5986 -0.5563  0.2474
13796TIP3    H162803   4.726   1.302   3.457  2.4383 -0.6592  0.6163
13796TIP3    H262804   4.771   1.305   3.601 -0.9472  0.0083  1.7624
13797TIP3   OH262805   6.338   2.341   5.800  0.0765 -0.4605  0.4447
13797TIP3    H162806   6.281   2.268   5.827 -0.6278 -0.0707  0.0462
13797TIP3    H262807   6.294   2.378   5.724  0.8615 -0.1236  0.1464
13798TIP3   OH262808   1.821   1.396   3.816 -0.1150  0.1173  0.1772
13798TIP3    H162809   1.769   1.426   3.890  0.1385 -0.2384  0.5119
13798TIP3    H262810   1.821   1.300   3.824  1.9695  0.1293  1.1960
13799TIP3   OH262811   1.440   4.200  14.055  0.8592  0.5354 -0.1948
13799TIP3    H162812   1.517   4.147  14.076 -0.8851 -1.7085  1.1080
13799TIP3    H262813   1.374   4.136  14.027 -0.7817  2.2660 -0.4780
13800TIP3   OH262814   5.852   4.912   1.328  0.2705 -0.4205  0.9024
13800TIP3    H162815   5.773   4.962   1.310  1.5769  1.3211 -0.3476
13800TIP3    H262816   5.902   4.915   1.246  0.8870 -2.9752  1.0854
13801TIP3   OH262817   4.151   2.964  15.081  0.0206  0.1783 -0.1343
13801TIP3    H162818   4.220   2.938  15.019 -0.5519 -0.1722 -0.6409
13801TIP3    H262819   4.155   2.899  15.151  0.9769  0.8438  0.4464
13802TIP3   OH262820   4.041   5.390  13.579  0.2916  0.5080  1.2989
13802TIP3    H162821   4.044   5.339  13.660  1.4660 -1.7116 -0.0339
13802TIP3    H262822   3.991   5.335  13.518 -1.1977  2.4456  0.6677
13803TIP3   OH262823   2.823   2.391  13.492 -0.1637  0.2671  0.4584
13803TIP3    H162824   2.846   2.358  13.405 -1.2977 -0.3464  0.3720
13803TIP3    H262825   2.732   2.418  13.484 -0.6851 -0.9991  1.7818
13804TIP3   OH262826   1.941   3.390  12.958 -0.1987  0.4680  0.7882
13804TIP3    H162827   1.959   3.298  12.975 -1.1645  0.4637  1.9713
13804TIP3    H262828   1.849   3.392  12.932 -0.1818  1.0868  0.7618
13805TIP3   OH262829   2.389   1.303  16.739  0.1098  0.2875  0.2828
13805TIP3    H162830   2.442   1.260  16.806  0.8081 -0.5141 -0.7360
13805TIP3    H262831   2.315   1.244  16.726  0.6969 -0.2727 -0.6120
13806TIP3   OH262832   1.029   1.713  11.954  0.3289 -0.0612  0.2166
13806TIP3    H162833   0.990   1.800  11.954  0.8690  0.1803  0.0443
13806TIP3    H262834   1.123   1.728  11.950  0.5390 -0.6227  2.2089
13807TIP3   OH262835   2.597   4.778  12.057 -0.2219  0.0403  0.1096
13807TIP3    H162836   2.548   4.823  11.988  1.2316  2.8154  0.7463
13807TIP3    H262837   2.668   4.733  12.011 -0.6211 -0.0917 -0.3861
13808TIP3   OH262838   2.387   3.210  12.301 -0.4338 -0.6145  0.6862
13808TIP3    H162839   2.354   3.141  12.243 -0.5401 -0.4334  0.5284
13808TIP3    H262840   2.463   3.171  12.345 -2.0280 -1.7378  2.5744
13809TIP3   OH262841   5.058   6.104  16.008 -0.7027  0.1401 -0.0988
13809TIP3    H162842   4.968   6.104  16.040 -0.7708 -0.7323 -0.2573
13809TIP3    H262843   5.098   6.028  16.050 -0.1543  0.2878 -0.3459
13810TIP3   OH262844   0.939   1.704  16.061  0.2985  0.1208 -0.4342
13810TIP3    H162845   0.927   1.787  16.014  1.5880 -0.4121 -1.7634
13810TIP3    H262846   0.852   1.663  16.059 -0.5463  1.6836  0.8561
13811TIP3   OH262847   5.653   0.497   3.948  0.2830  0.3287  0.0442
13811TIP3    H162848   5.664   0.578   3.999  2.3037 -0.1870  0.5038
13811TIP3    H262849   5.602   0.440   4.006  0.9106  0.4418  0.7328
13812TIP3   OH262850   3.410   2.270  16.802 -0.1524 -0.6729  0.1917
13812TIP3    H162851   3.482   2.323  16.837 -0.7656 -0.6157  1.4298
13812TIP3    H262852   3.388   2.209  16.873 -2.7816  0.7847  0.7752
13813TIP3   OH262853   3.049   3.972  11.885 -0.5968  0.7067 -0.2247
13813TIP3    H162854   3.135   3.935  11.905 -0.6634  0.9692  0.5923
13813TIP3    H262855   3.068   4.055  11.842 -0.4195  1.2756  0.9142
13814TIP3   OH262856   1.166   5.417  11.623 -0.0794  0.1431 -0.0150
13814TIP3    H162857   1.100   5.383  11.684  0.8014 -1.8873 -0.1081
13814TIP3    H262858   1.167   5.353  11.551  2.0190  0.0515  0.0386
13815TIP3   OH262859   1.468   5.222   6.006 -1.2936  0.1431 -0.2304
13815TIP3    H162860   1.384   5.219   5.961 -1.2639 -0.7934 -0.2452
13815TIP3    H262861   1.449   5.197   6.096 -0.9426 -0.7229 -0.3885
13816TIP3   OH262862   4.783   5.501  16.627  0.4263  0.2901  0.0460
13816TIP3    H162863   4.832   5.471  16.551  1.1013  0.0450  0.5591
13816TIP3    H262864   4.697   5.460  16.618  1.6238 -2.7894  1.2472
13817TIP3   OH262865   6.168   4.003  16.938 -0.6708 -0.4380 -0.1956
13817TIP3    H162866   6.183   3.950  17.016 -1.1766 -0.5622 -0.1787
13817TIP3    H262867   6.099   4.065  16.964 -0.2638  0.0628 -0.2918
13818TIP3   OH262868   0.751   1.960  12.741 -0.3507 -0.1759  0.0769
13818TIP3    H162869   0.708   1.916  12.814 -0.0527 -1.6939 -0.6203
13818TIP3    H262870   0.680   2.006  12.696 -0.3663  1.7464  1.9240
13819TIP3   OH262871   2.308   3.542  16.223  0.8415 -0.1272 -0.4132
13819TIP3    H162872   2.334   3.524  16.314  0.5054 -2.7764 -0.7700
13819TIP3    H262873   2.290   3.636  16.222  1.0398  0.0233  2.2099
13820TIP3   OH262874   4.918   3.243  11.648  0.2490  0.2055 -0.0173
13820TIP3    H162875   4.869   3.266  11.570 -1.9176 -0.2537  1.1268
13820TIP3    H262876   5.007   3.275  11.631 -0.4910  1.3665 -2.0597
13821TIP3   OH262877   0.480   2.195  12.779  0.0320  0.3677  0.0315
13821TIP3    H162878   0.386   2.212  12.773 -0.4768 -0.4446  3.5734
13821TIP3    H262879   0.492   2.109  12.740 -0.6689  0.5197 -0.5203
13822TIP3   OH262880   4.556   3.773  15.013  0.7069 -1.0478 -0.6705
13822TIP3    H162881   4.643   3.737  14.996  1.9110  0.8764  1.0199
13822TIP3    H262882   4.541   3.757  15.106  0.2893  0.6515 -0.4109
13823TIP3   OH262883   1.005   5.632  12.398 -0.0806 -0.0856  0.4259
13823TIP3    H162884   1.062   5.709  12.401  0.8779 -0.7043 -0.7871
13823TIP3    H262885   1.014   5.599  12.309  0.4247 -2.2343  1.1960
13824TIP3   OH262886   4.976   2.403   4.930  0.4603 -0.2445 -0.0699
13824TIP3    H162887   4.890   2.367   4.911  0.7111 -1.4293  0.8973
13824TIP3    H262888   4.962   2.498   4.939 -0.1896 -0.0149 -2.8150
13825TIP3   OH262889   3.974   4.163   1.494  0.2550  0.5262 -0.4695
13825TIP3    H162890   3.950   4.151   1.402 -0.3442 -1.5237 -0.0983
13825TIP3    H262891   4.068   4.184   1.491  0.5109 -0.6511 -1.5096
13826TIP3   OH262892   6.543   5.549   2.820 -0.1460 -0.1263  0.2100
13826TIP3    H162893   6.525   5.579   2.731 -1.6388  2.2559  1.2013
13826TIP3    H262894   6.612   5.607   2.852  0.0527 -0.6538  0.7736
13827TIP3   OH262895   2.371   3.213   2.557 -0.1110 -0.4189 -0.4171
13827TIP3    H162896   2.456   3.178   2.584 -0.0240  0.6615  0.7861
13827TIP3    H262897   2.312   3.190   2.628 -0.3239  0.7382 -0.1964
13828TIP3   OH262898   1.646   3.168  14.326 -0.4129 -0.2250  0.0423
13828TIP3    H162899   1.676   3.119  14.403  0.8861  1.2912  0.5641
13828TIP3    H262900   1.552   3.176  14.338 -0.1167  0.9051  2.0801
13829TIP3   OH262901   0.172   4.649  15.252 -0.8200  0.0469 -0.2366
13829TIP3    H162902   0.188   4.559  15.224  0.1394 -0.1377  0.8296
13829TIP3    H262903   0.257   4.680  15.282 -1.2025  1.2277 -0.3301
13830TIP3   OH262904   4.661   1.645  16.702  0.2455 -0.1476  0.1660
13830TIP3    H162905   4.714   1.624  16.780  0.4428  3.6830  1.2347
13830TIP3    H262906   4.571   1.641  16.733  0.3460  1.9939  0.8555
13831TIP3   OH262907   3.926   0.780  16.878 -0.7030  0.4041  0.3167
13831TIP3    H162908   3.878   0.735  16.947  0.1511  0.3082  0.8676
13831TIP3    H262909   3.902   0.872  16.888 -0.8040  0.3513  0.5604
13832TIP3   OH262910   2.445   4.027   3.857 -0.5174  0.1553  0.8613
13832TIP3    H162911   2.405   3.947   3.824 -0.2370 -0.8083  2.6928
13832TIP3    H262912   2.534   4.001   3.882 -0.7839  0.7162  2.5375
13833TIP3   OH262913   6.637   2.541   2.719  0.4945 -0.0446 -0.6160
13833TIP3    H162914   6.720   2.499   2.742 -0.0712 -0.9776 -0.2409
13833TIP3    H262915   6.581   2.469   2.691 -0.1864  0.5821 -0.8771
13834TIP3   OH262916   3.697   4.716   1.295  0.2216 -0.5090 -0.1877
13834TIP3    H162917   3.713   4.810   1.299  0.7125 -0.5921 -0.0440
13834TIP3    H262918   3.666   4.693   1.383  0.4885 -0.5460 -0.1024
13835TIP3   OH262919   6.300   2.489   2.270 -0.1766 -0.2354 -0.5540
13835TIP3    H162920   6.242   2.467   2.343 -1.1415 -2.5309 -1.9129
13835TIP3    H262921   6.379   2.525   2.312 -0.7027 -1.4245  1.6018
13836TIP3   OH262922   0.085   0.285  14.080  0.4746 -0.2739  0.0472
13836TIP3    H162923   0.077   0.190  14.083 -0.3163 -0.3568 -2.4995
13836TIP3    H262924  -0.004   0.318  14.091  0.2902 -0.0045 -1.8997
13837TIP3   OH262925   5.363   1.735   5.750  0.0135 -0.2456  0.0072
13837TIP3    H162926   5.445   1.772   5.782 -1.2116  2.0785  0.6793
13837TIP3    H262927   5.305   1.733   5.826 -1.0241 -0.4605 -0.7590
13838TIP3   OH262928   0.727   4.670   0.010  0.0830  0.2670 -0.0214
13838TIP3    H162929   0.752   4.597   0.067  3.9229  2.0152  0.8726
13838TIP3    H262930   0.632   4.674   0.016 -0.0005 -2.3488  2.7615
13839TIP3   OH262931   6.699   3.802  12.356 -0.0678 -0.1415  0.2262
13839TIP3    H162932   6.714   3.710  12.336 -0.3982 -0.5498  1.7356
13839TIP3    H262933   6.773   3.826  12.413 -0.1056  0.4635  0.0242
13840TIP3   OH262934   4.111   1.602   5.012  0.3246 -0.6848  0.4437
13840TIP3    H162935   4.152   1.660   5.077  1.8583  2.2382 -2.7984
13840TIP3    H262936   4.020   1.629   5.010  0.5377  0.0644  0.5286
13841TIP3   OH262937   2.761   0.231  11.418 -0.0737  0.7451 -0.2715
13841TIP3    H162938   2.841   0.270  11.454  0.4733  0.6210 -1.3052
13841TIP3    H262939   2.781   0.138  11.412  0.1306  0.8459 -1.5307
13842TIP3   OH262940   6.765   2.658  15.467  0.7625  0.0212 -0.1717
13842TIP3    H162941   6.730   2.589  15.523  2.2557  0.5198  1.4997
13842TIP3    H262942   6.754   2.739  15.518  0.8223  0.7211 -1.2338
13843TIP3   OH262943   6.741   5.584   0.728 -0.2275  0.5793  0.2697
13843TIP3    H162944   6.657   5.538   0.720  0.3914 -0.1772 -2.6491
13843TIP3    H262945   6.797   5.545   0.662  2.1170  1.8676  1.3730
13844TIP3   OH262946   2.649   4.063  15.821  0.1421 -0.5311  0.2163
13844TIP3    H162947   2.627   4.021  15.904 -1.6894 -2.2938 -1.0584
13844TIP3    H262948   2.573   4.116  15.800  0.9484  0.5918  0.0479
13845TIP3   OH262949   3.382   3.303   0.513  0.0371 -0.2839 -0.1904
13845TIP3    H162950   3.390   3.219   0.469  0.0964 -0.9344  1.0370
13845TIP3    H262951   3.352   3.363   0.444  1.5487 -0.9260 -1.4691
13846TIP3   OH262952   2.160   1.140  16.738  0.3388 -0.3884  0.3151
13846TIP3    H162953   2.091   1.103  16.682  2.8870 -0.8326 -2.8284
13846TIP3    H262954   2.195   1.065  16.786  1.1308 -0.9488 -1.0647
13847TIP3   OH262955   4.522   4.629  12.836  0.1711  0.3192  0.1664
13847TIP3    H162956   4.432   4.663  12.837  0.0965  0.2532  2.7937
13847TIP3    H262957   4.572   4.696  12.788 -1.2010  0.4860 -1.1069
13848TIP3   OH262958   2.606   0.641  15.553  0.3530 -0.2569 -0.0978
13848TIP3    H162959   2.613   0.548  15.569  2.4426  0.0334  0.9834
13848TIP3    H262960   2.697   0.672  15.546 -0.2626  1.7235 -0.1821
13849TIP3   OH262961   5.023   3.718   5.571 -0.1499 -0.0343  0.2764
13849TIP3    H162962   5.056   3.629   5.581  0.5655  0.1577 -0.2580
13849TIP3    H262963   4.949   3.724   5.632  0.7172 -0.5245  1.4141
13850TIP3   OH262964   4.255   2.936   1.466  0.3496 -0.0482  0.3391
13850TIP3    H162965   4.267   2.843   1.444  0.0960 -0.8289  3.1306
13850TIP3    H262966   4.160   2.949   1.462  0.4136  0.2341 -0.4613
13851TIP3   OH262967   0.349   2.931  15.673  0.0655  0.0926  0.8390
13851TIP3    H162968   0.389   2.938  15.759  0.2156 -0.8310  0.8522
13851TIP3    H262969   0.334   3.022  15.646  2.7587  0.5247  0.5492
13852TIP3   OH262970   5.335   4.065  16.949 -0.0899 -0.1752  0.1740
13852TIP3    H162971   5.361   4.133  16.887 -0.5627  0.8600  1.0721
13852TIP3    H262972   5.333   4.110  17.034 -1.6272 -0.9781  0.6033
13853TIP3   OH262973   2.480   4.617   4.211  0.2272 -0.0106 -0.5722
13853TIP3    H162974   2.469   4.693   4.269 -3.1193 -0.4272 -0.4749
13853TIP3    H262975   2.467   4.541   4.268 -0.2174 -0.5295 -1.3539
13854TIP3   OH262976   4.694   1.865  16.374 -0.1133 -0.1079 -0.2915
13854TIP3    H162977   4.671   1.953  16.405 -1.2821 -0.7491  0.7361
13854TIP3    H262978   4.733   1.880  16.288  0.6646  1.4991  0.2881
13855TIP3   OH262979   1.078   6.010   2.832  0.0722 -0.0225 -0.1610
13855TIP3    H162980   1.062   5.978   2.743 -3.2721  0.8140 -0.0050
13855TIP3    H262981   1.031   6.094   2.836 -0.3812 -0.2985  2.5208
13856TIP3   OH262982   3.271   3.170  13.596  1.2087  0.4605 -0.3685
13856TIP3    H162983   3.229   3.237  13.542  1.2198  0.1806 -0.7308
13856TIP3    H262984   3.347   3.142  13.544  1.0952  0.0364 -0.3043
13857TIP3   OH262985   0.341   3.777   6.038 -0.0210  0.4457 -0.5829
13857TIP3    H162986   0.377   3.726   6.110 -0.9976 -2.5223 -2.0364
13857TIP3    H262987   0.400   3.852   6.030  1.4770 -0.3699  1.7471
13858TIP3   OH262988   5.914   2.151   5.344 -0.3818 -0.1079 -0.3191
13858TIP3    H162989   5.969   2.208   5.290  0.0711  0.0339  0.2787
13858TIP3    H262990   5.898   2.202   5.423 -1.9661  0.1389 -0.7487
13859TIP3   OH262991   3.320   5.662   2.398  0.3411  0.0853 -0.3520
13859TIP3    H162992   3.270   5.585   2.426 -0.0180  0.7124  0.8265
13859TIP3    H262993   3.260   5.711   2.342 -0.1900  0.5217  0.5611
13860TIP3   OH262994   0.760   0.969   1.433  0.1911 -0.3395 -0.2274
13860TIP3    H162995   0.705   0.971   1.511  0.8725 -1.0138  0.2892
13860TIP3    H262996   0.739   0.885   1.391  2.8124 -2.0141  1.5097
13861TIP3   OH262997   3.922   0.283   2.545 -0.4716 -0.0711 -0.0877
13861TIP3    H162998   3.889   0.367   2.577  0.5378  1.1471 -1.9889
13861TIP3    H262999   3.907   0.287   2.450 -2.1034 -2.8780 -0.0450
13862TIP3   OH263000   4.470   3.006  11.118  0.4142 -0.6331 -0.1769
13862TIP3    H163001   4.516   3.026  11.199  1.4511 -2.0619 -0.3582
13862TIP3    H263002   4.380   3.034  11.133  0.1326 -2.4937  2.1942
13863TIP3   OH263003   1.435   4.244  13.752  0.5008  0.5437  0.0875
13863TIP3    H163004   1.358   4.222  13.804 -0.4921  2.2747 -0.5930
13863TIP3    H263005   1.437   4.178  13.683  0.2160 -0.0984  0.6808
13864TIP3   OH263006   1.282   1.136  13.172  0.8133  0.1648 -0.2703
13864TIP3    H163007   1.196   1.174  13.190  0.5220  0.3404 -1.8479
13864TIP3    H263008   1.301   1.080  13.247  0.7643  2.5520  1.6437
13865TIP3   OH263009   2.163   6.584  16.466  0.6212 -0.3792 -0.0352
13865TIP3    H163010   2.101   6.630  16.523  0.9204 -0.2216  0.1622
13865TIP3    H263011   2.112   6.565  16.387  0.3053 -0.2941  0.1437
13866TIP3   OH263012   4.614   2.193  15.597  0.0182  0.0301 -0.4588
13866TIP3    H163013   4.593   2.274  15.551 -0.2846  0.1474 -0.1127
13866TIP3    H263014   4.669   2.145  15.535 -1.3921 -0.3634 -1.4549
13867TIP3   OH263015   3.298   2.496  11.145  0.0883  0.1168 -0.8657
13867TIP3    H163016   3.284   2.582  11.184 -1.1072  0.3599 -1.7734
13867TIP3    H263017   3.384   2.503  11.103  1.0337  0.1018  0.9764
13868TIP3   OH263018   1.565   5.085  13.561 -0.1875 -0.4051  0.2424
13868TIP3    H163019   1.549   5.017  13.627 -2.0322 -0.7289 -0.4832
13868TIP3    H263020   1.654   5.070  13.532  0.6141 -0.4050  2.4699
13869TIP3   OH263021   1.414   5.391  15.322 -0.1625  0.0266 -0.2440
13869TIP3    H163022   1.376   5.467  15.368  0.2243 -0.0593  0.2267
13869TIP3    H263023   1.502   5.419  15.298  0.2730 -0.5436  0.6409
13870TIP3   OH263024   0.528   0.283  14.728  0.8420 -0.0143  0.0522
13870TIP3    H163025   0.492   0.365  14.695 -0.8267 -0.6023  0.2785
13870TIP3    H263026   0.508   0.219  14.659 -0.2164 -0.7132  0.9725
13871TIP3   OH263027   6.609   5.767   3.705  0.4052  0.1526 -0.1995
13871TIP3    H163028   6.685   5.753   3.762 -0.7394  0.0184  1.3693
13871TIP3    H263029   6.554   5.690   3.719  0.0775  0.1340 -1.5010
13872TIP3   OH263030   5.219   4.826   3.253 -0.5202  0.5912 -0.4929
13872TIP3    H163031   5.242   4.761   3.185 -1.3086  0.9964 -1.1641
13872TIP3    H263032   5.124   4.823   3.257 -0.4821  0.4837  0.7120
13873TIP3   OH263033   2.903   6.039  14.203  0.2210  0.1950  0.3600
13873TIP3    H163034   2.905   5.955  14.156  0.5108  0.4631 -0.1016
13873TIP3    H263035   2.813   6.070  14.192  0.0370 -0.1782  0.7582
13874TIP3   OH263036   1.973   1.727  16.453  0.0707 -0.1980  0.1159
13874TIP3    H163037   1.906   1.795  16.457 -1.8806 -1.9489 -0.9224
13874TIP3    H263038   1.980   1.705  16.360  0.0308 -1.9616  0.4949
13875TIP3   OH263039   4.249   3.353   4.645  0.5537  0.0694  0.7149
13875TIP3    H163040   4.265   3.384   4.734  0.5431  3.8062 -0.4105
13875TIP3    H263041   4.336   3.347   4.605  0.6635 -2.7375  1.2021
13876TIP3   OH263042   5.801   3.978   1.001  0.2976 -0.4029  0.2215
13876TIP3    H163043   5.763   4.045   0.944  0.3202  0.9006  1.6750
13876TIP3    H263044   5.789   4.013   1.090 -0.0921 -2.5445  1.0553
13877TIP3   OH263045   0.257   1.743  12.623 -0.2723 -0.4567 -0.2917
13877TIP3    H163046   0.317   1.750  12.548 -1.2261 -1.2325 -1.1670
13877TIP3    H263047   0.296   1.677  12.679 -0.7801 -1.7456 -1.3812
13878TIP3   OH263048   3.047   4.539  16.593 -0.0622  0.2032 -0.6122
13878TIP3    H163049   3.019   4.613  16.539 -1.8700  0.7505  0.9667
13878TIP3    H263050   3.040   4.571  16.683  0.2021 -1.5323  0.0559
13879TIP3   OH263051   3.532   5.498   3.399 -0.4020 -0.2284  0.9947
13879TIP3    H163052   3.519   5.548   3.480  0.0501 -2.1181  2.3094
13879TIP3    H263053   3.549   5.564   3.332  2.4983  1.3650  3.0557
13880TIP3   OH263054   6.329   1.132   0.253  0.7788 -0.6051  0.3402
13880TIP3    H163055   6.278   1.058   0.287  0.4948 -1.0896 -1.0811
13880TIP3    H263056   6.413   1.093   0.227  1.1048 -0.1862  0.7433
13881TIP3   OH263057   4.321   5.577  16.993  0.3261 -0.0132 -0.4206
13881TIP3    H163058   4.263   5.502  17.009 -0.1177  0.0405 -1.6835
13881TIP3    H263059   4.266   5.639  16.946  0.9204  0.7892 -0.0670
13882TIP3   OH263060   0.616   1.794   0.462  0.2833  0.6269  0.1800
13882TIP3    H163061   0.531   1.765   0.430 -0.0880  2.5602 -0.7353
13882TIP3    H263062   0.646   1.723   0.518 -0.8565 -1.1291 -1.3358
13883TIP3   OH263063   6.291   0.447   3.865  0.2738 -0.3119  0.0116
13883TIP3    H163064   6.221   0.461   3.929 -0.1986  0.7785 -0.7020
13883TIP3    H263065   6.366   0.495   3.900 -0.2232  0.9663 -0.6019
13884TIP3   OH263066   5.099   0.385  17.287  0.1921  0.2892  0.0076
13884TIP3    H163067   5.159   0.420  17.352  1.1253  1.3600 -1.3767
13884TIP3    H263068   5.146   0.311  17.249  0.2638  0.5519 -0.4266
13885TIP3   OH263069   0.988   4.833   0.953  0.5741  0.3988 -0.7110
13885TIP3    H163070   1.081   4.831   0.977 -0.0286  1.6654  2.1982
13885TIP3    H263071   0.975   4.922   0.919  0.3473  0.3520 -0.7417
13886TIP3   OH263072   4.325   0.443   4.021  0.6199  0.1758  0.0481
13886TIP3    H163073   4.401   0.395   3.989 -0.1436  0.1587 -1.8797
13886TIP3    H263074   4.362   0.519   4.066  1.7859 -0.9700  1.1133
13887TIP3   OH263075   0.367   2.712  11.070 -0.6449  0.4016  0.3828
13887TIP3    H163076   0.408   2.798  11.082  2.1288 -0.4711 -1.7083
13887TIP3    H263077   0.301   2.726  11.001  0.6496  0.7052 -0.8509
13888TIP3   OH263078   0.970   0.423  14.367  0.0429 -0.4179 -0.5265
13888TIP3    H163079   0.956   0.496  14.427  0.1964  1.5142 -2.6819
13888TIP3    H263080   0.888   0.372  14.371 -1.3588  1.6462 -1.1842
13889TIP3   OH263081   1.820   2.407  14.164 -0.2777 -0.5988  0.5649
13889TIP3    H163082   1.869   2.326  14.151 -1.4642 -1.1213 -0.7660
13889TIP3    H263083   1.742   2.398  14.111 -0.1498  1.6830 -0.1419
13890TIP3   OH263084   2.664   1.677  13.261  0.0885  0.0047  0.5763
13890TIP3    H163085   2.726   1.747  13.281  0.3888 -0.3541  0.9118
13890TIP3    H263086   2.654   1.681  13.166  1.0643 -0.2979  0.4509
13891TIP3   OH263087   0.029   3.805   1.071 -0.3435 -0.1394 -0.4815
13891TIP3    H163088  -0.037   3.852   1.020 -1.4236  0.2999  1.2519
13891TIP3    H263089  -0.009   3.718   1.085 -0.8722  0.2874  0.9863
13892TIP3   OH263090   5.111   0.696  13.008 -1.2233  0.2379  0.6332
13892TIP3    H163091   5.164   0.755  12.955  1.0918 -1.8616  0.4205
13892TIP3    H263092   5.047   0.659  12.947 -1.7509  1.4127  0.4560
13893TIP3   OH263093   3.897   5.870  16.133 -0.2109 -0.0196  0.3054
13893TIP3    H163094   3.896   5.806  16.204 -0.6396  0.1598  0.4655
13893TIP3    H263095   3.963   5.837  16.073  1.4621  0.7621  1.6394
13894TIP3   OH263096   5.270   5.886   2.127  0.1952 -0.5708 -0.1777
13894TIP3    H163097   5.250   5.801   2.165 -1.3273  0.1680  0.7846
13894TIP3    H263098   5.348   5.916   2.173 -0.4144 -0.6019  0.9032
13895TIP3   OH263099   6.532   2.289   6.486  0.1467  0.3267 -0.4613
13895TIP3    H163100   6.533   2.212   6.430  2.0572 -0.9133  1.1570
13895TIP3    H263101   6.482   2.262   6.563  0.4308  0.8524 -0.0872
13896TIP3   OH263102   5.256   0.960  14.266 -0.2239  0.1672  0.1550
13896TIP3    H163103   5.260   1.020  14.192  1.1838 -0.9462 -0.7228
13896TIP3    H263104   5.210   1.010  14.334 -0.9073  1.4806 -1.1895
13897TIP3   OH263105   5.233   5.404   4.320  0.3367  0.2124 -0.2715
13897TIP3    H163106   5.208   5.351   4.396 -0.0246  1.1061  0.2557
13897TIP3    H263107   5.321   5.436   4.341  1.3460 -1.6443 -1.4193
13898TIP3   OH263108   3.190   0.719   5.642 -0.4728  0.0693  0.5503
13898TIP3    H163109   3.144   0.739   5.723 -0.8173  0.5013  0.2480
13898TIP3    H263110   3.123   0.728   5.574 -0.3614 -0.9605  0.2828
13899TIP3   OH263111   6.731   1.462   4.765  0.4079  0.4134  0.2857
13899TIP3    H163112   6.718   1.549   4.801  0.1044  0.7807 -0.6960
13899TIP3    H263113   6.665   1.454   4.696  0.6108 -0.4867  0.1853
13900TIP3   OH263114   0.794   0.864   5.797 -0.2601  0.4692  0.1835
13900TIP3    H163115   0.806   0.821   5.713  0.7662 -0.0624  0.5776
13900TIP3    H263116   0.727   0.931   5.781  0.0989  0.5457 -1.1036
13901TIP3   OH263117   5.137   4.699  13.442  0.2428 -0.2700 -0.3676
13901TIP3    H163118   5.130   4.706  13.537 -0.8432  0.9495 -0.5128
13901TIP3    H263119   5.056   4.737  13.409  1.1131  0.4166 -1.8259
13902TIP3   OH263120   3.825   2.235  12.471  0.0943 -0.1840 -0.1548
13902TIP3    H163121   3.803   2.205  12.383 -1.4809  2.0738 -0.6107
13902TIP3    H263122   3.742   2.231  12.519  0.8028 -0.7921  1.0536
13903TIP3   OH263123   3.740   5.933  12.225  0.4399 -0.0107 -0.2062
13903TIP3    H163124   3.775   5.875  12.158  0.2682  0.3005 -0.5713
13903TIP3    H263125   3.733   6.018  12.181  0.4628  0.2295  0.2494
13904TIP3   OH263126   3.107   3.239   2.531 -0.2989  0.8205 -0.3325
13904TIP3    H163127   3.167   3.274   2.464 -1.1226  1.0896 -0.9384
13904TIP3    H263128   3.096   3.311   2.593 -1.2082  1.3060 -1.0480
13905TIP3   OH263129   6.323   0.134   0.607 -0.6889 -0.6723 -0.3093
13905TIP3    H163130   6.297   0.059   0.662  2.5100 -2.3221 -0.7970
13905TIP3    H263131   6.271   0.124   0.527 -1.7876 -1.1503  0.4357
13906TIP3   OH263132   6.019   6.520  11.320 -0.1482  0.6163 -0.0481
13906TIP3    H163133   6.054   6.609  11.325 -0.6485  0.8690 -0.6985
13906TIP3    H263134   6.005   6.506  11.226 -0.3131 -0.0515  0.0730
13907TIP3   OH263135   3.612   1.008  16.516 -0.3480 -0.4898 -0.0458
13907TIP3    H163136   3.596   1.012  16.610  3.6739  1.1464  0.7837
13907TIP3    H263137   3.641   1.096  16.492  2.4283 -1.7531 -1.9077
13908TIP3   OH263138   5.137   2.544   2.944 -0.0721  0.4221  0.3544
13908TIP3    H163139   5.159   2.489   3.019 -0.5663 -1.3100 -0.7173
13908TIP3    H263140   5.219   2.552   2.896 -0.2475 -0.3610 -0.0884
13909TIP3   OH263141   4.090   4.901   0.860 -0.1492  0.4395  0.2994
13909TIP3    H163142   4.136   4.984   0.843  0.6218  0.0899  0.6231
13909TIP3    H263143   4.160   4.840   0.882 -0.8373  0.0504  1.4342
13910TIP3   OH263144   6.052   2.069  13.056 -0.1016  0.4049  0.0421
13910TIP3    H163145   6.126   2.070  13.118  2.5089  0.2285 -2.8539
13910TIP3    H263146   5.983   2.022  13.103  1.3454  1.0986  3.1526
13911TIP3   OH263147   3.910   1.712  12.620  0.2026 -0.4192 -0.2235
13911TIP3    H163148   3.995   1.743  12.653  0.0068  0.1966 -0.2731
13911TIP3    H263149   3.852   1.718  12.695  0.3073 -1.2764 -0.0730
13912TIP3   OH263150   5.357   1.112  12.761  0.4251  0.4139  0.3388
13912TIP3    H163151   5.284   1.170  12.737  0.0309  0.3949  1.4545
13912TIP3    H263152   5.416   1.167  12.811  0.7360  0.1935  0.2161
13913TIP3   OH263153   4.515   3.294   0.934  0.2575 -0.2764 -0.0094
13913TIP3    H163154   4.503   3.389   0.939 -1.3491 -0.4828  0.9662
13913TIP3    H263155   4.589   3.282   0.875  0.1021  1.5623 -0.6528
13914TIP3   OH263156   5.727   1.818  16.372  0.1517 -0.1472  0.1801
13914TIP3    H163157   5.779   1.776  16.441  1.8899  0.8843 -0.4408
13914TIP3    H263158   5.662   1.752  16.349  1.3384 -1.6286  0.8338
13915TIP3   OH263159   3.074   0.925   4.138  0.0746 -0.6684  0.2859
13915TIP3    H163160   3.117   0.884   4.213  0.4637  1.3812  1.2640
13915TIP3    H263161   3.023   0.997   4.176 -0.5503 -0.2016 -1.3267
13916TIP3   OH263162   3.321   1.920   3.018 -0.3764 -0.6611  0.0287
13916TIP3    H163163   3.288   1.874   2.941  0.3847 -1.6018  0.2497
13916TIP3    H263164   3.256   1.903   3.086 -1.1967  0.4049 -0.4502
13917TIP3   OH263165   2.891   1.227  15.938  0.1961  0.4838  0.0033
13917TIP3    H163166   2.866   1.165  16.006 -1.4189  1.4233  0.3324
13917TIP3    H263167   2.812   1.280  15.924  0.7999  0.9584 -1.9041
13918TIP3   OH263168   5.362   0.926   2.187  0.2011 -0.0963  0.4357
13918TIP3    H163169   5.364   0.944   2.093 -1.9190  1.8821  0.6700
13918TIP3    H263170   5.436   0.976   2.222  0.4098 -0.0336 -0.0851
13919TIP3   OH263171   6.504   6.220   2.181  0.2457 -0.0401 -0.3849
13919TIP3    H163172   6.590   6.215   2.224 -0.2515  2.0365  1.0110
13919TIP3    H263173   6.514   6.288   2.115 -0.9266  2.0895  1.5126
13920TIP3   OH263174   0.419   2.748   4.679 -0.1450  0.2680 -0.6794
13920TIP3    H163175   0.459   2.724   4.596 -1.2182  1.3783 -1.5386
13920TIP3    H263176   0.463   2.829   4.704  0.0436  0.0372 -0.2426
13921TIP3   OH263177   2.153   4.722   3.436 -0.0117 -0.1096 -0.5382
13921TIP3    H163178   2.201   4.726   3.519 -0.2606 -0.1611 -0.3905
13921TIP3    H263179   2.216   4.751   3.371 -0.1168  0.9443 -0.1939
13922TIP3   OH263180   2.548   0.630  11.245  0.0794 -0.3004 -0.1128
13922TIP3    H163181   2.585   0.618  11.332  0.6672 -0.3463 -0.3698
13922TIP3    H263182   2.458   0.659  11.262  0.9045  2.0917  0.5412
13923TIP3   OH263183   5.434   6.357   4.092 -0.1189 -0.2584 -0.2040
13923TIP3    H163184   5.505   6.421   4.100 -0.3261 -0.0227 -0.2421
13923TIP3    H263185   5.460   6.302   4.018 -0.4029  0.3789 -0.7862
13924TIP3   OH263186   4.496   0.497   5.875 -0.0950  0.1505  0.2447
13924TIP3    H163187   4.486   0.472   5.966  3.3112 -1.1514  0.4034
13924TIP3    H263188   4.499   0.414   5.827  0.6172  0.7014 -0.7122
13925TIP3   OH263189   1.888   3.333   1.542  0.1192  0.1850 -0.2525
13925TIP3    H163190   1.917   3.418   1.573 -1.5769  0.9121 -0.5759
13925TIP3    H263191   1.854   3.289   1.621  0.1016  0.1884 -0.2583
13926TIP3   OH263192   6.683   0.988  11.880 -0.0151  1.1754  0.1444
13926TIP3    H163193   6.706   0.905  11.922  0.2184  1.8891  1.4703
13926TIP3    H263194   6.734   0.989  11.799 -1.0928 -0.5996 -0.6127
13927TIP3   OH263195   0.330   2.338  16.734 -0.3264 -0.5594  0.0776
13927TIP3    H163196   0.385   2.268  16.768  1.1853  0.4094 -0.2726
13927TIP3    H263197   0.342   2.410  16.796 -1.1051 -0.2801 -0.0830
13928TIP3   OH263198   4.338   3.359  11.837  0.1944 -0.1035  0.2076
13928TIP3    H163199   4.315   3.451  11.835 -0.1768 -0.1847  0.5388
13928TIP3    H263200   4.281   3.321  11.904 -1.7636 -1.1186 -1.8560
13929TIP3   OH263201   3.696   5.513   5.028  0.4996 -0.4074  0.0201
13929TIP3    H163202   3.691   5.497   4.934  1.6138 -0.5588 -0.0303
13929TIP3    H263203   3.712   5.607   5.035 -0.4513 -0.2416  0.1030
13930TIP3   OH263204   0.796   0.349  12.947 -0.4702  0.2442 -0.9314
13930TIP3    H163205   0.859   0.286  12.912  0.8012  0.4166  0.9184
13930TIP3    H263206   0.793   0.331  13.040 -0.1706  2.7892 -0.3467
13931TIP3   OH263207   2.375   5.593  13.210 -0.3095  0.7893 -0.6266
13931TIP3    H163208   2.449   5.537  13.232  0.1916  0.3929 -3.0542
13931TIP3    H263209   2.331   5.609  13.294  0.9444 -1.1907  0.4816
13932TIP3   OH263210   1.379   3.886   3.361  0.1214 -0.2683 -0.1859
13932TIP3    H163211   1.291   3.860   3.390 -0.7599  0.8212 -1.7385
13932TIP3    H263212   1.412   3.810   3.314 -0.8934  0.0377 -1.4448
13933TIP3   OH263213   3.686   6.680   2.598  0.0387 -0.3570 -0.0581
13933TIP3    H163214   3.715   6.603   2.548 -2.4993 -0.6256 -1.2478
13933TIP3    H263215   3.766   6.713   2.639  1.7005 -1.9566 -1.8110
13934TIP3   OH263216   3.162   5.670  15.994  0.2587  0.7543  0.1020
13934TIP3    H163217   3.109   5.670  16.074 -1.1006 -0.1350 -0.7656
13934TIP3    H263218   3.102   5.643  15.925  1.1370  2.4618 -1.4312
13935TIP3   OH263219   2.055   6.463  16.233  0.2473  0.0058 -0.1343
13935TIP3    H163220   1.982   6.484  16.175 -0.8085  0.3894  1.2865
13935TIP3    H263221   2.131   6.460  16.175 -0.5728  1.5551 -1.3664
13936TIP3   OH263222   1.945   4.230   1.933 -0.7602  0.2097 -0.6111
13936TIP3    H163223   1.933   4.255   1.842 -1.0290 -0.8501 -0.8819
13936TIP3    H263224   1.909   4.141   1.939 -1.4297  0.5284  0.6919
13937TIP3   OH263225   0.966   6.621   4.818 -0.0391 -0.5317  0.5780
13937TIP3    H163226   0.990   6.711   4.794 -0.9765 -0.4996 -0.3583
13937TIP3    H263227   1.042   6.587   4.865  1.2572  0.0108 -1.0113
13938TIP3   OH263228   4.958   2.290  14.522 -0.0169 -0.1104 -0.5734
13938TIP3    H163229   4.990   2.366  14.570 -0.1877 -1.1293  1.2571
13938TIP3    H263230   4.890   2.324  14.464  1.0734  1.3610 -1.0390
13939TIP3   OH263231   1.829   3.917  13.086  0.0981 -0.1027 -0.1389
13939TIP3    H163232   1.800   3.919  12.995  2.1367 -0.7157 -0.8622
13939TIP3    H263233   1.922   3.895  13.081  1.3295  3.6844  1.8441
13940TIP3   OH263234   2.158   0.051   4.984 -0.2500  0.1449 -0.1820
13940TIP3    H163235   2.122   0.111   5.049 -1.1038 -1.0591  0.5143
13940TIP3    H263236   2.250   0.041   5.008 -0.4083  0.1979  0.4723
13941TIP3   OH263237   5.201   3.195  12.809  0.0597  0.3457  1.1278
13941TIP3    H163238   5.138   3.266  12.821 -0.6797  0.8353 -3.7673
13941TIP3    H263239   5.149   3.115  12.810  0.0073  0.3797  1.0951
13942TIP3   OH263240   5.191   2.174  12.273  0.0532  0.1652  0.2584
13942TIP3    H163241   5.146   2.242  12.223 -0.6858 -0.6337 -0.1786
13942TIP3    H263242   5.131   2.152  12.344 -0.5413 -1.3079 -0.6581
13943TIP3   OH263243   5.102   4.051  13.021  0.2133 -0.8723  0.3291
13943TIP3    H163244   5.026   4.012  13.066  0.1766 -0.9840  0.1714
13943TIP3    H263245   5.133   3.981  12.963  1.2770 -1.3075  1.3947
13944TIP3   OH263246   0.014   4.613   1.484 -0.0371 -0.2927 -0.1553
13944TIP3    H163247  -0.005   4.538   1.541  1.9798 -0.2609  0.6575
13944TIP3    H263248   0.082   4.662   1.531 -0.6911  1.5928 -1.0750
13945TIP3   OH263249   3.936   2.516  13.117  0.0756 -0.0836 -0.0698
13945TIP3    H163250   3.902   2.427  13.113 -2.3133  0.7842 -0.2905
13945TIP3    H263251   3.976   2.530  13.031  0.9809 -1.1058  0.1698
13946TIP3   OH263252   5.233   4.919  15.628  0.2384  0.0728  0.0934
13946TIP3    H163253   5.211   5.007  15.597  1.6585  0.3257 -0.2653
13946TIP3    H263254   5.267   4.875  15.550  0.4363 -0.4811  0.4897
13947TIP3   OH263255   2.491   1.468  11.581  0.1563  0.6351 -0.0989
13947TIP3    H163256   2.486   1.514  11.665  1.4395 -0.2926  0.5228
13947TIP3    H263257   2.551   1.520  11.528  2.1600 -0.5645  0.8456
13948TIP3   OH263258   2.105   6.399   3.203 -0.3775 -0.2669  0.0902
13948TIP3    H163259   2.075   6.456   3.274  0.4943  0.0539  0.2102
13948TIP3    H263260   2.070   6.313   3.226  1.1842 -0.5173  1.7905
13949TIP3   OH263261   3.853   3.707   1.619  0.8078 -0.1903 -0.1164
13949TIP3    H163262   3.903   3.709   1.538  1.5975  2.0113  0.3550
13949TIP3    H263263   3.820   3.796   1.630 -3.6397 -1.5382 -0.5591
13950TIP3   OH263264   2.762   0.119  16.349 -0.2274  0.2289  0.3274
13950TIP3    H163265   2.856   0.131  16.337 -0.1919 -0.2414  0.1265
13950TIP3    H263266   2.740   0.178  16.421  0.2511  0.2211  0.4845
13951TIP3   OH263267   2.982   5.100   5.432  0.3484  0.0508 -0.2331
13951TIP3    H163268   2.941   5.018   5.404  0.9702 -0.2221 -0.3605
13951TIP3    H263269   3.020   5.137   5.352 -0.1016  0.5737 -0.2155
13952TIP3   OH263270   2.036   4.524   0.586 -0.4493  0.9222  0.0505
13952TIP3    H163271   2.080   4.577   0.652 -0.5292  1.5867 -0.4105
13952TIP3    H263272   1.995   4.453   0.635  2.2237 -0.5354  0.3932
13953TIP3   OH263273   5.026   6.473  11.221  0.1710 -0.1010 -0.1127
13953TIP3    H163274   5.075   6.555  11.229 -1.4929  1.1979 -2.0705
13953TIP3    H263275   4.953   6.495  11.164 -3.4450 -1.5484  3.4540
13954TIP3   OH263276   0.270   4.706  12.283  0.1478 -0.0463 -0.5096
13954TIP3    H163277   0.207   4.677  12.217  0.7626  0.2788 -1.2583
13954TIP3    H263278   0.314   4.781  12.243  0.2555  0.4127  0.4371
13955TIP3   OH263279   2.973   1.257  13.890 -0.0810  0.8398 -0.2628
13955TIP3    H163280   2.970   1.352  13.878  0.7888  0.9064 -0.0488
13955TIP3    H263281   2.892   1.236  13.937 -1.8484  1.0173 -3.0517
13956TIP3   OH263282   0.942   6.215  15.545  0.3246  1.0168 -0.1750
13956TIP3    H163283   0.939   6.160  15.466  0.4886  1.4049 -0.4541
13956TIP3    H263284   1.009   6.173  15.599  0.3457  0.8562 -0.3212
13957TIP3   OH263285   2.446   5.711   6.016  0.3761  0.3487  0.0292
13957TIP3    H163286   2.428   5.799   5.982  1.9793  1.1968  1.2403
13957TIP3    H263287   2.432   5.718   6.110 -1.8155 -1.3777 -0.0924
13958TIP3   OH263288   0.214   2.881  15.065  0.3127 -0.1190 -0.4754
13958TIP3    H163289   0.177   2.898  14.979  2.0574 -0.4927 -1.3397
13958TIP3    H263290   0.169   2.803  15.096 -0.2785 -0.0178 -1.0594
13959TIP3   OH263291   2.331   0.115  14.049  0.5466  0.1363  0.3405
13959TIP3    H163292   2.286   0.198  14.035 -0.4868  0.3931  4.1572
13959TIP3    H263293   2.417   0.139  14.082  1.4623 -0.4080 -1.4748
13960TIP3   OH263294   1.495   2.164   3.169  0.1758 -0.4513  0.6560
13960TIP3    H163295   1.507   2.139   3.261  0.7232 -0.5113  0.5682
13960TIP3    H263296   1.581   2.153   3.130 -0.1150 -0.6582  0.0764
13961TIP3   OH263297   0.680   2.352  15.192 -0.6118 -0.0322 -0.0525
13961TIP3    H163298   0.707   2.374  15.103 -0.2387  0.3607  0.1553
13961TIP3    H263299   0.762   2.339  15.239 -0.8120 -0.7940  0.1022
13962TIP3   OH263300   4.187   1.766  16.967 -0.1618 -0.0433  0.2389
13962TIP3    H163301   4.234   1.696  16.923  0.3531 -0.0530  0.7958
13962TIP3    H263302   4.255   1.827  16.996 -0.6693  1.5355 -1.6324
13963TIP3   OH263303   3.780   0.491   5.734  0.2918 -0.8339 -0.5755
13963TIP3    H163304   3.788   0.396   5.737  1.6109 -0.8178 -2.0833
13963TIP3    H263305   3.827   0.521   5.812  0.5212 -1.3969 -0.4900
13964TIP3   OH263306   0.183   3.796   2.057 -0.8910  0.3591  0.5530
13964TIP3    H163307   0.230   3.780   1.975  0.2952 -2.2879  1.6219
13964TIP3    H263308   0.133   3.875   2.041  1.6901  1.7082 -1.6869
13965TIP3   OH263309   6.702   6.273  15.929  0.0849 -0.4404  0.4463
13965TIP3    H163310   6.779   6.326  15.948 -0.5887  0.3163  1.1550
13965TIP3    H263311   6.682   6.293  15.837  1.0744 -1.1088  0.0784
13966TIP3   OH263312   3.291   6.087  10.680 -0.1000  0.1165 -0.5426
13966TIP3    H163313   3.345   6.015  10.713 -0.0905 -0.0098 -0.8293
13966TIP3    H263314   3.349   6.138  10.624  0.7499  2.0555  1.8941
13967TIP3   OH263315   3.161   6.082  17.228  0.1453  0.1067  0.0741
13967TIP3    H163316   3.254   6.063  17.244  0.6309  2.0111 -0.2646
13967TIP3    H263317   3.148   6.058  17.136  0.3480  0.0430  0.0613
13968TIP3   OH263318   0.310   5.842   1.642 -0.0922 -0.4134  0.6475
13968TIP3    H163319   0.273   5.913   1.694  1.6958 -0.3141  1.8833
13968TIP3    H263320   0.317   5.877   1.553 -1.7385 -0.0254  0.6549
13969TIP3   OH263321   1.304   4.216  10.469 -0.0818  0.5719 -0.1835
13969TIP3    H163322   1.398   4.216  10.454 -0.1728 -1.8327 -1.1211
13969TIP3    H263323   1.276   4.303  10.441  1.9498  1.7489  1.1507
13970TIP3   OH263324   3.303   3.706  16.423  0.4173  0.0377 -0.1419
13970TIP3    H163325   3.388   3.662  16.428  0.5129 -0.1057 -2.1938
13970TIP3    H263326   3.324   3.793  16.387 -0.2047  0.4036  0.3518
13971TIP3   OH263327   1.842   4.593   1.179 -0.6120  0.2640 -0.3501
13971TIP3    H163328   1.847   4.498   1.165  3.2149  0.2846 -0.2455
13971TIP3    H263329   1.865   4.631   1.094  2.0961  0.8648  0.5343
13972TIP3   OH263330   3.515   0.504   2.484  0.2446 -0.0457  0.1047
13972TIP3    H163331   3.509   0.557   2.405  0.5068 -1.4372 -0.8885
13972TIP3    H263332   3.446   0.438   2.474 -0.2018  0.1874  1.3938
13973TIP3   OH263333   5.180   5.421   4.825  0.2946  0.2787 -0.2885
13973TIP3    H163334   5.161   5.437   4.917 -1.1015  0.6820 -0.6094
13973TIP3    H263335   5.235   5.494   4.798  1.3325 -0.2335  0.3871
13974TIP3   OH263336   2.225   4.749  13.377 -0.0485 -0.1298 -0.2566
13974TIP3    H163337   2.252   4.691  13.449  2.1619  0.8121 -0.2558
13974TIP3    H263338   2.213   4.691  13.302 -1.6934 -1.0334  0.6458
13975TIP3   OH263339   0.253   0.936  17.013  0.8554  0.1588 -0.1723
13975TIP3    H163340   0.329   0.994  17.014  1.1582 -0.2060 -1.3879
13975TIP3    H263341   0.282   0.857  17.059  0.5298  0.8295  1.2357
13976TIP3   OH263342   3.257   0.028   3.084 -0.5459 -0.2651  0.1616
13976TIP3    H163343   3.295   0.049   2.999 -1.5228  1.2924  0.0627
13976TIP3    H263344   3.326  -0.017   3.132  0.5603  0.3064 -0.8652
13977TIP3   OH263345   5.121   6.132   2.113 -0.7841 -0.4153 -0.0680
13977TIP3    H163346   5.152   6.043   2.124 -0.0560 -0.0630  0.8909
13977TIP3    H263347   5.166   6.164   2.034  1.1948  0.0167  1.1722
13978TIP3   OH263348   0.969   6.341   0.188 -0.2375 -0.3476  0.5474
13978TIP3    H163349   0.889   6.328   0.239  0.0876 -1.5579  0.7625
13978TIP3    H263350   0.996   6.431   0.208 -0.3258 -0.6744  2.2209
13979TIP3   OH263351   5.861   6.381  13.280 -0.5978 -0.1980 -0.3692
13979TIP3    H163352   5.799   6.362  13.209  0.0838 -1.0963 -0.7419
13979TIP3    H263353   5.947   6.380  13.239 -0.2258 -0.2993  0.3877
13980TIP3   OH263354   5.109   3.942   0.162 -0.0034  0.2901 -0.4341
13980TIP3    H163355   5.167   3.909   0.230  0.0957 -0.7513 -1.0049
13980TIP3    H263356   5.103   3.871   0.098 -0.5875  1.0060 -1.2089
13981TIP3   OH263357   0.915   4.267   0.785  0.1478 -0.0691 -0.1554
13981TIP3    H163358   0.987   4.207   0.764 -0.0852 -0.2895 -0.3230
13981TIP3    H263359   0.850   4.252   0.717  0.3601  0.8376 -0.5754
13982TIP3   OH263360   6.073   5.932   1.035  0.2392 -0.1552 -0.0082
13982TIP3    H163361   5.994   5.979   1.058  1.2055  1.8351 -0.5009
13982TIP3    H263362   6.054   5.891   0.950 -0.6127 -0.6653  0.4228
13983TIP3   OH263363   4.991   2.804  14.955  0.7031  0.2187  0.1428
13983TIP3    H163364   4.896   2.792  14.950  0.6395  0.6477  0.3373
13983TIP3    H263365   5.026   2.733  14.900  0.2861 -0.1269  0.3119
13984TIP3   OH263366   4.740   5.326   1.281 -0.1856  0.3003  0.2232
13984TIP3    H163367   4.786   5.365   1.206  0.5783 -0.1307  0.4558
13984TIP3    H263368   4.750   5.232   1.269 -1.5463  0.1677 -0.0374
13985TIP3   OH263369   1.997   4.463   0.125 -0.0000  0.7311  0.0633
13985TIP3    H163370   1.915   4.497   0.089 -0.1362  0.2060 -0.1327
13985TIP3    H263371   2.032   4.535   0.176 -0.0936  1.2996 -0.6522
13986TIP3   OH263372   6.332   3.668  12.321  0.4333 -0.0260 -0.1572
13986TIP3    H163373   6.421   3.659  12.354  1.3542  4.1828 -0.9500
13986TIP3    H263374   6.323   3.598  12.256  3.5990  0.0587 -0.8526
13987TIP3   OH263375   4.117   1.004   5.854 -0.0320 -0.6451 -0.0390
13987TIP3    H163376   4.198   0.959   5.830  0.1965  0.1263 -0.7584
13987TIP3    H263377   4.049   0.958   5.803  0.4388  0.9175 -2.2253
13988TIP3   OH263378   6.639   6.177   6.908  0.2434  0.4648  0.1235
13988TIP3    H163379   6.629   6.151   6.816  2.2769 -1.9435  0.4815
13988TIP3    H263380   6.550   6.195   6.938 -1.0044 -2.6721 -1.2650
13989TIP3   OH263381   2.667   1.798  14.365 -0.1962 -0.3655 -0.1860
13989TIP3    H163382   2.694   1.747  14.441 -1.1284  2.9413  2.6396
13989TIP3    H263383   2.590   1.752  14.332 -0.6202 -1.2030  1.7977
13990TIP3   OH263384   1.888   0.807   3.106 -0.1930  0.3704 -0.2708
13990TIP3    H163385   1.920   0.864   3.175 -0.9290  1.0607 -0.4858
13990TIP3    H263386   1.832   0.863   3.052 -2.6807 -0.9835  0.7304
13991TIP3   OH263387   0.124   0.566  16.923  0.3882 -0.3889 -0.0245
13991TIP3    H163388   0.050   0.588  16.867  0.7606 -2.6196 -1.5238
13991TIP3    H263389   0.085   0.522  16.998  0.0353  0.9130  0.5914
13992TIP3   OH263390   1.899   0.531   3.171 -0.2145  0.0044 -0.0848
13992TIP3    H163391   1.904   0.626   3.161  0.7834  0.0569  0.6905
13992TIP3    H263392   1.991   0.503   3.178 -0.5312 -0.7746  1.6238
13993TIP3   OH263393   4.501   2.913  12.724 -0.3594  0.4315  0.0171
13993TIP3    H163394   4.433   2.975  12.750  0.1973  1.7147 -1.4377
13993TIP3    H263395   4.565   2.966  12.676  0.0992 -1.2814 -1.3781
13994TIP3   OH263396   1.264   1.309   1.160  0.0966  1.0958  0.3994
13994TIP3    H163397   1.232   1.273   1.077  0.2554 -0.8368  1.1372
13994TIP3    H263398   1.318   1.384   1.134  1.4069 -0.3766 -1.3891
13995TIP3   OH263399   5.714   0.766  12.230  0.2549 -0.0606  0.3918
13995TIP3    H163400   5.686   0.838  12.175  0.8747  0.2950  0.5283
13995TIP3    H263401   5.780   0.720  12.178  1.2584  0.6118  1.0296
13996TIP3   OH263402   5.212   5.670  14.410  0.0555 -0.4897  0.9319
13996TIP3    H163403   5.302   5.686  14.383 -0.4405  0.1489 -0.4277
13996TIP3    H263404   5.218   5.655  14.504  1.8475 -2.7812  0.5413
13997TIP3   OH263405   4.318   2.940   0.026 -0.4709 -0.3466  0.6633
13997TIP3    H163406   4.361   2.855   0.035  1.0731  0.4267  1.0230
13997TIP3    H263407   4.310   2.973   0.116  1.1032  0.8621  0.4097
13998TIP3   OH263408   1.128   4.585  15.834 -0.6990  0.3060  0.0379
13998TIP3    H163409   1.178   4.649  15.885  2.0244 -2.0902  0.6078
13998TIP3    H263410   1.149   4.604  15.743  0.4171  0.0193  0.2234
13999TIP3   OH263411   3.890   6.317   3.805  0.2869 -0.6470 -0.2073
13999TIP3    H163412   3.924   6.233   3.774  2.0064 -0.4602  0.9954
13999TIP3    H263413   3.907   6.316   3.900  2.9470  2.1097 -0.4836
14000TIP3   OH263414   3.844   4.617   5.782 -0.1063  0.5813 -0.1776
14000TIP3    H163415   3.917   4.577   5.829  0.1714  0.8381 -0.3818
14000TIP3    H263416   3.885   4.664   5.709 -0.4138  1.2484  0.0651
14001TIP3   OH263417   1.229   1.504  16.641  0.2017  1.0374 -0.2829
14001TIP3    H163418   1.161   1.521  16.576  0.4213  2.2059 -0.2258
14001TIP3    H263419   1.236   1.586  16.690  0.6290  0.4524  0.6686
14002TIP3   OH263420   6.108   4.285  14.483 -0.6208 -0.6288  0.2192
14002TIP3    H163421   6.197   4.283  14.449 -0.3525  4.1800 -0.0412
14002TIP3    H263422   6.052   4.274  14.406 -0.1304  0.7887 -0.3669
14003TIP3   OH263423   3.575   3.333  12.520  0.4109  0.0391 -0.3035
14003TIP3    H163424   3.559   3.422  12.550  0.2786 -0.7313  2.1525
14003TIP3    H263425   3.534   3.329  12.434 -0.1920  2.1332 -0.1751
14004TIP3   OH263426   2.602   0.058   3.317 -0.4985 -0.3870  0.9196
14004TIP3    H163427   2.661  -0.015   3.298 -1.1085 -0.5818 -0.4005
14004TIP3    H263428   2.653   0.118   3.370  0.5283 -1.0457  0.6980
14005TIP3   OH263429   5.145   1.544  10.218 -0.3622 -0.5424  0.3074
14005TIP3    H163430   5.084   1.473  10.238  0.0926 -0.6904  1.2337
14005TIP3    H263431   5.216   1.533  10.281 -0.9753  1.6022  1.5177
14006TIP3   OH263432   0.805   4.867   4.426  0.4561  0.9666 -0.3056
14006TIP3    H163433   0.771   4.792   4.376  0.9292 -0.1842  1.0261
14006TIP3    H263434   0.892   4.882   4.390  0.2419  1.0749 -0.7849
14007TIP3   OH263435   3.396   1.295  12.576 -0.6802 -0.1898  0.1250
14007TIP3    H163436   3.389   1.264  12.666  0.5001  0.5798  0.5134
14007TIP3    H263437   3.316   1.344  12.561 -0.9963 -0.5223  0.6731
14008TIP3   OH263438   6.043   5.398  11.906 -0.4743 -0.0057 -0.8259
14008TIP3    H163439   6.038   5.319  11.961 -1.1906  0.1889 -0.6080
14008TIP3    H263440   6.135   5.424  11.912 -0.2115 -0.8604 -0.9559
14009TIP3   OH263441   3.119   1.453   5.649 -0.3597  1.0469 -0.6779
14009TIP3    H163442   3.062   1.377   5.658  0.1752  0.5347 -1.5449
14009TIP3    H263443   3.066   1.517   5.602  0.2847 -0.0479 -3.0600
14010TIP3   OH263444   2.392   0.708   3.603 -0.1785  0.3479 -0.0948
14010TIP3    H163445   2.462   0.738   3.544 -0.2154 -0.0674 -0.3544
14010TIP3    H263446   2.425   0.727   3.691 -0.6323  2.0718 -0.2679
14011TIP3   OH263447   6.034   3.311  12.697 -0.1432  0.1047 -0.1382
14011TIP3    H163448   6.024   3.356  12.781 -1.6971  0.0997 -0.3059
14011TIP3    H263449   5.960   3.341  12.644 -1.2652 -2.6192 -0.2489
14012TIP3   OH263450   1.981   4.151   1.640  0.5233 -0.2657  0.0824
14012TIP3    H163451   1.997   4.099   1.561  0.9709 -0.2094  0.1325
14012TIP3    H263452   2.049   4.121   1.701  1.5022  1.1482 -0.2588
14013TIP3   OH263453   5.069   3.720   1.111 -0.3701 -0.4886  0.3683
14013TIP3    H163454   4.979   3.712   1.081 -0.7349 -0.1351  1.3423
14013TIP3    H263455   5.070   3.677   1.196  0.7669 -1.9473 -0.3395
14014TIP3   OH263456   4.036   6.328   3.084 -0.3777 -0.0450  0.3936
14014TIP3    H163457   4.007   6.398   3.143 -2.0654 -0.1025 -0.3256
14014TIP3    H263458   3.991   6.346   3.002  1.3337 -0.4223 -0.6644
14015TIP3   OH263459   6.770   0.343   3.547 -0.1647  0.3059  0.4346
14015TIP3    H163460   6.716   0.396   3.488 -1.5514 -1.0056  0.4473
14015TIP3    H263461   6.786   0.262   3.499  0.7534  0.1760  0.9408
14016TIP3   OH263462   0.881   4.389  15.265 -0.1003  0.9949  0.1634
14016TIP3    H163463   0.900   4.391  15.358 -1.3157 -2.8851  0.6785
14016TIP3    H263464   0.962   4.358  15.224 -0.6288 -0.9279  0.4793
14017TIP3   OH263465   0.220   0.617  16.031  0.0309 -0.1742 -0.1457
14017TIP3    H163466   0.161   0.673  15.981  0.2488  0.0727 -0.1298
14017TIP3    H263467   0.162   0.556  16.077 -0.2628  0.5299  0.4463
14018TIP3   OH263468   0.755   1.510  13.027 -0.3693  0.0450  0.2414
14018TIP3    H163469   0.786   1.486  12.940 -2.9732  1.3832 -1.1564
14018TIP3    H263470   0.827   1.560  13.065  0.5642  0.0239 -1.4196
14019TIP3   OH263471   6.706   0.592   1.603  0.5628  0.3942 -0.3871
14019TIP3    H163472   6.702   0.583   1.508  0.0024 -0.9473 -0.2662
14019TIP3    H263473   6.726   0.684   1.618 -0.9628  0.9943 -1.7743
14020TIP3   OH263474   3.020   2.740  10.993 -0.0902 -0.0942 -0.3256
14020TIP3    H163475   2.955   2.791  11.041 -1.6174 -0.3077 -2.0663
14020TIP3    H263476   3.080   2.806  10.957 -0.2473  0.2219 -0.0205
14021TIP3   OH263477   6.044   1.033  12.898 -0.0202  0.1271 -0.0679
14021TIP3    H163478   6.098   1.053  12.821  0.7848 -0.7451  0.2506
14021TIP3    H263479   6.047   1.113  12.950 -1.6258  1.1986 -1.5053
14022TIP3   OH263480   4.162   0.974  13.705 -0.0281  0.4432 -0.5101
14022TIP3    H163481   4.104   1.002  13.776  0.3084  1.3938 -0.6000
14022TIP3    H263482   4.231   1.040  13.703  1.8634 -1.4052  0.4922
14023TIP3   OH263483   0.040   0.380  17.108  0.5476 -0.4756 -0.5971
14023TIP3    H163484  -0.047   0.352  17.078  0.0315 -1.1174  1.3167
14023TIP3    H263485   0.063   0.317  17.176  1.5137  0.9911  0.4930
14024TIP3   OH263486   6.285   2.208   3.489 -0.4039  0.0791  0.1612
14024TIP3    H163487   6.273   2.288   3.439  0.1643 -0.2967 -0.5937
14024TIP3    H263488   6.197   2.175   3.504 -0.7754  1.7057  1.9341
14025TIP3   OH263489   1.493   5.059  14.068  0.1410 -0.0757  0.1423
14025TIP3    H163490   1.406   5.043  14.031  1.1984 -0.3923 -2.4507
14025TIP3    H263491   1.522   4.974  14.100 -0.0657 -0.2015 -0.0025
14026TIP3   OH263492   3.697   4.086   3.649 -1.1166 -0.1811  0.0877
14026TIP3    H163493   3.788   4.056   3.657 -1.7481 -1.7544  2.8229
14026TIP3    H263494   3.704   4.181   3.643  0.7246 -0.2789 -0.1087
14027TIP3   OH263495   0.470   0.069  13.336  0.1593  0.2928 -0.3224
14027TIP3    H163496   0.507  -0.019  13.337 -0.0797  0.1920 -0.2411
14027TIP3    H263497   0.378   0.057  13.313 -0.2289  0.3764  1.0915
14028TIP3   OH263498   0.653   5.123   0.452 -0.2770 -0.2397 -0.1260
14028TIP3    H163499   0.581   5.147   0.395 -1.1824 -1.1663  0.5847
14028TIP3    H263500   0.728   5.113   0.393 -0.6746  0.8960 -0.8502
14029TIP3   OH263501   5.913   2.199  16.131 -0.3545  0.5129 -0.1014
14029TIP3    H163502   5.975   2.152  16.076 -0.3269 -0.2176  0.5350
14029TIP3    H263503   5.965   2.264  16.177 -0.6867  2.6135 -2.4587
14030TIP3   OH263504   2.647   5.378  12.715  0.4040  0.1160  0.1593
14030TIP3    H163505   2.601   5.407  12.794  0.6920  1.5994 -0.1886
14030TIP3    H263506   2.654   5.283  12.725 -2.7781 -0.2196  0.1749
14031TIP3   OH263507   0.941   0.572  13.368  0.5365 -0.0873 -0.3659
14031TIP3    H163508   0.955   0.478  13.378 -0.0938 -0.0617  0.8658
14031TIP3    H263509   0.886   0.581  13.290 -1.0622 -0.9000  0.6213
14032TIP3   OH263510   0.807   5.648   4.799 -0.3654  0.8487  0.5951
14032TIP3    H163511   0.732   5.682   4.848 -2.1076 -1.2160 -0.4740
14032TIP3    H263512   0.793   5.680   4.709  0.9212  1.7288  0.6798
14033TIP3   OH263513   4.117   6.559   1.164 -0.3722 -0.1541  0.0682
14033TIP3    H163514   4.128   6.511   1.246  0.5400 -0.1398 -0.0351
14033TIP3    H263515   4.078   6.496   1.103 -0.2750 -0.4087  0.2713
14034TIP3   OH263516   1.467   6.133  14.072 -0.6433  0.6781  0.3999
14034TIP3    H163517   1.507   6.183  14.144  0.5117  0.6195 -0.1727
14034TIP3    H263518   1.501   6.174  13.993  0.0692 -0.7851 -0.0906
14035TIP3   OH263519   4.202   3.791   4.364  0.0378 -0.2647 -0.5307
14035TIP3    H163520   4.115   3.785   4.402  0.7853  0.0732  1.3371
14035TIP3    H263521   4.187   3.820   4.274 -1.7563 -0.1245 -0.2231
14036TIP3   OH263522   1.235   3.564   0.810  0.0796  0.4726  0.1789
14036TIP3    H163523   1.276   3.627   0.868 -0.2772  1.6347 -0.7866
14036TIP3    H263524   1.274   3.582   0.724  2.7072 -3.0176  0.4159
14037TIP3   OH263525   1.781   0.418  14.960  0.8744 -0.2566 -0.7308
14037TIP3    H163526   1.692   0.409  14.926  1.0417 -0.8315 -1.0326
14037TIP3    H263527   1.771   0.418  15.055  0.5586 -0.3892 -0.7649
14038TIP3   OH263528   2.941   2.388  14.112  0.2806  0.3054 -0.2454
14038TIP3    H163529   2.934   2.369  14.018  0.8294 -3.0964  0.2612
14038TIP3    H263530   2.851   2.384  14.144  0.3338 -3.3066 -0.0348
14039TIP3   OH263531   3.339   1.136  12.125  0.0926 -0.1527  0.4726
14039TIP3    H163532   3.334   1.119  12.030  0.0832  1.8746  0.0683
14039TIP3    H263533   3.250   1.119  12.157 -0.2057  0.2767 -0.1038
14040TIP3   OH263534   4.309   2.455  13.755  0.3269  0.2437 -0.3900
14040TIP3    H163535   4.267   2.451  13.840  1.2012 -0.3130  0.0296
14040TIP3    H263536   4.238   2.439  13.692 -0.1429 -0.3387  0.2771
14041TIP3   OH263537   2.689   5.101   2.430  0.3577  0.1713 -0.2313
14041TIP3    H163538   2.703   5.121   2.523 -1.5563  1.5964 -0.2049
14041TIP3    H263539   2.595   5.112   2.417  0.8933  2.7319 -2.9540
14042TIP3   OH263540   2.944   2.622  11.569 -0.6388  0.3890  0.3353
14042TIP3    H163541   3.038   2.615  11.556 -0.9454 -0.5863 -1.7787
14042TIP3    H263542   2.918   2.701  11.522 -0.9192  0.4996  0.6701
14043TIP3   OH263543   4.238   0.251   0.627  0.3576  0.0108 -0.2415
14043TIP3    H163544   4.311   0.279   0.571  0.6003 -0.0680  0.0350
14043TIP3    H263545   4.274   0.181   0.681  0.4047  0.7302  0.6971
14044TIP3   OH263546   1.269   5.219  15.138  0.1038 -0.1663 -0.1337
14044TIP3    H163547   1.319   5.265  15.205 -0.4899  1.6197 -0.8722
14044TIP3    H263548   1.264   5.128  15.171  0.0873  0.5690  2.0877
14045TIP3   OH263549   1.496   4.345  15.368 -0.1009 -0.1816  0.0222
14045TIP3    H163550   1.532   4.390  15.291 -0.6003 -0.9683 -0.7030
14045TIP3    H263551   1.498   4.410  15.438  1.7510  0.1170 -0.2600
14046TIP3   OH263552   2.628   2.943   3.964 -0.8196  0.1291 -0.3820
14046TIP3    H163553   2.619   2.973   4.055  2.0454  0.9982 -0.2986
14046TIP3    H263554   2.665   3.018   3.918  0.7527 -1.2958 -1.5514
14047TIP3   OH263555   2.779   1.414   3.397 -0.4717  0.1670 -0.1427
14047TIP3    H163556   2.721   1.472   3.346 -1.7228 -0.8357  0.0881
14047TIP3    H263557   2.746   1.326   3.380  0.0543 -0.3119  1.1903
14048TIP3   OH263558   1.429   0.937   2.432 -1.1747  0.2562 -0.2708
14048TIP3    H163559   1.472   1.015   2.398 -1.5105 -0.1783 -1.7695
14048TIP3    H263560   1.348   0.968   2.471 -0.2722  0.8960  1.2206
14049TIP3   OH263561   4.562   5.032   3.966 -0.0774 -0.2024 -0.1286
14049TIP3    H163562   4.593   5.073   3.885 -0.9797  1.5266  0.3728
14049TIP3    H263563   4.594   4.942   3.960  0.5350  0.0942 -2.0428
14050TIP3   OH263564   0.171   2.454  14.953 -0.3010  0.0782  0.6439
14050TIP3    H163565   0.144   2.489  14.868 -0.2525 -1.6508 -0.1277
14050TIP3    H263566   0.267   2.464  14.954 -0.3688  0.7672  0.8278
14051TIP3   OH263567   4.580   1.114  13.430  0.2365 -0.3503 -0.1015
14051TIP3    H163568   4.634   1.104  13.352  0.1647 -1.8682  0.0033
14051TIP3    H263569   4.640   1.146  13.497  0.9603 -1.6729 -0.0824
14052TIP3   OH263570   0.225   5.433   2.334 -0.2783 -0.8338 -0.5180
14052TIP3    H163571   0.245   5.527   2.331  0.1275 -0.9374 -2.3897
14052TIP3    H263572   0.151   5.426   2.394  1.9156  0.2041  2.5822
14053TIP3   OH263573   4.240   3.904   3.367 -0.4547  0.0454 -0.0558
14053TIP3    H163574   4.317   3.962   3.360 -0.4790  0.1458  0.4574
14053TIP3    H263575   4.172   3.949   3.317 -0.6990  0.8541  0.9746
14054TIP3   OH263576   2.690   0.469  12.671  0.0036  0.1005 -0.3122
14054TIP3    H163577   2.708   0.380  12.641  1.3748 -0.3891  1.7700
14054TIP3    H263578   2.750   0.482  12.744 -0.1568  2.7542 -0.5698
14055TIP3   OH263579   0.451   2.606   1.223 -0.0080 -0.2818 -0.4123
14055TIP3    H163580   0.545   2.604   1.205 -0.3289 -0.0370 -2.3141
14055TIP3    H263581   0.444   2.644   1.311  1.6322  0.2265 -0.4725
14056TIP3   OH263582   0.325   0.561   4.567 -0.0421 -0.2068  0.1497
14056TIP3    H163583   0.407   0.574   4.520  0.3179  0.9141  1.0470
14056TIP3    H263584   0.289   0.649   4.577 -0.3245 -0.4603  1.5773
14057TIP3   OH263585   0.956   4.023  16.915  0.2704  0.0876 -0.1595
14057TIP3    H163586   0.928   4.105  16.875  1.1229 -0.1185 -1.2539
14057TIP3    H263587   0.894   4.007  16.985 -1.3050  0.4906 -1.4078
14058TIP3   OH263588   0.487   4.632  14.163  0.3136 -0.5560 -0.5821
14058TIP3    H163589   0.463   4.541  14.182 -1.6612  0.3122  1.5908
14058TIP3    H263590   0.496   4.635  14.068 -1.1667 -2.6699 -0.8635
14059TIP3   OH263591   5.601   5.118   1.626 -0.6258  0.4804 -0.6622
14059TIP3    H163592   5.524   5.127   1.682  0.2745 -2.4145  1.2700
14059TIP3    H263593   5.668   5.172   1.669 -0.5429 -0.0122 -0.1642
14060TIP3   OH263594   3.422   1.885  12.918 -0.8373  1.0890  0.0337
14060TIP3    H163595   3.336   1.927  12.926 -0.9129  1.5142 -2.2791
14060TIP3    H263596   3.480   1.955  12.889  0.1046  0.5999  0.7023
14061TIP3   OH263597   4.817   0.812  12.311  0.1984 -0.8579  0.3268
14061TIP3    H163598   4.805   0.889  12.255 -0.3316  0.2251  1.8599
14061TIP3    H263599   4.880   0.840  12.377  0.4301 -1.9360  0.5868
14062TIP3   OH263600   5.561   6.510   5.068 -0.5420 -0.0384 -0.4603
14062TIP3    H163601   5.488   6.479   5.122 -0.0704  1.1444  0.9110
14062TIP3    H263602   5.542   6.477   4.980 -1.5501 -1.6625  0.3310
14063TIP3   OH263603   4.089   1.599   6.157 -0.3394  0.4728  0.1941
14063TIP3    H163604   4.125   1.615   6.245  1.0617  0.4704 -0.3454
14063TIP3    H263605   4.126   1.669   6.104 -1.5936  0.7750 -0.2987
14064TIP3   OH263606   2.347   5.339   5.370 -0.1831 -0.0629  0.5195
14064TIP3    H163607   2.291   5.415   5.351  0.7467  0.3406 -0.8027
14064TIP3    H263608   2.288   5.276   5.411 -1.1735  1.0577  0.8937
14065TIP3   OH263609   0.661   0.820   4.595  0.2477  0.1848 -0.2488
14065TIP3    H163610   0.576   0.823   4.639  1.8489 -0.9394  3.3147
14065TIP3    H263611   0.664   0.733   4.555 -0.2203  0.1567 -0.2241
14066TIP3   OH263612   6.132   0.718  12.745 -0.3742 -0.3921  0.2728
14066TIP3    H163613   6.218   0.678  12.728  0.4091  1.3292  0.0104
14066TIP3    H263614   6.087   0.654  12.800  1.0451 -1.3744  0.3542
14067TIP3   OH263615   2.172   5.112  14.459 -0.8066 -0.0005 -0.1823
14067TIP3    H163616   2.102   5.139  14.520 -0.5614 -0.0712  0.1292
14067TIP3    H263617   2.217   5.194  14.438 -2.3950  0.4356 -2.1878
14068TIP3   OH263618   4.650   3.133  13.962  0.4834  0.5945 -0.4650
14068TIP3    H163619   4.572   3.094  13.923  1.2384  0.0889 -1.5441
14068TIP3    H263620   4.680   3.197  13.897 -0.3026  2.4924  0.9412
14069TIP3   OH263621   1.914   3.714   2.255  0.8033  0.5082 -0.0143
14069TIP3    H163622   1.973   3.756   2.319  2.0112 -1.1632  0.0383
14069TIP3    H263623   1.908   3.623   2.285  1.0868 -0.2213 -2.0544
14070TIP3   OH263624   5.881   5.614  15.633 -0.0365  0.1211 -0.0301
14070TIP3    H163625   5.947   5.666  15.680  1.0872 -1.2273 -0.0787
14070TIP3    H263626   5.799   5.660  15.650  0.4676  0.2360  2.4667
14071TIP3   OH263627   2.597   3.869   1.586  0.2430  0.3246  0.2995
14071TIP3    H163628   2.642   3.951   1.566  0.4782  0.0227 -0.4494
14071TIP3    H263629   2.505   3.894   1.592  0.3555  0.7128  0.4698
14072TIP3   OH263630   4.924   6.111   1.475 -0.0821 -0.0473 -0.4506
14072TIP3    H163631   4.959   6.142   1.392  0.5168  0.3360 -0.0627
14072TIP3    H263632   4.829   6.127   1.470  0.3117  2.9812  0.1882
14073TIP3   OH263633   5.539   3.362  11.728  0.0304 -0.4754  0.0000
14073TIP3    H163634   5.561   3.433  11.788  0.0491 -1.4800  1.2271
14073TIP3    H263635   5.562   3.396  11.641 -2.4133  2.0378  0.1655
14074TIP3   OH263636   3.672   6.221   1.274  0.5578  0.3661  0.5752
14074TIP3    H163637   3.701   6.133   1.299 -0.6018 -0.3635 -0.5246
14074TIP3    H263638   3.623   6.252   1.350 -0.6168 -0.7143  0.2818
14075TIP3   OH263639   3.518   5.746   2.767  0.4701  0.0522 -0.3620
14075TIP3    H163640   3.600   5.703   2.793  0.9606  0.1054 -1.7425
14075TIP3    H263641   3.527   5.760   2.673 -0.5389  1.3457 -0.2930
14076TIP3   OH263642   1.333   3.645  15.415 -0.0824  0.2022 -0.5711
14076TIP3    H163643   1.352   3.739  15.426 -0.6377  0.2352  0.1669
14076TIP3    H263644   1.389   3.602  15.479  0.5993 -0.0274 -1.3028
14077TIP3   OH263645   0.611   4.587   4.593  0.7878  0.0823  0.7218
14077TIP3    H163646   0.562   4.585   4.675  2.7790 -1.8723  1.9857
14077TIP3    H263647   0.569   4.522   4.538 -1.5642  2.5115 -0.5703
14078TIP3   OH263648   3.509   0.217  14.805 -0.2945 -0.0846  0.1571
14078TIP3    H163649   3.562   0.168  14.867 -0.7404  0.7862  1.2536
14078TIP3    H263650   3.419   0.190  14.824 -0.3654 -0.5446 -0.7807
14079TIP3   OH263651   3.382   4.462   0.997  0.5072  0.0464  0.6785
14079TIP3    H163652   3.408   4.496   0.912 -1.7270 -0.3916 -0.2724
14079TIP3    H263653   3.427   4.378   1.004  0.9210  0.2102  0.0328
14080TIP3   OH263654   0.538   3.834   4.868 -0.3259  0.4729  0.4148
14080TIP3    H163655   0.604   3.836   4.799 -0.2463  0.3731  0.4872
14080TIP3    H263656   0.571   3.895   4.935  0.0751 -0.1503  0.7945
14081TIP3   OH263657   1.649   4.769   2.421 -0.1943  0.3353  0.6334
14081TIP3    H163658   1.704   4.718   2.361 -0.0421  2.3304 -1.0397
14081TIP3    H263659   1.578   4.710   2.445 -0.0460 -0.6898 -1.2518
14082TIP3   OH263660   6.275   4.941   0.072 -0.3103  0.7481 -0.0602
14082TIP3    H163661   6.231   4.970  -0.007 -0.9373  0.5181  0.1957
14082TIP3    H263662   6.292   4.848   0.058 -1.7988  0.3266  0.6618
14083TIP3   OH263663   6.249   3.883  16.377 -0.3536 -0.3030 -0.1204
14083TIP3    H163664   6.185   3.840  16.320  0.8436  0.0416 -1.7837
14083TIP3    H263665   6.250   3.829  16.457 -1.9673 -0.8775 -0.4558
14084TIP3   OH263666   1.035   5.201   4.878  0.0198  0.2501  0.1118
14084TIP3    H163667   1.115   5.200   4.825  0.0065 -1.7346  0.0810
14084TIP3    H263668   1.022   5.294   4.899  2.0148  0.6832 -0.3400
14085TIP3   OH263669   0.867   1.662  14.663  0.2510  0.6195 -0.3667
14085TIP3    H163670   0.838   1.712  14.739  0.2171  2.3198 -1.4607
14085TIP3    H263671   0.787   1.627  14.625  0.2931 -0.4929  0.5188
14086TIP3   OH263672   1.024   3.773  11.468 -0.6060 -0.1378  0.2377
14086TIP3    H163673   0.993   3.863  11.473 -0.8378 -0.2488  0.8381
14086TIP3    H263674   0.945   3.720  11.456 -0.5694 -0.3396  0.8457
14087TIP3   OH263675   5.601   0.097   5.155 -0.0244  0.2202  0.0488
14087TIP3    H163676   5.659   0.029   5.120 -0.4943 -0.0302 -0.2452
14087TIP3    H263677   5.543   0.051   5.215 -1.3042  0.0901 -1.2447
14088TIP3   OH263678   2.832   2.432   1.085 -0.4261 -0.2945  0.0067
14088TIP3    H163679   2.756   2.436   1.144 -1.3096  0.3496 -1.1381
14088TIP3    H263680   2.853   2.523   1.067 -1.8836 -0.4153 -2.7718
14089TIP3   OH263681   6.230   3.710   4.040 -0.4365 -0.5230 -0.4394
14089TIP3    H163682   6.263   3.772   3.975 -1.5612 -1.5637 -2.0641
14089TIP3    H263683   6.197   3.766   4.111 -1.9084  0.8129 -2.0728
14090TIP3   OH263684   1.219   6.242  13.996 -0.3086  0.2273  0.1318
14090TIP3    H163685   1.191   6.233  13.905  0.4846  1.0040 -0.1983
14090TIP3    H263686   1.304   6.197  13.999  0.2806  1.2985  0.1598
14091TIP3   OH263687   5.311   1.902   0.503  0.2854  0.1010 -0.0767
14091TIP3    H163688   5.263   1.847   0.565 -1.1217  3.6038  2.2685
14091TIP3    H263689   5.255   1.907   0.426 -0.6381 -0.0399  0.5649
14092TIP3   OH263690   3.214   5.040  14.787 -0.7806  0.4557 -0.0496
14092TIP3    H163691   3.302   5.075  14.794  0.3348 -2.2458  0.8860
14092TIP3    H263692   3.157   5.117  14.786  1.4580  2.2413  1.1435
14093TIP3   OH263693   4.261   4.681  14.513  0.3632 -0.6104 -0.2972
14093TIP3    H163694   4.175   4.641  14.527 -0.4172  1.3246  0.8568
14093TIP3    H263695   4.311   4.658  14.591 -0.2940  1.0232  0.6742
14094TIP3   OH263696   4.135   1.124  12.420 -0.3597  1.0418  0.2141
14094TIP3    H163697   4.109   1.068  12.493 -1.7701  1.8578  0.3854
14094TIP3    H263698   4.165   1.205  12.461 -0.4696  1.2380 -0.0900
14095TIP3   OH263699   2.216   6.667   1.115  0.0494  0.0883 -0.4829
14095TIP3    H163700   2.237   6.689   1.024 -1.7745  0.3951 -0.8599
14095TIP3    H263701   2.294   6.622   1.147 -0.3863 -2.9751 -3.2079
14096TIP3   OH263702   2.624   3.972   0.481  0.2574 -0.4518 -0.4445
14096TIP3    H163703   2.636   3.987   0.387 -3.0371  0.8557 -0.8030
14096TIP3    H263704   2.601   4.058   0.517  0.9822 -1.0140  1.4950
14097TIP3   OH263705   4.292   1.551   6.369 -0.3133  0.2485 -0.3442
14097TIP3    H163706   4.353   1.490   6.411 -1.3466 -1.9710 -1.8712
14097TIP3    H263707   4.234   1.579   6.440 -1.3410 -2.5451  0.0678
14098TIP3   OH263708   2.335   2.403  10.052 -0.6874  0.2098 -0.3472
14098TIP3    H163709   2.281   2.428  10.127 -1.7991 -0.2819 -0.9441
14098TIP3    H263710   2.298   2.319  10.024  0.2638 -0.0303 -0.9121
14099TIP3   OH263711   0.013   6.265   0.635  0.5266  0.0106 -0.3068
14099TIP3    H163712   0.076   6.228   0.698 -0.2354  0.5014  0.7856
14099TIP3    H263713   0.021   6.359   0.645 -1.0164  0.0932  0.5660
14100TIP3   OH263714   6.532   4.876   2.780 -0.3564 -0.0207  0.2882
14100TIP3    H163715   6.552   4.891   2.873 -1.9635  0.1920  0.6214
14100TIP3    H263716   6.452   4.824   2.780  0.5508 -1.5228 -0.9874
14101TIP3   OH263717   1.847   2.386  16.937  0.4224  0.0846  0.0217
14101TIP3    H163718   1.796   2.460  16.903 -0.1240 -0.2022  0.2080
14101TIP3    H263719   1.788   2.342  16.998  1.9471  1.5728  2.7398
14102TIP3   OH263720   4.606   2.597  15.809  0.2379  0.0279 -0.2025
14102TIP3    H163721   4.575   2.635  15.727  1.0626  2.0637  0.3500
14102TIP3    H263722   4.665   2.663  15.845  2.0417 -1.9691  0.7267
14103TIP3   OH263723   5.331   2.591  12.669  0.6291  0.2915 -0.0072
14103TIP3    H163724   5.365   2.581  12.580  0.3499 -1.9267  0.0831
14103TIP3    H263725   5.236   2.585  12.658  0.6356 -2.9068  0.6319
14104TIP3   OH263726   6.767   1.241  12.810  0.5049 -0.2825 -0.5456
14104TIP3    H163727   6.827   1.207  12.743  0.3502  0.9889 -1.3618
14104TIP3    H263728   6.720   1.163  12.841  1.4172 -1.0689 -1.0562
14105TIP3   OH263729   3.445   1.884  12.189 -0.4143 -0.0861  0.1971
14105TIP3    H163730   3.500   1.827  12.244  2.0717  1.6996 -0.2515
14105TIP3    H263731   3.441   1.839  12.105  1.3959  0.2293 -0.1051
14106TIP3   OH263732   1.203   0.248   2.425 -0.0031 -0.0794 -0.3087
14106TIP3    H163733   1.187   0.339   2.401  0.1936  0.0312 -0.0259
14106TIP3    H263734   1.263   0.216   2.358 -0.6857 -0.2334 -0.8572
14107TIP3   OH263735   2.416   0.868  11.895  0.5496  0.2477 -0.0158
14107TIP3    H163736   2.504   0.901  11.912  1.0893 -1.3516  0.4197
14107TIP3    H263737   2.360   0.918  11.955  1.2135  0.9036  0.0820
14108TIP3   OH263738   2.896   1.237   3.894 -0.2678 -0.7119 -0.3350
14108TIP3    H163739   2.844   1.316   3.883 -0.3178 -0.8042 -0.7795
14108TIP3    H263740   2.838   1.176   3.939 -0.2597 -0.5250 -0.0730
14109TIP3   OH263741   2.803   0.484  12.917  0.0200  0.6015 -0.2171
14109TIP3    H163742   2.833   0.414  12.975 -0.9536  0.8139  0.5632
14109TIP3    H263743   2.811   0.564  12.969 -0.3549  0.8681 -0.5632
14110TIP3   OH263744   1.173   5.088  12.495  0.0051  0.2580  0.1219
14110TIP3    H163745   1.171   5.028  12.420  0.8605 -1.8138  1.6366
14110TIP3    H263746   1.088   5.077  12.537  0.5602 -0.8285  1.0274
14111TIP3   OH263747   5.142   1.518  11.395  0.1665  0.1527 -0.0982
14111TIP3    H163748   5.210   1.567  11.442  0.0709  2.1863 -1.9212
14111TIP3    H263749   5.102   1.462  11.462  1.8890  0.8204  1.5820
14112TIP3   OH263750   0.323   5.147  12.185 -0.1163 -0.8381 -0.1853
14112TIP3    H163751   0.288   5.225  12.229  0.5769 -0.5121 -0.2027
14112TIP3    H263752   0.412   5.172  12.159 -0.0136 -1.5186 -0.5009
14113TIP3   OH263753   3.902   6.154   0.404 -0.3586 -0.3387 -0.0135
14113TIP3    H163754   3.966   6.100   0.359 -0.1422  0.9459 -1.3228
14113TIP3    H263755   3.946   6.238   0.417 -1.4330  0.2428 -0.0374
14114TIP3   OH263756   5.201   5.051   5.463 -0.1400 -0.2440  0.5151
14114TIP3    H163757   5.272   5.057   5.526  0.0249  1.2849  0.2136
14114TIP3    H263758   5.205   5.133   5.414 -2.2582  0.0095  0.6660
14115TIP3   OH263759   0.327   2.987  12.916  0.9967 -0.2548  0.4650
14115TIP3    H163760   0.326   3.031  12.831 -2.2288 -0.0008  0.5416
14115TIP3    H263761   0.281   3.046  12.975 -0.6396 -2.2891  1.3352
14116TIP3   OH263762   5.809   3.454   1.086 -0.3500 -0.1714  0.0399
14116TIP3    H163763   5.882   3.449   1.148  0.6403 -1.9449 -1.1504
14116TIP3    H263764   5.743   3.394   1.121 -0.9901  0.9124  0.7570
14117TIP3   OH263765   5.794   3.252  13.932 -0.2979  0.1597 -0.0967
14117TIP3    H163766   5.792   3.328  13.990  1.3422  1.5169 -1.6967
14117TIP3    H263767   5.788   3.289  13.844 -0.3389 -1.6487 -0.8986
14118TIP3   OH263768   0.854   3.017  17.031  0.0259  0.4306 -0.1380
14118TIP3    H163769   0.783   3.080  17.046 -0.0774  0.1475  0.6243
14118TIP3    H263770   0.929   3.071  17.005  0.0472  0.9137  0.8784
14119TIP3   OH263771   5.490   4.045   1.006  0.1591 -0.1543 -0.8737
14119TIP3    H163772   5.398   4.022   1.015 -0.2345  1.6292  0.0494
14119TIP3    H263773   5.537   3.962   1.016 -1.0769 -0.5878  3.3582
14120TIP3   OH263774   1.888   5.529  17.205  0.1727 -0.1233  0.8131
14120TIP3    H163775   1.908   5.442  17.240  1.0220  1.0822  3.6110
14120TIP3    H263776   1.793   5.530  17.194  0.2752 -1.8024 -0.5440
14121TIP3   OH263777   6.619   4.667   3.450  0.6274  0.5065  0.4263
14121TIP3    H163778   6.683   4.624   3.508 -0.1449 -1.1732  0.0815
14121TIP3    H263779   6.543   4.683   3.506  0.2208 -0.2869  0.1069
14122TIP3   OH263780   2.945   3.516  13.560 -0.0014 -0.2379 -0.1134
14122TIP3    H163781   2.900   3.489  13.640 -0.7754 -1.1757 -0.8410
14122TIP3    H263782   2.930   3.610  13.554 -0.5990 -0.2932  0.4397
14123TIP3   OH263783   0.139   4.480  13.967  0.0856  0.1500 -0.6840
14123TIP3    H163784   0.229   4.449  13.977  0.4172  1.3004  0.0623
14123TIP3    H263785   0.142   4.538  13.891  0.1893  0.9139 -0.1075
14124TIP3   OH263786   4.861   5.312  11.053  0.3373 -0.5570  0.3609
14124TIP3    H163787   4.953   5.299  11.078 -0.0816 -1.1938  1.6396
14124TIP3    H263788   4.863   5.320  10.958  1.9443  1.3361  0.4916
14125TIP3   OH263789   6.207   3.717  13.342 -0.5857 -0.0148 -0.1941
14125TIP3    H163790   6.244   3.646  13.395  0.7283  1.2698  0.7207
14125TIP3    H263791   6.130   3.746  13.392 -1.4032 -1.0640 -0.8087
14126TIP3   OH263792   2.073   5.724   1.333  0.8638 -0.1738  0.7404
14126TIP3    H163793   2.052   5.815   1.354  0.1042 -0.5238  1.5693
14126TIP3    H263794   2.027   5.673   1.400  1.3837 -1.1621  0.3604
14127TIP3   OH263795   0.282   3.718  15.048 -0.0795 -0.2235 -0.3536
14127TIP3    H163796   0.323   3.794  15.089 -1.2441  0.6811 -0.8037
14127TIP3    H263797   0.261   3.747  14.959 -2.9870 -0.0963  0.2818
14128TIP3   OH263798   6.682   1.176  16.749  0.2935  0.1769  0.0144
14128TIP3    H163799   6.734   1.134  16.817  1.5596 -0.4904 -1.3169
14128TIP3    H263800   6.612   1.113  16.731  0.3221  0.0722  0.2638
14129TIP3   OH263801   3.470   6.208   5.674 -0.0224 -0.2518  0.1963
14129TIP3    H163802   3.462   6.119   5.709 -0.9706  0.0101  0.6792
14129TIP3    H263803   3.560   6.233   5.695  0.0294 -0.8342  0.7097
14130TIP3   OH263804   4.370   5.990   2.293  0.2052  0.5588  0.0514
14130TIP3    H163805   4.462   5.991   2.319  0.1774  1.1317  0.1275
14130TIP3    H263806   4.366   6.044   2.215 -0.1066  0.7330  0.1855
14131TIP3   OH263807   5.735   5.598   5.125  0.1561 -0.7212  0.1998
14131TIP3    H163808   5.804   5.557   5.073  0.0590 -1.3262  0.5377
14131TIP3    H263809   5.700   5.667   5.069  1.1871 -0.2489  0.1030
14132TIP3   OH263810   0.366   6.519   3.992 -0.1200 -0.7155  0.3334
14132TIP3    H163811   0.371   6.510   3.897 -0.1294 -1.8377  0.4196
14132TIP3    H263812   0.377   6.429   4.025 -0.0386 -0.3321  1.3918
14133TIP3   OH263813   6.311   3.994   5.198 -0.2602  0.4947 -0.4478
14133TIP3    H163814   6.288   4.037   5.280  2.5273  0.1374  0.6410
14133TIP3    H263815   6.364   4.059   5.152  0.5049 -0.2817 -0.6760
14134TIP3   OH263816   4.643   3.641  16.136 -0.1576  0.0888  0.0188
14134TIP3    H163817   4.731   3.633  16.100 -1.0795 -0.0851 -2.4350
14134TIP3    H263818   4.633   3.733  16.158  0.0817  0.4619 -1.3606
14135TIP3   OH263819   1.642   5.741   6.447 -0.7942  0.0306  0.3400
14135TIP3    H163820   1.583   5.671   6.420 -2.0209  1.1149  0.1249
14135TIP3    H263821   1.718   5.732   6.389 -0.8736 -1.1923  0.4166
14136TIP3   OH263822   3.890   4.843  13.548 -0.5048 -0.3364 -0.2350
14136TIP3    H163823   3.863   4.790  13.473  0.3607 -2.1484  0.6550
14136TIP3    H263824   3.894   4.780  13.621 -1.7125  1.4258  1.4499
14137TIP3   OH263825   3.786   6.758  10.907  0.2469  0.1964 -0.1452
14137TIP3    H163826   3.814   6.701  10.979  0.1959  0.4765  0.0975
14137TIP3    H263827   3.719   6.814  10.946  1.0355  1.1284 -0.1033
14138TIP3   OH263828   3.598   6.196  13.029  1.0021 -0.0993  0.2014
14138TIP3    H163829   3.680   6.184  13.078  0.4931  0.8825  1.3312
14138TIP3    H263830   3.542   6.124  13.059  0.8930  0.1671  0.6481
14139TIP3   OH263831   0.787   5.843  11.948  0.5117  0.4391 -0.8601
14139TIP3    H163832   0.725   5.897  11.898 -1.3238 -0.5830  0.2047
14139TIP3    H263833   0.733   5.797  12.012  2.1213 -1.8206 -0.9731
14140TIP3   OH263834   5.708   0.931  14.703  0.0812 -0.2295 -0.3285
14140TIP3    H163835   5.704   0.995  14.632 -0.7253 -0.7603 -0.7759
14140TIP3    H263836   5.627   0.944  14.752  0.8123  0.4070  0.7563
14141TIP3   OH263837   5.963   4.650   4.332  0.2217 -0.0911 -0.5424
14141TIP3    H163838   5.882   4.649   4.384  0.4292  2.0959 -0.0794
14141TIP3    H263839   5.940   4.604   4.251 -0.5688 -2.1655  0.7674
14142TIP3   OH263840   6.529   0.614  12.239 -0.1412 -0.0136  0.0418
14142TIP3    H163841   6.549   0.521  12.251 -0.2186 -0.2793 -1.7233
14142TIP3    H263842   6.435   0.617  12.221 -0.1849  0.4384  0.3117
14143TIP3   OH263843   0.728   0.745   3.713  0.0682 -0.1938 -0.0815
14143TIP3    H163844   0.685   0.828   3.693 -0.9574 -0.5505  0.5764
14143TIP3    H263845   0.721   0.737   3.808 -2.3553 -2.3186 -0.3296
14144TIP3   OH263846   0.824   4.290  12.148 -0.5074  0.5526  0.0970
14144TIP3    H163847   0.872   4.214  12.179 -1.8520  0.0798  1.1255
14144TIP3    H263848   0.768   4.257  12.078  1.0350  1.2220 -1.5285
14145TIP3   OH263849   0.665   6.592   1.972 -0.4640 -0.0302  0.0741
14145TIP3    H163850   0.616   6.555   2.046  0.1724 -0.0451  0.4894
14145TIP3    H263851   0.695   6.677   2.003  1.3955 -0.8094  0.5166
14146TIP3   OH263852   4.270   6.111  12.770  0.3032  0.5869  0.2838
14146TIP3    H163853   4.257   6.027  12.816  1.5250 -0.2048 -0.7562
14146TIP3    H263854   4.185   6.130  12.732  0.3993 -1.1281 -0.9418
14147TIP3   OH263855   3.901   0.375  13.057 -0.3763  0.4709 -0.2295
14147TIP3    H163856   3.888   0.416  13.142  2.0057 -1.0530  0.9710
14147TIP3    H263857   3.923   0.448  12.999  0.2722  1.2878  1.0078
14148TIP3   OH263858   1.635   0.964  17.234  0.8278  0.1957 -0.0938
14148TIP3    H163859   1.603   1.053  17.216  2.9267  1.3806  1.5550
14148TIP3    H263860   1.581   0.934  17.308 -0.0325 -0.0381 -0.7924
14149TIP3   OH263861   5.258   5.772  15.608  0.2564 -0.4937  0.5054
14149TIP3    H163862   5.275   5.857  15.568 -1.5174 -0.5463 -0.4929
14149TIP3    H263863   5.199   5.792  15.681 -0.5469 -0.8656 -0.0168
14150TIP3   OH263864   5.568   6.551   3.427  0.1862 -0.2220  0.9148
14150TIP3    H163865   5.550   6.484   3.493  0.3483 -0.2129  0.9683
14150TIP3    H263866   5.652   6.526   3.390  0.7099  0.4704  1.5910
14151TIP3   OH263867   1.204   5.850   4.993 -0.6626  0.2791  0.7885
14151TIP3    H163868   1.264   5.907   4.945 -1.1296  0.4318  0.3725
14151TIP3    H263869   1.140   5.821   4.927  0.1650 -1.5949  0.7402
14152TIP3   OH263870   2.422   6.630  14.126  1.0385 -0.3875  0.0367
14152TIP3    H163871   2.390   6.720  14.128 -0.0725 -0.7598 -0.3371
14152TIP3    H263872   2.404   6.600  14.037 -1.8186 -2.0771  1.0502
14153TIP3   OH263873   3.102   3.453   0.763  0.1764  0.2127  0.2942
14153TIP3    H163874   3.022   3.483   0.807 -0.0347 -1.6186  1.3034
14153TIP3    H263875   3.072   3.420   0.678  0.2803  1.9105 -0.4285
14154TIP3   OH263876   2.473   6.447  14.956 -0.7116 -0.1904  0.1409
14154TIP3    H163877   2.398   6.442  14.898  0.1540  0.3849 -1.0615
14154TIP3    H263878   2.455   6.383  15.025 -1.9643 -0.5592 -0.5129
14155TIP3   OH263879   5.805   2.081  15.433  0.0721  0.0248 -0.3840
14155TIP3    H163880   5.825   2.093  15.340 -2.3414  1.4013 -0.8120
14155TIP3    H263881   5.710   2.071  15.436  0.1029 -0.1649  1.9471
14156TIP3   OH263882   6.152   1.134   0.022  0.2480  0.2308 -0.3581
14156TIP3    H163883   6.237   1.092   0.013  0.5728  0.9966 -1.0008
14156TIP3    H263884   6.100   1.074   0.076  1.9121  0.7919  2.0109
14157TIP3   OH263885   1.166   3.880  17.236  0.8862  0.3086 -0.0833
14157TIP3    H163886   1.134   3.792  17.219 -0.2667  0.5966  0.4576
14157TIP3    H263887   1.191   3.914  17.150  0.5226 -0.2420 -0.4090
14158TIP3   OH263888   3.861   1.515   5.996  0.0639 -0.3617  0.0327
14158TIP3    H163889   3.805   1.473   6.062 -0.2235 -0.4088 -0.2399
14158TIP3    H263890   3.940   1.540   6.044  0.2545 -1.2414  0.2003
14159TIP3   OH263891   1.799   6.436   2.043  0.1347  0.3368  0.1597
14159TIP3    H163892   1.840   6.353   2.019  0.9532  0.3459  1.4697
14159TIP3    H263893   1.816   6.446   2.136 -3.4119  0.0581  0.9722
14160TIP3   OH263894   0.684   6.632  16.034  0.7616 -0.1617 -0.1444
14160TIP3    H163895   0.658   6.540  16.038  0.3338 -0.0150  0.7834
14160TIP3    H263896   0.710   6.646  15.943 -0.6890 -0.7774 -0.6794
14161TIP3   OH263897   0.224   0.108  16.147  0.2045 -0.3128 -0.9172
14161TIP3    H163898   0.282   0.035  16.126  0.2591 -0.2040 -1.1527
14161TIP3    H263899   0.142   0.089  16.101  0.2267 -0.2137 -0.9983
14162TIP3   OH263900   6.220   4.698  13.204 -0.2321  0.2733  0.6322
14162TIP3    H163901   6.228   4.786  13.239  0.7623 -0.2510  1.7898
14162TIP3    H263902   6.309   4.674  13.178 -0.6883  0.0416 -0.8023
14163TIP3   OH263903   0.149   4.947  15.783  0.0458  0.3106  0.1652
14163TIP3    H163904   0.106   5.018  15.736 -0.6696 -1.2008 -1.5877
14163TIP3    H263905   0.202   4.904  15.717  2.9420  1.0080  1.8752
14164TIP3   OH263906   4.440   5.155   2.124  0.5736 -0.2046 -0.3562
14164TIP3    H163907   4.433   5.111   2.209 -0.7592  0.9722  0.1935
14164TIP3    H263908   4.402   5.094   2.061 -0.9539 -0.0371  0.3428
14165TIP3   OH263909   1.639   1.856  16.184  0.2704 -0.2909 -0.4415
14165TIP3    H163910   1.642   1.951  16.191  2.5614 -0.3167 -0.5643
14165TIP3    H263911   1.632   1.838  16.090  1.6550 -0.2331 -0.5718
14166TIP3   OH263912   0.740   3.301  11.021  0.6788 -0.1708 -0.4755
14166TIP3    H163913   0.710   3.234  10.959 -0.5555  0.7203 -0.8775
14166TIP3    H263914   0.767   3.374  10.966  1.7402 -0.2080 -0.0268
14167TIP3   OH263915   5.197   6.301   5.590 -0.4280 -0.7756  0.0552
14167TIP3    H163916   5.273   6.354   5.613  0.0960 -1.5615  0.1796
14167TIP3    H263917   5.122   6.361   5.597  0.3048  0.3997 -1.4102
14168TIP3   OH263918   1.230   3.092  12.018  0.2199  0.1598  0.5790
14168TIP3    H163919   1.190   3.165  11.971 -0.7059  0.0761  1.2078
14168TIP3    H263920   1.157   3.034  12.038  0.9947 -1.0967 -0.1697
14169TIP3   OH263921   2.618   4.868  17.203 -0.3829  0.1832  0.8236
14169TIP3    H163922   2.683   4.934  17.229 -1.7682  2.3926 -0.9100
14169TIP3    H263923   2.534   4.911  17.217 -1.2986 -0.2730 -2.5321
14170TIP3   OH263924   0.978   3.286  16.399 -0.1069 -0.4757 -0.5297
14170TIP3    H163925   0.920   3.232  16.452 -0.7190  0.4219 -0.2640
14170TIP3    H263926   1.066   3.257  16.423 -0.4212 -1.4190 -0.4793
14171TIP3   OH263927   1.261   5.637   2.341 -0.3008  0.3886  0.4028
14171TIP3    H163928   1.282   5.729   2.324 -1.7396  0.2980 -2.3129
14171TIP3    H263929   1.339   5.589   2.312 -0.3029  0.6412 -0.0292
14172TIP3   OH263930   4.246   0.236  14.850 -0.3509  0.7327  0.5805
14172TIP3    H163931   4.188   0.273  14.783  0.6035  1.1237 -0.0500
14172TIP3    H263932   4.272   0.312  14.903 -0.4063  0.5600  0.8561
14173TIP3   OH263933   5.203   5.313   5.299 -0.0166 -0.3285  0.6839
14173TIP3    H163934   5.211   5.334   5.206 -1.8199  0.0634  0.5859
14173TIP3    H263935   5.162   5.391   5.337 -0.0138 -0.7975  1.6665
14174TIP3   OH263936   5.565   2.152  14.402  0.7204  0.0385  0.6158
14174TIP3    H163937   5.584   2.143  14.496  0.3494 -0.0993  0.6804
14174TIP3    H263938   5.471   2.173  14.398  1.3076  3.1431  0.4326
14175TIP3   OH263939   4.149   2.549  12.939  0.7411 -0.1398 -0.5978
14175TIP3    H163940   4.202   2.584  12.868  0.8347 -0.5332 -0.7281
14175TIP3    H263941   4.155   2.614  13.009  1.6321 -0.3141 -0.5020
14176TIP3   OH263942   2.733   2.714   4.528 -0.0186  0.1169 -0.2518
14176TIP3    H163943   2.707   2.800   4.560 -1.0012 -0.6954  1.2653
14176TIP3    H263944   2.677   2.699   4.452  0.0382  0.7329 -0.4247
14177TIP3   OH263945   1.394   2.220   0.586 -0.3398 -0.2924 -0.0393
14177TIP3    H163946   1.383   2.240   0.679 -0.6067 -1.3791  0.1775
14177TIP3    H263947   1.304   2.218   0.552 -0.4468 -2.2443  0.2190
14178TIP3   OH263948   4.857   5.372  12.237 -0.0278  0.4378 -0.2022
14178TIP3    H163949   4.843   5.287  12.278  2.2867 -1.0098 -2.1632
14178TIP3    H263950   4.808   5.368  12.155  0.7612  0.6803 -0.6891
14179TIP3   OH263951   1.777   1.433  12.329 -0.1332  0.5016  0.4575
14179TIP3    H163952   1.864   1.419  12.368  0.5091 -0.3673 -1.1910
14179TIP3    H263953   1.784   1.519  12.287  1.4688 -1.2285 -3.2752
14180TIP3   OH263954   4.123   2.733  13.145 -0.0099  0.1650 -0.0617
14180TIP3    H163955   4.050   2.673  13.164  0.1376  0.1963  0.6240
14180TIP3    H263956   4.135   2.783  13.226  2.0021 -1.1316  0.5162
14181TIP3   OH263957   4.582   2.683  14.520 -0.4403 -0.7520  0.0752
14181TIP3    H163958   4.637   2.761  14.525 -2.1467  0.5509 -0.5246
14181TIP3    H263959   4.567   2.670  14.427 -0.3887 -1.6613  0.1848
14182TIP3   OH263960   5.380   4.152   3.202  0.0773  0.0432  0.2935
14182TIP3    H163961   5.336   4.116   3.279  0.2738  0.6752  0.7135
14182TIP3    H263962   5.376   4.247   3.215  0.5287  0.1415 -0.2450
14183TIP3   OH263963   3.816   3.088  11.260  0.4215 -0.2705  0.0643
14183TIP3    H163964   3.771   3.008  11.235  0.3941 -0.6823  1.3318
14183TIP3    H263965   3.865   3.114  11.182 -2.3759  0.5214 -1.5723
14184TIP3   OH263966   5.790   1.501   0.926  0.2981  0.2129 -0.4117
14184TIP3    H163967   5.744   1.467   1.003  1.2883  0.4513  0.2945
14184TIP3    H263968   5.747   1.457   0.852 -0.0303 -0.7638  0.3306
14185TIP3   OH263969   5.690   6.434   5.705  0.8563  0.3371 -0.2170
14185TIP3    H163970   5.659   6.344   5.717  0.6593  0.2691 -1.1235
14185TIP3    H263971   5.785   6.427   5.701  0.8317  0.1444 -0.4626
14186TIP3   OH263972   3.794   1.449  16.770 -0.0044 -0.1791  0.3394
14186TIP3    H163973   3.827   1.469  16.682  0.5082  0.3224  0.6348
14186TIP3    H263974   3.818   1.358  16.784 -0.2696 -0.3221 -0.1211
14187TIP3   OH263975   3.289   1.142  11.445  0.2648 -0.0940  0.0379
14187TIP3    H163976   3.234   1.088  11.388  0.9657 -0.0870 -0.6631
14187TIP3    H263977   3.342   1.078  11.493 -0.9366 -0.1476  1.3668
14188TIP3   OH263978   1.235   0.283   0.897  0.4673 -0.1612  0.3217
14188TIP3    H163979   1.323   0.245   0.908 -0.3358 -2.4258 -0.4285
14188TIP3    H263980   1.218   0.277   0.803 -0.8615 -0.6819  0.5747
14189TIP3   OH263981   0.859   2.584  15.799  0.2227  0.0836  0.8294
14189TIP3    H163982   0.786   2.523  15.809  0.9180 -1.3688 -1.9611
14189TIP3    H263983   0.933   2.542  15.843  0.7249 -1.2629 -1.1675
14190TIP3   OH263984   1.943   3.284   4.470 -0.6378  0.6749  0.4934
14190TIP3    H163985   1.973   3.365   4.512  1.7624  0.3742 -0.4629
14190TIP3    H263986   1.926   3.310   4.379  0.8131  0.0214  0.0079
14191TIP3   OH263987   2.869   4.447  15.531  0.1830 -0.2188  0.1209
14191TIP3    H163988   2.934   4.460  15.463  0.5364 -0.6626  0.3712
14191TIP3    H263989   2.896   4.367  15.576 -0.9722 -0.8480 -0.2618
14192TIP3   OH263990   0.060   2.176   6.558 -0.0484  0.4785 -0.3826
14192TIP3    H163991   0.076   2.092   6.515 -0.0486  0.0656  0.4198
14192TIP3    H263992   0.061   2.239   6.486  2.5635  0.1591 -0.7300
14193TIP3   OH263993   1.945   2.580  14.562 -0.2268 -0.8104  0.0874
14193TIP3    H163994   1.974   2.581  14.471 -1.4661  0.3713 -0.3276
14193TIP3    H263995   1.914   2.491  14.576 -1.8180 -0.5059 -1.2702
14194TIP3   OH263996   3.139   4.804  14.967 -0.2085  0.5444  0.0112
14194TIP3    H163997   3.120   4.864  14.894  0.4612  0.1465 -0.5016
14194TIP3    H263998   3.231   4.818  14.987  0.5323 -1.6669 -1.4328
14195TIP3   OH263999   3.381   6.625   2.661 -0.6050 -0.0260 -0.7303
14195TIP3    H164000   3.372   6.560   2.731 -0.4749  2.1275  1.4273
14195TIP3    H264001   3.475   6.632   2.647 -0.4363  1.2469  0.7084
14196TIP3   OH264002   4.745   2.146  15.345 -0.0529  0.5721  0.1464
14196TIP3    H164003   4.673   2.085  15.330  0.8347 -0.8201  1.3339
14196TIP3    H264004   4.725   2.220  15.287 -0.5454 -1.3329 -2.3279
14197TIP3   OH264005   1.628   4.431  16.560  0.1082 -0.2148  0.1186
14197TIP3    H164006   1.687   4.385  16.619 -0.0548 -0.6448 -0.0536
14197TIP3    H264007   1.582   4.362  16.512  0.3932  0.1301 -0.6658
14198TIP3   OH264008   3.769   4.945  15.893  0.2782  0.1377 -0.3825
14198TIP3    H164009   3.795   4.888  15.820 -0.3990  0.5653 -0.9636
14198TIP3    H264010   3.804   5.031  15.870  0.1792  0.2459 -0.1342
14199TIP3   OH264011   5.551   0.021  15.287 -0.2715 -0.1006 -0.2020
14199TIP3    H164012   5.506   0.051  15.366 -0.2192  0.0695 -0.2355
14199TIP3    H264013   5.614   0.091  15.267  0.7197 -0.7894  0.4208
14200TIP3   OH264014   6.571   0.900  12.569 -0.1691  0.3262  0.8307
14200TIP3    H164015   6.660   0.866  12.569 -0.4077 -0.3266 -0.0633
14200TIP3    H264016   6.564   0.947  12.652  1.8228  2.5597 -0.1505
14201TIP3   OH264017   1.495   4.160  16.792  0.4681 -0.0377  0.5612
14201TIP3    H164018   1.521   4.070  16.809  0.4319  0.2232  2.0738
14201TIP3    H264019   1.573   4.212  16.810  0.0968  0.3623  1.0428
14202TIP3   OH264020   4.273   4.756   4.175 -0.0415  0.8569 -0.7368
14202TIP3    H164021   4.222   4.831   4.205 -1.9670 -0.1643 -1.2385
14202TIP3    H264022   4.238   4.682   4.225 -1.6419 -0.4881 -3.5869
14203TIP3   OH264023   0.779   6.051   3.966  0.7341 -0.0190 -0.0143
14203TIP3    H164024   0.763   5.958   3.979  0.2437  0.1755  0.8431
14203TIP3    H264025   0.719   6.095   4.026 -0.2852  0.9046 -1.6447
14204TIP3   OH264026   2.317   5.504   1.378 -0.2074  0.3624 -0.3455
14204TIP3    H164027   2.294   5.421   1.421 -1.2099  0.8187  0.0169
14204TIP3    H264028   2.354   5.558   1.447 -1.9746  1.1573  0.0337
14205TIP3   OH264029   1.354   5.870  11.141 -0.8295  0.2321 -0.0532
14205TIP3    H164030   1.267   5.873  11.180 -1.1255 -0.9877 -0.5647
14205TIP3    H264031   1.351   5.934  11.070 -1.3327  0.1466 -0.1145
14206TIP3   OH264032   3.981   5.416   6.107  0.5230 -0.6440 -0.0993
14206TIP3    H164033   3.944   5.353   6.169  1.7722 -0.7847  0.5289
14206TIP3    H264034   4.013   5.361   6.034 -0.0994 -0.5616 -0.4378
14207TIP3   OH264035   5.601   6.646   2.379 -0.4219  0.3457 -0.5055
14207TIP3    H164036   5.561   6.573   2.332  0.2514 -0.1288 -0.3534
14207TIP3    H264037   5.554   6.724   2.347 -0.2559 -0.0058 -1.6494
14208TIP3   OH264038   2.956   0.925  10.798 -0.1198 -0.2978 -0.2438
14208TIP3    H164039   2.983   0.987  10.730 -0.4593  0.3248  0.1842
14208TIP3    H264040   3.038   0.902  10.842 -0.1989  1.2859  0.7983
14209TIP3   OH264041   3.240   2.934  10.914  0.1019 -0.5152 -0.0416
14209TIP3    H164042   3.308   2.984  10.869 -1.4309  0.6867 -1.1308
14209TIP3    H264043   3.194   2.998  10.968 -0.9394 -1.0264 -0.2772
14210TIP3   OH264044   1.198   2.423   5.606 -0.7276  0.3784 -0.3468
14210TIP3    H164045   1.142   2.499   5.593  0.3949  1.3469  0.3227
14210TIP3    H264046   1.228   2.400   5.518 -0.1163  1.4766 -0.4419
14211TIP3   OH264047   4.102   4.357  16.129 -0.7233 -0.3288  0.3432
14211TIP3    H164048   4.148   4.364  16.212 -0.6595 -0.1304  0.2918
14211TIP3    H264049   4.073   4.266  16.125 -0.2161 -0.4925  0.3146
14212TIP3   OH264050   1.949   0.604   0.288  0.1503  0.6862 -0.7429
14212TIP3    H164051   1.904   0.688   0.277 -1.0937  0.0766 -0.4811
14212TIP3    H264052   1.879   0.541   0.307  0.9435 -0.5969 -1.8706
14213TIP3   OH264053   4.985   3.053  11.044 -0.3587  0.1206 -0.0348
14213TIP3    H164054   4.891   3.040  11.056 -0.1693  0.0718  1.5020
14213TIP3    H264055   4.990   3.124  10.980 -1.4405  0.1261 -0.1455
14214TIP3   OH264056   2.697   0.386   4.418  0.4381 -0.2052 -0.3489
14214TIP3    H164057   2.646   0.351   4.491  0.4292  0.0320 -0.2428
14214TIP3    H264058   2.777   0.333   4.418  1.0885  0.7268  0.7358
14215TIP3   OH264059   1.108   3.943  11.849 -0.0883 -0.0688 -0.5396
14215TIP3    H164060   1.186   3.997  11.855 -0.6065  0.5215  2.1805
14215TIP3    H264061   1.139   3.860  11.812  1.8675  0.1181  0.5675
14216TIP3   OH264062   5.849   5.862   1.280 -0.1681  0.3895 -0.1256
14216TIP3    H164063   5.835   5.924   1.209 -0.4438  0.0583 -0.3610
14216TIP3    H264064   5.883   5.915   1.352 -1.1226  0.9411 -0.0732
14217TIP3   OH264065   5.627   1.512   5.155  0.1248 -0.2190  0.1213
14217TIP3    H164066   5.659   1.485   5.241  0.4400 -0.9608 -0.2248
14217TIP3    H264067   5.533   1.525   5.168  0.4777  1.8075  1.0970
14218TIP3   OH264068   2.284   1.805  14.906 -0.2392 -0.2157  0.3248
14218TIP3    H164069   2.364   1.771  14.867 -1.2646 -1.2396 -1.0115
14218TIP3    H264070   2.289   1.779  14.998 -0.0317 -2.2763 -0.2138
14219TIP3   OH264071   0.418   1.206   0.549 -0.1471 -0.0564 -0.0470
14219TIP3    H164072   0.459   1.127   0.513 -4.2466 -1.5400 -2.0260
14219TIP3    H264073   0.434   1.273   0.482 -2.1387 -1.0719 -1.6454
14220TIP3   OH264074   6.148   5.537   5.250  0.6576 -0.5743 -0.6411
14220TIP3    H164075   6.204   5.459   5.256  0.9049 -0.3568 -0.0503
14220TIP3    H264076   6.062   5.506   5.280  0.5857 -0.7827 -1.0566
14221TIP3   OH264077   5.809   5.286  10.917 -0.0183 -0.2625 -0.2128
14221TIP3    H164078   5.754   5.360  10.942 -0.7966 -0.3577 -1.5240
14221TIP3    H264079   5.748   5.213  10.905  0.1942 -0.1092 -2.7084
14222TIP3   OH264080   5.024   4.956  15.275 -0.2426 -0.0572  0.3637
14222TIP3    H164081   4.936   4.956  15.312 -0.5600 -0.7866 -0.3662
14222TIP3    H264082   5.011   4.937  15.182  0.5623  1.3034 -0.0579
14223TIP3   OH264083   5.174   3.386   1.793  0.7245  0.7231 -0.0941
14223TIP3    H164084   5.166   3.449   1.865  1.1559  0.1314  0.4837
14223TIP3    H264085   5.243   3.326   1.822  0.3275 -0.0075 -0.6411
14224TIP3   OH264086   0.169   0.024  14.053 -0.6213  0.0357  0.1257
14224TIP3    H164087   0.258   0.049  14.027 -0.6267  1.0286  1.0018
14224TIP3    H264088   0.131  -0.015  13.974  0.2597  0.5228 -0.5526
14225TIP3   OH264089   4.138   3.125   4.944 -0.1954 -0.3192  0.0924
14225TIP3    H164090   4.151   3.041   4.899  2.9726 -0.0410  0.2374
14225TIP3    H264091   4.095   3.102   5.026  1.2997 -1.9847  0.4742
14226TIP3   OH264092   5.785   4.369   2.753 -0.5428  0.1798  0.6065
14226TIP3    H164093   5.838   4.447   2.737 -1.1750  0.4488 -0.2310
14226TIP3    H264094   5.695   4.398   2.739 -0.7926 -0.6944  0.3242
14227TIP3   OH264095   5.634   1.344  12.689  0.0889  0.0917 -0.0793
14227TIP3    H164096   5.587   1.290  12.625  1.3073 -0.7972 -0.2565
14227TIP3    H264097   5.611   1.306  12.774 -1.4002  1.1722  0.0423
14228TIP3   OH264098   5.047   4.168   2.303  0.3517 -0.0961  0.9299
14228TIP3    H164099   5.084   4.171   2.391  0.2252 -2.2790  1.1327
14228TIP3    H264100   5.047   4.258   2.273 -0.5192  0.8642  3.5404
14229TIP3   OH264101   0.799   2.352  13.666  0.6137  0.2512 -0.4358
14229TIP3    H164102   0.711   2.358  13.627  0.0008  0.7692  0.9756
14229TIP3    H264103   0.857   2.346  13.590 -0.6870 -1.0569 -1.4077
14230TIP3   OH264104   2.493   3.110   4.838  0.3546 -0.0727 -0.2905
14230TIP3    H164105   2.452   3.024   4.832 -0.6921  0.2821  1.2164
14230TIP3    H264106   2.430   3.170   4.798  0.1392  0.2593  0.5351
14231TIP3   OH264107   2.667   2.525   6.143  0.2164 -0.1761 -0.5754
14231TIP3    H164108   2.737   2.542   6.207 -0.3693  0.4017 -0.0731
14231TIP3    H264109   2.620   2.450   6.179 -0.1207  0.1565 -0.3151
14232TIP3   OH264110   6.160   4.400   3.738 -0.5072  0.8975 -0.1452
14232TIP3    H164111   6.221   4.411   3.666 -0.2044  0.5198  0.0479
14232TIP3    H264112   6.190   4.321   3.783 -1.0835  0.7597  0.0072
14233TIP3   OH264113   0.948   6.241   4.221  0.1634 -0.0705  0.2226
14233TIP3    H164114   0.869   6.199   4.254 -0.7945 -1.3272 -3.2557
14233TIP3    H264115   0.916   6.320   4.176  0.6054 -1.2800 -2.3746
14234TIP3   OH264116   5.530   4.847   5.694  0.2102 -0.6122  0.0936
14234TIP3    H164117   5.551   4.891   5.776 -0.9910 -0.8107  0.5280
14234TIP3    H264118   5.540   4.754   5.713 -0.4001 -0.6755  0.1221
14235TIP3   OH264119   2.954   5.067   0.999  0.2485  0.0013 -0.4888
14235TIP3    H164120   3.039   5.077   0.956  0.1809 -0.5655 -0.7554
14235TIP3    H264121   2.906   5.146   0.974  0.2976 -0.2034 -1.2568
14236TIP3   OH264122   0.752   2.078  16.018 -0.0011  0.0002 -0.2959
14236TIP3    H164123   0.773   2.086  16.111  0.3059 -1.6546 -0.1828
14236TIP3    H264124   0.830   2.110  15.973 -0.3678  1.3461 -0.0171
14237TIP3   OH264125   5.897   6.221  13.546 -0.1531 -0.0391  0.1445
14237TIP3    H164126   5.901   6.262  13.460 -1.5525 -1.2568 -0.5511
14237TIP3    H264127   5.822   6.261  13.590  1.6807  1.9898  1.6434
14238TIP3   OH264128   0.804   0.075   5.456 -0.5636 -0.3920  0.3242
14238TIP3    H164129   0.865   0.029   5.397  0.0621  0.8469 -0.0415
14238TIP3    H264130   0.798   0.018   5.533 -1.0122 -1.8111 -0.7186
14239TIP3   OH264131   3.051   5.535  13.618  0.5221  0.4364 -0.7374
14239TIP3    H164132   3.140   5.551  13.650  0.8011  0.6998 -1.6010
14239TIP3    H264133   3.036   5.442  13.634  0.1378  0.8114  1.3360
14240TIP3   OH264134   5.108   4.367   4.364 -0.0494 -0.4974 -0.1448
14240TIP3    H164135   5.132   4.361   4.456  4.1769 -2.4897 -1.1188
14240TIP3    H264136   5.126   4.458   4.341  1.3623 -0.5719  0.5187
14241TIP3   OH264137   2.547   5.003   1.819 -0.0081 -0.3551  0.2558
14241TIP3    H164138   2.547   4.976   1.911  1.3648  1.2887  0.7865
14241TIP3    H264139   2.455   5.017   1.797 -0.2925 -0.0908  1.5796
14242TIP3   OH264140   3.170   5.267  11.636  0.0035 -0.0401  0.1946
14242TIP3    H164141   3.165   5.344  11.693  0.3470  1.0341 -1.1674
14242TIP3    H264142   3.250   5.222  11.662  0.4533  0.7471  0.1906
14243TIP3   OH264143   1.433   5.029  16.314 -0.3911 -0.3782  0.1946
14243TIP3    H164144   1.505   4.993  16.366  0.6837 -0.4649 -1.2722
14243TIP3    H264145   1.356   5.023  16.370  0.8589  0.3221  2.0687
14244TIP3   OH264146   6.208   3.987  15.064  0.1772  0.4352  0.2017
14244TIP3    H164147   6.170   3.917  15.012 -1.4261  1.5118 -0.1621
14244TIP3    H264148   6.267   3.943  15.125  0.3075 -1.0645 -0.9585
14245TIP3   OH264149   1.091   4.549   2.220  0.5944 -0.0528  0.5531
14245TIP3    H164150   1.077   4.553   2.125  0.3507  0.3948  0.6050
14245TIP3    H264151   1.041   4.472   2.248 -0.6531  0.7272  0.5381
14246TIP3   OH264152   6.176   6.225  12.182 -0.0936  0.5926  0.7130
14246TIP3    H164153   6.236   6.180  12.241 -0.5732 -1.3354 -0.1905
14246TIP3    H264154   6.149   6.304  12.231  1.1322  0.1549  2.1716
14247TIP3   OH264155   4.834   5.376  11.980 -0.5322  0.1493  0.1860
14247TIP3    H164156   4.760   5.375  11.920  1.1299  0.6004 -1.9877
14247TIP3    H264157   4.880   5.294  11.964  0.3189  0.5831  0.3389
14248TIP3   OH264158   3.330   5.227   1.613 -0.6929  0.3108 -0.8252
14248TIP3    H164159   3.281   5.147   1.591  2.0874 -1.5247 -0.8416
14248TIP3    H264160   3.359   5.213   1.703 -0.6376  1.6072 -0.6243
14249TIP3   OH264161   1.874   2.610   1.193 -0.0162  0.4863 -0.4553
14249TIP3    H164162   1.945   2.548   1.210  3.0984  3.8578  0.2060
14249TIP3    H264163   1.848   2.641   1.279 -1.3958  0.2650 -0.7786
14250TIP3   OH264164   0.072   0.211  11.843  0.3985  0.0821 -0.2971
14250TIP3    H164165   0.069   0.247  11.755 -0.8829 -1.3581 -0.8915
14250TIP3    H264166   0.004   0.259  11.891 -0.0200 -0.2198 -0.5719
14251TIP3   OH264167   5.835   3.786  11.809  0.0395 -0.0086 -0.2084
14251TIP3    H164168   5.792   3.862  11.769 -1.1638 -0.3450  0.4118
14251TIP3    H264169   5.797   3.711  11.764  0.2705 -0.3050  0.0883
14252TIP3   OH264170   5.843   1.959  17.265 -0.1502 -0.6091  0.3802
14252TIP3    H164171   5.895   2.035  17.239 -0.5331 -0.7477 -0.8742
14252TIP3    H264172   5.752   1.990  17.265 -0.2467 -0.8875  0.5455
14253TIP3   OH264173   3.896   5.275  13.760  0.1901  0.4891  0.4283
14253TIP3    H164174   3.845   5.200  13.790  0.0178  0.3363 -0.2420
14253TIP3    H264175   3.833   5.332  13.716  0.7195 -0.1101 -1.1726
14254TIP3   OH264176   5.780   3.952   6.903  0.2502  0.1073  0.1507
14254TIP3    H164177   5.739   3.908   6.829  1.6790 -0.0774 -0.5406
14254TIP3    H264178   5.777   4.045   6.881 -0.3929  0.1573  0.4185
14255TIP3   OH264179   4.040   1.698  14.733 -0.1948 -0.3917 -0.0729
14255TIP3    H164180   3.958   1.648  14.734  0.0964 -0.9130  1.5165
14255TIP3    H264181   4.036   1.751  14.813  1.3641 -1.0497  0.4789
14256TIP3   OH264182   4.921   6.555  13.719 -0.2553 -0.6357  0.1433
14256TIP3    H164183   4.847   6.584  13.665 -0.1669 -1.6336 -0.5330
14256TIP3    H264184   4.889   6.563  13.809 -1.3622 -1.4774 -0.1527
14257TIP3   OH264185   2.155   1.781  16.674  0.4379  0.5183  0.0153
14257TIP3    H164186   2.095   1.748  16.608 -2.0314  0.0864  2.3111
14257TIP3    H264187   2.192   1.702  16.714 -0.7769  0.6250  1.4223
14258TIP3   OH264188   3.880   2.906  13.886  0.4035  0.4082  0.2847
14258TIP3    H164189   3.972   2.879  13.889  0.8567  1.6190 -1.3006
14258TIP3    H264190   3.879   2.981  13.827 -1.6277  0.3759  0.2076
14259TIP3   OH264191   5.258   1.218  11.733  0.3809  0.1023  0.0204
14259TIP3    H164192   5.335   1.198  11.786  0.4483 -0.2685 -0.2139
14259TIP3    H264193   5.282   1.299  11.687  1.1170 -0.6480 -0.9721
14260TIP3   OH264194   3.656   6.338   4.326  0.9058  0.2056 -0.4508
14260TIP3    H164195   3.607   6.400   4.272 -0.7161 -0.5371  0.1096
14260TIP3    H264196   3.742   6.379   4.336  1.3930  0.2218 -3.7927
14261TIP3   OH264197   2.536   1.672   5.614 -0.4715 -0.0527  0.5547
14261TIP3    H164198   2.610   1.629   5.571 -0.3544  0.6155  0.0794
14261TIP3    H264199   2.498   1.604   5.671 -1.1600 -1.2182 -1.2245
14262TIP3   OH264200   2.905   5.528  15.164 -0.0594 -0.5424  0.5004
14262TIP3    H164201   2.809   5.521  15.166 -0.0847 -0.2138  0.5138
14262TIP3    H264202   2.936   5.448  15.207 -0.2821 -1.7071 -1.3927
14263TIP3   OH264203   4.548   5.110   0.374 -0.3589  0.2139  0.1755
14263TIP3    H164204   4.507   5.065   0.448 -0.1594 -1.2162 -0.5524
14263TIP3    H264205   4.492   5.186   0.359 -2.4125 -1.3004 -0.3364
14264TIP3   OH264206   5.504   3.616  14.184  0.2104 -0.2693 -0.1051
14264TIP3    H164207   5.446   3.540  14.181 -1.1980  0.7943 -0.9615
14264TIP3    H264208   5.550   3.614  14.100  0.0982 -0.1278 -0.1704
14265TIP3   OH264209   2.032   6.610  11.787 -0.3264  0.8845 -0.2415
14265TIP3    H164210   2.066   6.538  11.840  0.4688  0.9817 -0.6067
14265TIP3    H264211   2.063   6.592  11.698 -1.5999  0.7539 -0.6770
14266TIP3   OH264212   4.689   4.645   2.941  0.3809  0.0381  0.7540
14266TIP3    H164213   4.736   4.571   2.905  1.5288  0.8212  0.6036
14266TIP3    H264214   4.599   4.613   2.951  0.6682 -1.1050 -0.0655
14267TIP3   OH264215   3.305   4.784   1.490 -0.0177 -0.0803  0.5518
14267TIP3    H164216   3.242   4.740   1.547 -1.4400  0.5032 -0.5268
14267TIP3    H264217   3.292   4.744   1.404  0.3425  0.8035  0.0744
14268TIP3   OH264218   3.017   3.005   1.083  0.1921 -0.4492  0.6052
14268TIP3    H164219   3.039   2.945   1.153 -0.7083  0.3564  1.6142
14268TIP3    H264220   2.945   3.058   1.118 -1.1435 -0.8548 -1.3773
14269TIP3   OH264221   0.408   4.761   5.303 -0.4277  0.4314 -0.2027
14269TIP3    H164222   0.401   4.754   5.208 -0.2578 -1.0538 -0.1240
14269TIP3    H264223   0.346   4.830   5.327 -0.9930  0.3204 -1.3184
14270TIP3   OH264224   3.107   1.966   5.192 -0.4293  0.0226 -0.4884
14270TIP3    H164225   3.083   1.891   5.138 -1.5485  1.1331 -1.5983
14270TIP3    H264226   3.050   2.036   5.162 -1.1028  0.7196  2.1293
14271TIP3   OH264227   3.908   3.076  13.664  0.1242  0.2241 -0.0200
14271TIP3    H164228   3.948   3.147  13.715 -0.5104 -0.5265  1.5656
14271TIP3    H264229   3.917   3.105  13.573  2.3542  1.0536  0.3951
14272TIP3   OH264230   3.603   3.850   1.162 -0.0390 -1.0911  0.3513
14272TIP3    H164231   3.693   3.829   1.135  0.6607 -0.8456  2.3258
14272TIP3    H264232   3.591   3.801   1.244 -1.5851 -0.8333  0.2959
14273TIP3   OH264233   2.956   2.554   3.552  0.2800  0.7987 -0.0494
14273TIP3    H164234   2.882   2.529   3.497 -0.0211  0.8925  0.3116
14273TIP3    H264235   3.025   2.579   3.489 -0.3056  1.6163 -0.3885
14274TIP3   OH264236   3.906   4.853   1.417 -0.3081 -0.1999 -0.2890
14274TIP3    H164237   3.933   4.761   1.413 -0.9391 -0.3556 -1.4462
14274TIP3    H264238   3.989   4.902   1.420  0.0323 -0.8236  2.1031
14275TIP3   OH264239   1.220   5.005  15.357  0.1889  0.6180 -0.1755
14275TIP3    H164240   1.181   4.929  15.314 -0.1387  0.9493 -0.4685
14275TIP3    H264241   1.148   5.042  15.409 -0.0429  1.5225 -1.1073
14276TIP3   OH264242   1.004   1.649  13.019  0.5270 -0.4401  0.2276
14276TIP3    H164243   1.071   1.645  12.951  1.2006 -0.2340  0.8557
14276TIP3    H264244   1.035   1.719  13.078  0.6694 -1.5065  1.4688
14277TIP3   OH264245   6.452   1.903  16.127 -0.0158 -0.6320  0.2967
14277TIP3    H164246   6.519   1.971  16.136  0.2018 -0.8753  0.5091
14277TIP3    H264247   6.450   1.860  16.212 -1.7599  0.5929  0.9301
14278TIP3   OH264248   1.493   6.148  11.526  0.6466 -0.1643  0.4546
14278TIP3    H164249   1.498   6.240  11.499 -0.5844 -0.3083 -0.3662
14278TIP3    H264250   1.583   6.123  11.544  1.2908  0.5840 -1.4513
14279TIP3   OH264251   0.570   4.478  10.603  0.5125  0.4580 -0.0482
14279TIP3    H164252   0.584   4.551  10.542 -0.2864  0.6110 -0.0665
14279TIP3    H264253   0.550   4.520  10.687  0.2160  0.2670 -0.0183
14280TIP3   OH264254   0.944   0.555   2.630 -0.0153  0.0748  0.1492
14280TIP3    H164255   0.916   0.494   2.562  0.7316 -0.5886  0.4219
14280TIP3    H264256   0.936   0.505   2.711 -0.1214  0.5978  0.4639
14281TIP3   OH264257   0.745   3.459   2.186 -0.5478  0.1476 -0.2564
14281TIP3    H164258   0.807   3.474   2.115 -0.6528  2.7443  0.1193
14281TIP3    H264259   0.797   3.420   2.256 -0.0178 -0.4978 -0.9953
14282TIP3   OH264260   0.659   2.876   3.312  0.0397 -0.2818 -0.0865
14282TIP3    H164261   0.579   2.825   3.298  0.0754 -0.7339  1.1923
14282TIP3    H264262   0.630   2.951   3.364  0.1142  0.6667 -1.3575
14283TIP3   OH264263   0.935   2.822  11.465 -0.4820 -0.1282 -0.2940
14283TIP3    H164264   0.996   2.752  11.488  0.1992  0.3929 -0.4879
14283TIP3    H264265   0.854   2.776  11.440  0.2986 -0.9022 -1.4866
14284TIP3   OH264266   1.207   3.550  16.111  0.0502  0.3083  0.5331
14284TIP3    H164267   1.225   3.639  16.082 -0.5500  0.4326  0.5471
14284TIP3    H264268   1.139   3.558  16.177  0.9353 -0.0443  1.5192
14285TIP3   OH264269   5.522   2.981  14.061  0.1960 -0.3237  0.1857
14285TIP3    H164270   5.505   3.050  13.998 -0.8315  1.0349  1.8516
14285TIP3    H264271   5.599   2.935  14.027  0.4895  1.2082 -1.3239
14286TIP3   OH264272   5.252   3.490  11.376 -0.2955 -0.1660  0.2439
14286TIP3    H164273   5.204   3.560  11.333 -0.6670 -0.1735  0.6452
14286TIP3    H264274   5.308   3.454  11.307  0.2729  0.8500  0.1612
14287TIP3   OH264275   4.239   3.557   1.062 -0.1387 -0.0479 -0.0570
14287TIP3    H164276   4.235   3.461   1.059  0.1257 -0.0396 -1.7050
14287TIP3    H264277   4.201   3.585   0.979  0.4073  1.2583  0.1045
14288TIP3   OH264278   0.387   4.011   2.517  0.5070 -0.2361  0.2679
14288TIP3    H164279   0.365   4.088   2.570 -0.7317  0.1705 -0.7774
14288TIP3    H264280   0.361   3.936   2.571  0.7032  0.1097  0.8496
14289TIP3   OH264281   6.516   4.804   0.906  0.3048 -0.1520 -0.4939
14289TIP3    H164282   6.522   4.804   1.001  1.6887  0.2141 -0.5561
14289TIP3    H264283   6.544   4.891   0.879 -1.1476  0.1254 -1.2054
14290TIP3   OH264284   6.707   2.442  16.827  0.1449 -0.1629  0.4701
14290TIP3    H164285   6.646   2.371  16.842 -0.3840  0.2108  0.0971
14290TIP3    H264286   6.718   2.446  16.732 -1.7405  1.8054  0.2642
14291TIP3   OH264287   1.613   6.720  14.643 -0.1836  0.4422  0.3409
14291TIP3    H164288   1.543   6.769  14.601  0.3841  0.5005 -0.5629
14291TIP3    H264289   1.693   6.752  14.602  0.2497 -0.7661  0.1978
14292TIP3   OH264290   5.146   1.139  16.947  0.5613 -0.5084 -0.5810
14292TIP3    H164291   5.066   1.090  16.933 -0.5774  1.1459 -0.1939
14292TIP3    H264292   5.126   1.199  17.020  2.4740 -0.7393  0.2129
14293TIP3   OH264293   0.683   4.660   5.807  0.0888 -0.0334  0.1785
14293TIP3    H164294   0.767   4.655   5.853  0.0702  0.5813  0.2911
14293TIP3    H264295   0.628   4.712   5.865  0.9126  3.2976 -1.7402
14294TIP3   OH264296   0.433   1.896   3.623  0.1336  0.0194  0.2501
14294TIP3    H164297   0.365   1.883   3.557  0.3025 -1.9199  0.3938
14294TIP3    H264298   0.513   1.862   3.582  0.8512  1.4503  0.4136
14295TIP3   OH264299   3.029   6.406   2.681  0.1649  0.1586 -0.3797
14295TIP3    H164300   2.998   6.470   2.746  1.0531  0.4153 -0.1988
14295TIP3    H264301   3.019   6.450   2.597  2.0032  1.0729 -0.1611
14296TIP3   OH264302   1.830   5.012  10.813 -0.6210  0.0065 -0.3227
14296TIP3    H164303   1.919   5.023  10.845 -1.1155 -0.6087  1.3753
14296TIP3    H264304   1.814   5.090  10.760  0.1499  1.3027  1.2529
14297TIP3   OH264305   4.712   3.840   3.198 -0.0968 -0.0695  0.0741
14297TIP3    H164306   4.644   3.833   3.265  0.0545  0.4507  0.2917
14297TIP3    H264307   4.668   3.820   3.116 -0.5329  0.3282  0.2066
14298TIP3   OH264308   6.015   2.286   0.792  0.2343  0.8246 -0.9554
14298TIP3    H164309   6.052   2.372   0.813 -1.5878  2.2505 -3.0630
14298TIP3    H264310   6.070   2.254   0.720 -0.0182  0.9679 -1.2151
14299TIP3   OH264311   0.993   6.188  11.861  0.6080  0.1825  0.3187
14299TIP3    H164312   0.935   6.263  11.849 -2.0781 -1.5494  1.4888
14299TIP3    H264313   1.070   6.209  11.808 -1.1487  2.5322 -1.5711
14300TIP3   OH264314   0.608   0.602   1.848 -0.2748 -0.0664 -0.3722
14300TIP3    H164315   0.652   0.596   1.764 -0.9595  2.3974 -0.9726
14300TIP3    H264316   0.634   0.686   1.884  0.1076 -1.1080  1.9992
14301TIP3   OH264317   3.451   2.681  12.178  0.4227 -0.2528 -0.2498
14301TIP3    H164318   3.473   2.766  12.140  1.3819 -1.2447 -2.0425
14301TIP3    H264319   3.421   2.629  12.104 -0.8068 -1.3053  0.9282
14302TIP3   OH264320   5.253   2.509  11.773  0.5009 -0.6863  0.4133
14302TIP3    H164321   5.209   2.481  11.692 -0.8705 -1.0953  1.2635
14302TIP3    H264322   5.191   2.570  11.814  1.7262  0.4922  0.5620
14303TIP3   OH264323   2.251   2.772   3.742 -0.4061 -0.2898  0.4242
14303TIP3    H164324   2.298   2.802   3.665 -2.9612  1.3339 -0.6230
14303TIP3    H264325   2.292   2.688   3.764  0.1300 -1.0573 -2.9764
14304TIP3   OH264326   3.290   5.888  12.579 -0.0250  0.3678  0.4255
14304TIP3    H164327   3.302   5.834  12.657  4.0368  0.7796  0.2691
14304TIP3    H264328   3.255   5.971  12.612  0.0176 -0.0432  1.5451
14305TIP3   OH264329   2.203   2.030  15.655 -0.2346 -0.3185  0.6903
14305TIP3    H164330   2.148   2.090  15.604 -0.3220 -0.3833  0.7086
14305TIP3    H264331   2.143   1.992  15.720  0.2450  1.0781  1.9880
14306TIP3   OH264332   3.627   1.987  10.826  0.2177  0.1480  0.5471
14306TIP3    H164333   3.603   2.052  10.761 -0.0938  0.5535  1.0657
14306TIP3    H264334   3.573   1.911  10.805 -0.3454  0.4958  0.7134
14307TIP3   OH264335   2.393   1.164   3.178 -0.8697 -0.2359 -0.4997
14307TIP3    H164336   2.430   1.081   3.146 -2.0139 -0.0785 -2.3801
14307TIP3    H264337   2.311   1.139   3.219  0.2622 -0.3477  1.8581
14308TIP3   OH264338   5.916   3.156  12.295 -0.2559  0.3312 -0.2895
14308TIP3    H164339   6.009   3.175  12.283  0.4333 -0.2633  3.1063
14308TIP3    H264340   5.914   3.066  12.330 -1.8988  1.0308  1.5996
14309TIP3   OH264341   1.155   6.216   5.843  0.3809  0.1502 -0.4210
14309TIP3    H164342   1.227   6.212   5.781  1.3615 -1.1851  0.7247
14309TIP3    H264343   1.182   6.157   5.914 -0.1733  2.3894  1.8000
14310TIP3   OH264344   6.136   1.472   1.611  0.5504 -0.9765 -0.3628
14310TIP3    H164345   6.162   1.525   1.536  0.4010 -0.7534 -0.2574
14310TIP3    H264346   6.047   1.500   1.631  0.1455 -1.8706 -0.8404
14311TIP3   OH264347   3.446   6.055   4.599  0.6904  0.0354  0.0754
14311TIP3    H164348   3.511   6.107   4.647 -0.5024  1.1870  0.4915
14311TIP3    H264349   3.368   6.110   4.596 -0.9944 -2.1201  1.4582
14312TIP3   OH264350   2.499   6.416   1.973  0.2738  0.0184  0.2725
14312TIP3    H164351   2.466   6.397   2.061 -1.7509 -0.2823 -0.5106
14312TIP3    H264352   2.458   6.499   1.949 -0.0921 -0.4633 -0.8122
14313TIP3   OH264353   4.984   6.001  14.872  0.1810 -0.0011  0.3049
14313TIP3    H164354   4.923   5.933  14.899  0.7943 -0.9179 -0.5322
14313TIP3    H264355   5.070   5.958  14.876  0.4513  0.3221 -1.4215
14314TIP3   OH264356   4.887   6.133   2.487 -0.0034  0.7349  0.3298
14314TIP3    H164357   4.872   6.217   2.443 -0.6280 -0.5246 -1.9976
14314TIP3    H264358   4.944   6.156   2.562 -1.2942  3.3981  0.6316
14315TIP3   OH264359   5.920   4.595   0.847  0.3805  0.5502  0.1175
14315TIP3    H164360   6.009   4.627   0.831  0.6052  0.4670  1.1379
14315TIP3    H264361   5.874   4.609   0.764  1.1386  1.2889 -0.1915
14316TIP3   OH264362   3.629   5.431  10.861  0.3736  0.6352 -0.0922
14316TIP3    H164363   3.688   5.464  10.928 -0.7485 -0.8050  1.7172
14316TIP3    H264364   3.687   5.392  10.795  1.4852  1.0026  0.6384
14317TIP3   OH264365   6.383   2.921  16.021  0.1922  0.0624 -0.4734
14317TIP3    H164366   6.392   2.872  15.939 -0.2690  1.3166 -1.3152
14317TIP3    H264367   6.469   2.959  16.036  0.2559 -0.0999 -0.4323
14318TIP3   OH264368   3.663   4.704   1.019  0.3977  0.1699 -0.3626
14318TIP3    H164369   3.704   4.785   0.990 -2.6360  1.2541 -1.9653
14318TIP3    H264370   3.654   4.714   1.114  0.2420  1.6267 -0.5182
14319TIP3   OH264371   6.252   4.496  12.265 -0.0214 -0.0612 -0.2812
14319TIP3    H164372   6.270   4.573  12.212 -1.2556  0.8171  0.5185
14319TIP3    H264373   6.313   4.430  12.234  0.7683  1.1101 -1.2739
14320TIP3   OH264374   0.444   3.656   6.263 -0.6396 -0.0813  0.4352
14320TIP3    H164375   0.525   3.618   6.228 -0.3427  0.9469 -0.0333
14320TIP3    H264376   0.431   3.612   6.347  0.8078  0.2419  0.8628
14321TIP3   OH264377   1.057   0.318   6.175  0.2038 -0.0338 -0.2753
14321TIP3    H164378   1.072   0.227   6.151  0.8645 -0.3221  1.1362
14321TIP3    H264379   0.977   0.342   6.129  0.5528 -1.0060 -1.4588
14322TIP3   OH264380   6.159   2.017  11.369 -0.4992  0.1035  0.1965
14322TIP3    H164381   6.242   1.969  11.374 -2.0677 -2.9670 -0.6686
14322TIP3    H264382   6.132   2.028  11.461  0.1425 -0.2435  0.4316
14323TIP3   OH264383   5.963   3.307  10.987  0.0194 -0.2047  0.7480
14323TIP3    H164384   5.882   3.351  10.961 -0.9188 -2.5511 -0.5955
14323TIP3    H264385   6.016   3.307  10.907  1.4043  1.2751  1.6055
14324TIP3   OH264386   2.185   4.348   2.019 -0.5175 -0.2188 -0.2622
14324TIP3    H164387   2.101   4.316   1.985 -1.8483  2.6167  0.0745
14324TIP3    H264388   2.246   4.337   1.947 -1.4514 -1.2517 -0.9338
14325TIP3   OH264389   1.011   2.272   2.615 -0.1485  0.2149  0.3805
14325TIP3    H164390   1.091   2.260   2.564 -0.1488 -0.4024  0.5166
14325TIP3    H264391   1.041   2.298   2.702 -0.1176  0.5223  0.2777
14326TIP3   OH264392   1.026   2.271   1.752  0.0561  0.4207 -0.4348
14326TIP3    H164393   1.023   2.364   1.774 -1.3217  0.5433 -0.9986
14326TIP3    H264394   0.946   2.235   1.790  1.2379 -0.8433  0.9660
14327TIP3   OH264395   4.443   4.992  10.477 -0.0030  0.7814  0.1952
14327TIP3    H164396   4.522   5.015  10.429  0.5214  1.4182  1.3168
14327TIP3    H264397   4.443   5.051  10.553  0.6530 -1.9617  2.4846
14328TIP3   OH264398   5.628   3.864   2.593 -0.1810  0.5148 -0.2080
14328TIP3    H164399   5.601   3.858   2.685  1.8024 -0.3113  0.3631
14328TIP3    H264400   5.723   3.876   2.596 -0.0532  0.2991 -2.1661
14329TIP3   OH264401   0.978   0.623  12.644  0.8460  0.2618 -1.1676
14329TIP3    H164402   0.983   0.530  12.622 -0.1135  0.2351 -1.3329
14329TIP3    H264403   1.027   0.667  12.574  0.1349 -0.0325 -1.8737
14330TIP3   OH264404   1.566   2.865  13.782  0.0003  0.2335  0.6698
14330TIP3    H164405   1.518   2.932  13.734 -0.5918  1.6397  3.0742
14330TIP3    H264406   1.524   2.782  13.755 -0.3390  0.9258 -1.0982
14331TIP3   OH264407   1.273   4.110  17.044 -0.2435 -0.2108  0.3254
14331TIP3    H164408   1.260   4.044  16.975  2.1690  0.0603 -0.4770
14331TIP3    H264409   1.266   4.194  16.998 -1.5862  0.0983  1.0300
14332TIP3   OH264410   1.812   5.944  15.076  0.0977 -0.3294 -0.4661
14332TIP3    H164411   1.803   5.921  15.169  0.1098 -0.7145 -0.5572
14332TIP3    H264412   1.723   5.961  15.047  0.0358 -0.7386 -0.5165
14333TIP3   OH264413   4.809   4.598   2.670 -0.8543  0.4153  0.1803
14333TIP3    H164414   4.779   4.508   2.681  1.1481 -0.7032 -2.4517
14333TIP3    H264415   4.744   4.638   2.612 -0.7573  0.1084 -0.1365
14334TIP3   OH264416   2.323   5.593  14.084  0.6164  0.0471 -0.5861
14334TIP3    H164417   2.414   5.623  14.095  0.9214 -1.1110  0.2453
14334TIP3    H264418   2.318   5.567  13.992  0.9998  0.5312 -0.7486
14335TIP3   OH264419   4.481   3.985   0.337 -0.2645 -0.2846  0.0461
14335TIP3    H164420   4.558   3.948   0.295  0.1408  0.4173  0.1599
14335TIP3    H264421   4.411   3.975   0.273  0.5966  1.8456 -1.2958
14336TIP3   OH264422   3.365   5.944   5.205 -0.1169  0.0578 -0.1710
14336TIP3    H164423   3.377   5.999   5.282 -0.1217 -0.6144  0.3189
14336TIP3    H264424   3.270   5.937   5.195 -0.1658 -1.4033  0.9205
14337TIP3   OH264425   4.076   6.114   3.744 -0.0377  0.0817 -0.2449
14337TIP3    H164426   4.127   6.083   3.669 -0.0976 -0.2173 -0.1619
14337TIP3    H264427   4.059   6.036   3.796 -1.0079  0.0926 -0.5330
14338TIP3   OH264428   4.791   6.109  16.087 -0.3070  0.0366  0.0254
14338TIP3    H164429   4.761   6.053  16.158 -1.2120 -0.4910 -0.7494
14338TIP3    H264430   4.713   6.157  16.059 -0.3028 -0.7901 -1.5207
14339TIP3   OH264431   5.629   2.472  16.625  0.0541  0.0866 -0.4114
14339TIP3    H164432   5.603   2.381  16.641 -0.4296  0.1973 -0.5542
14339TIP3    H264433   5.598   2.519  16.703 -0.5766  0.2959 -0.7835
14340TIP3   OH264434   1.346   3.159  10.665  0.2272 -0.2948 -0.4103
14340TIP3    H164435   1.413   3.116  10.613  1.3414  0.7170  0.1456
14340TIP3    H264436   1.394   3.206  10.733 -1.0811 -0.0365  0.3886
14341TIP3   OH264437   4.821   1.090  12.240 -0.3841  0.2676 -0.4457
14341TIP3    H164438   4.795   1.161  12.299  0.8037  0.2813  0.0955
14341TIP3    H264439   4.881   1.132  12.178 -0.8105  0.0340 -1.0148
14342TIP3   OH264440   4.276   6.751   3.647  0.2506  0.2792  0.3817
14342TIP3    H164441   4.336   6.823   3.627 -1.6411  1.9647  0.4522
14342TIP3    H264442   4.253   6.763   3.739 -1.7127  0.9381 -0.1409
14343TIP3   OH264443   0.214   3.148   3.285  0.3757  0.2199  0.6099
14343TIP3    H164444   0.265   3.229   3.276  1.2808 -0.2545  1.3793
14343TIP3    H264445   0.247   3.107   3.364  1.7619 -2.1960 -1.0853
14344TIP3   OH264446   1.955   2.178  16.493 -0.2744  0.4208  0.4903
14344TIP3    H164447   1.953   2.258  16.440  0.4456 -0.3210 -0.7023
14344TIP3    H264448   1.892   2.120  16.451  0.2924 -0.1720  0.4523
14345TIP3   OH264449   6.018   0.605  16.005  0.6685 -0.4065  0.1517
14345TIP3    H164450   5.973   0.576  16.084  1.1698  0.3306  0.7264
14345TIP3    H264451   5.973   0.686  15.980 -0.7197 -1.6066 -1.4332
14346TIP3   OH264452   2.182   1.955   3.739 -0.0686  0.0733  0.0015
14346TIP3    H164453   2.169   2.037   3.691 -0.8962 -0.5993 -0.9813
14346TIP3    H264454   2.214   1.982   3.824  0.3152  1.3850 -0.5292
14347TIP3   OH264455   5.062   3.609   1.340 -0.0375  0.1725  0.1199
14347TIP3    H164456   4.969   3.594   1.355  0.0995  0.8524  2.0627
14347TIP3    H264457   5.106   3.555   1.406  0.9660 -0.2601 -0.8687
14348TIP3   OH264458   3.694   1.661  13.367  0.2881 -0.4150  0.2311
14348TIP3    H164459   3.716   1.745  13.408  1.1718 -0.1557 -0.7231
14348TIP3    H264460   3.745   1.660  13.286  1.2929 -2.4471  0.8294
14349TIP3   OH264461   1.838   5.645  16.229  0.0848  0.5220  0.5106
14349TIP3    H164462   1.817   5.725  16.278  1.5519  0.7943  0.7340
14349TIP3    H264463   1.757   5.594  16.232 -0.7440  1.7993  0.7454
14350TIP3   OH264464   2.795   1.348   5.498  0.2237  0.5660 -0.1193
14350TIP3    H164465   2.703   1.321   5.504  0.2657  0.6922  2.6605
14350TIP3    H264466   2.791   1.439   5.471 -0.5957  0.9748  1.2520
14351TIP3   OH264467   2.998   0.514  14.526 -0.3186  0.2114 -0.1407
14351TIP3    H164468   3.056   0.565  14.583 -2.9286  1.0687  1.9751
14351TIP3    H264469   2.975   0.437  14.578 -1.4487  0.1413 -0.7137
14352TIP3   OH264470   4.137   4.312  12.948  0.3735  0.4313 -0.2840
14352TIP3    H164471   4.213   4.255  12.933  0.4477  0.3794  0.2918
14352TIP3    H264472   4.152   4.351  13.034 -0.2619  0.4164 -0.1641
14353TIP3   OH264473   3.913   2.187   5.149 -0.3159 -0.5293 -0.8839
14353TIP3    H164474   3.980   2.121   5.131 -1.7364 -1.4691 -3.2290
14353TIP3    H264475   3.837   2.160   5.096 -2.1925  1.0766  0.7991
14354TIP3   OH264476   6.527   4.567   2.992  0.1180  0.0890 -0.3023
14354TIP3    H164477   6.470   4.566   2.916 -1.0087 -1.4335  0.5197
14354TIP3    H264478   6.582   4.645   2.980 -2.2240  1.7186 -1.0436
14355TIP3   OH264479   3.959   5.805   2.301 -0.1153 -0.1603  0.0755
14355TIP3    H164480   3.898   5.811   2.374 -2.4639  0.9500 -1.8170
14355TIP3    H264481   3.907   5.767   2.230  2.2943 -1.9678 -0.8418
14356TIP3   OH264482   4.630   2.028  11.069  0.6629  0.4271  0.0100
14356TIP3    H164483   4.546   2.023  11.024  1.0008 -0.1995 -0.5640
14356TIP3    H264484   4.690   2.065  11.005  0.9714  0.2622  0.1968
14357TIP3   OH264485   2.687   2.176   5.700 -0.4935  0.2052 -0.2254
14357TIP3    H164486   2.616   2.221   5.745  0.4112  1.3985  0.0576
14357TIP3    H264487   2.689   2.215   5.613  0.1608  0.5770 -0.0511
14358TIP3   OH264488   5.591   2.995   6.563 -0.6428 -0.0333 -0.1547
14358TIP3    H164489   5.661   2.937   6.531 -0.7978  0.2166 -0.9740
14358TIP3    H264490   5.637   3.072   6.596 -0.5246  0.0972 -0.6201
14359TIP3   OH264491   2.185   4.971   4.182 -0.1377 -0.4968  0.4594
14359TIP3    H164492   2.192   5.067   4.180  0.4344 -0.5524 -0.9226
14359TIP3    H264493   2.109   4.951   4.128 -0.8450 -0.7898  1.5414
14360TIP3   OH264494   0.625   3.705  12.524 -0.0724 -0.7235 -0.2422
14360TIP3    H164495   0.591   3.794  12.515  0.8283 -0.4130 -0.7133
14360TIP3    H264496   0.548   3.651  12.544 -0.5884  0.1945  0.2930
14361TIP3   OH264497   3.529   4.609   4.029 -0.5384  0.1919  0.0174
14361TIP3    H164498   3.556   4.700   4.024  0.8354 -0.1123  1.0345
14361TIP3    H264499   3.553   4.571   3.945 -0.7481  0.6755 -0.2597
14362TIP3   OH264500   1.008   0.335  16.239 -0.0877 -0.2237 -0.1137
14362TIP3    H164501   1.032   0.356  16.329  1.5489 -0.8984 -0.3615
14362TIP3    H264502   1.058   0.396  16.185 -1.3875  0.4672 -0.5751
14363TIP3   OH264503   4.407   0.684  14.005  0.3404  0.1298 -0.4281
14363TIP3    H164504   4.322   0.649  13.981 -0.0978  0.4744  0.5724
14363TIP3    H264505   4.426   0.750  13.938  0.6965 -1.2329 -1.7158
14364TIP3   OH264506   4.401   0.239  11.522  0.0262 -0.3060 -0.5881
14364TIP3    H164507   4.370   0.160  11.479  2.6792 -1.3787 -0.7523
14364TIP3    H264508   4.478   0.266  11.471 -0.6486  2.2630 -0.3780
14365TIP3   OH264509   4.145   6.029  17.004  0.0113 -0.2911  0.1497
14365TIP3    H164510   4.154   5.954  16.945 -2.7613  2.2717 -4.0948
14365TIP3    H264511   4.230   6.073  16.999  0.3429 -0.9884 -0.7097
14366TIP3   OH264512   4.244   0.811   4.537  0.4815  1.2425  0.4294
14366TIP3    H164513   4.317   0.817   4.475  0.1233 -2.1443 -0.5703
14366TIP3    H264514   4.166   0.821   4.483  0.1651  1.9448  1.0024
14367TIP3   OH264515   6.532   0.842  13.215  0.5468 -0.4406  0.6311
14367TIP3    H164516   6.453   0.800  13.250  0.1670 -0.0628  0.2390
14367TIP3    H264517   6.588   0.854  13.292  0.6731 -1.6573  0.7521
14368TIP3   OH264518   2.213   2.860  15.434  0.3126  0.1413  0.1267
14368TIP3    H164519   2.198   2.954  15.423  0.5386  0.0251 -1.3855
14368TIP3    H264520   2.248   2.852  15.522 -1.0283  1.3069  0.8042
14369TIP3   OH264521   4.616   1.436  16.117  0.3584 -0.0368 -0.1865
14369TIP3    H164522   4.534   1.389  16.133 -0.1142  0.5155 -0.8714
14369TIP3    H264523   4.683   1.368  16.112  0.0515 -0.4413  1.0451
14370TIP3   OH264524   4.182   1.717   5.250  0.0599 -0.3621 -0.2392
14370TIP3    H164525   4.191   1.731   5.344  0.5527 -0.2906 -0.2949
14370TIP3    H264526   4.132   1.793   5.220 -1.4480 -1.1483  0.1921
14371TIP3   OH264527   1.219   5.211   2.865  0.6290 -0.3343 -0.0641
14371TIP3    H164528   1.287   5.193   2.930  2.0832 -1.2527 -1.7554
14371TIP3    H264529   1.268   5.237   2.786 -1.0277 -0.1732 -1.0836
14372TIP3   OH264530   4.127   0.186   2.160  0.0605 -0.3520 -0.1580
14372TIP3    H164531   4.221   0.174   2.167  0.0726 -0.4850 -0.5060
14372TIP3    H264532   4.115   0.281   2.149  0.2454 -0.4435 -1.3315
14373TIP3   OH264533   3.204   0.775  11.516  0.8109 -0.6410  0.2280
14373TIP3    H164534   3.197   0.823  11.434  0.6477  0.8639  1.0828
14373TIP3    H264535   3.254   0.696  11.494 -2.4983 -2.3507 -2.1294
14374TIP3   OH264536   4.215   3.202   2.840  0.6430 -0.0031 -0.3049
14374TIP3    H164537   4.213   3.171   2.750  0.1612  1.9771 -1.0182
14374TIP3    H264538   4.125   3.188   2.872  0.7155 -0.3504 -0.2480
14375TIP3   OH264539   2.942   4.837   2.539  0.1499  0.6157 -0.8244
14375TIP3    H164540   2.852   4.821   2.565  0.0570 -0.2834 -1.6478
14375TIP3    H264541   2.988   4.755   2.559  0.5302  0.6617 -1.4887
14376TIP3   OH264542   3.485   3.207   3.005  0.2645  0.3764  0.3124
14376TIP3    H164543   3.444   3.197   3.091 -2.5396 -1.4332 -1.1042
14376TIP3    H264544   3.459   3.294   2.976 -0.6691  0.1452  0.4155
14377TIP3   OH264545   3.805   0.010  13.237 -0.0514  0.4293  0.5447
14377TIP3    H164546   3.901   0.015  13.240 -0.0575  0.4489  0.7287
14377TIP3    H264547   3.780   0.076  13.172  0.1400 -0.6377 -0.6457
14378TIP3   OH264548   1.549   4.615   1.068 -0.0087  0.2004 -0.4515
14378TIP3    H164549   1.634   4.632   1.029  0.2784 -0.1708  0.0082
14378TIP3    H264550   1.543   4.520   1.074  0.2463  0.2550  1.0332
14379TIP3   OH264551   2.576   6.335  13.116  0.5598 -0.2927  0.0316
14379TIP3    H164552   2.496   6.381  13.142 -0.1610 -1.2836 -0.3884
14379TIP3    H264553   2.646   6.380  13.164 -0.4249 -0.4118  1.6391
14380TIP3   OH264554   3.771   0.465  11.555 -0.5021 -0.6866  0.5906
14380TIP3    H164555   3.789   0.523  11.480 -1.0355  0.9934  1.7030
14380TIP3    H264556   3.699   0.508  11.601 -1.4688 -2.6719  1.0629
14381TIP3   OH264557   0.359   1.086   4.089  0.1817 -0.3453  0.0231
14381TIP3    H164558   0.398   1.115   4.172 -1.6972  1.0218  0.4941
14381TIP3    H264559   0.275   1.047   4.115 -1.1758  1.5447 -1.3022
14382TIP3   OH264560   3.006   1.795   3.513 -0.3611  0.0480 -0.2756
14382TIP3    H164561   3.061   1.759   3.582  1.2484 -2.6305 -2.7478
14382TIP3    H264562   3.063   1.858   3.469 -0.6534  0.1917 -0.4464
14383TIP3   OH264563   5.675   6.056   6.525  0.5855  0.0879 -0.3806
14383TIP3    H164564   5.731   5.992   6.483  0.2726 -0.0031 -0.6626
14383TIP3    H264565   5.598   6.007   6.552  0.6625  0.2014  0.0570
14384TIP3   OH264566   4.021   2.344   3.402 -0.3271  0.6167  0.4677
14384TIP3    H164567   3.971   2.362   3.322 -0.4787 -2.8395 -0.3360
14384TIP3    H264568   3.975   2.271   3.443  1.7764  0.0024  1.8568
14385TIP3   OH264569   4.132   4.556  15.714  0.0659  0.0396  1.1159
14385TIP3    H164570   4.115   4.481  15.770  2.0581  0.3429  2.2425
14385TIP3    H264571   4.227   4.563  15.712 -0.0151  1.2528 -0.7250
14386TIP3   OH264572   4.176   1.622  11.405  0.2293  0.4109  0.3477
14386TIP3    H164573   4.246   1.612  11.340 -0.2531  0.0845 -0.1338
14386TIP3    H264574   4.098   1.640  11.352  0.0614  1.3874  0.9126
14387TIP3   OH264575   0.572   3.175  15.748 -0.1642  0.0332  0.2883
14387TIP3    H164576   0.639   3.239  15.772 -0.0033  0.2854 -0.7660
14387TIP3    H264577   0.508   3.226  15.698  0.4120 -0.7718 -1.3322
14388TIP3   OH264578   3.697   2.823   1.669 -0.0427 -0.0899  0.6331
14388TIP3    H164579   3.753   2.800   1.744 -0.0495 -2.2056  0.0658
14388TIP3    H264580   3.757   2.826   1.595 -0.4746 -1.2073  0.2159
14389TIP3   OH264581   1.341   2.425  12.149  0.2321  0.1085  0.0742
14389TIP3    H164582   1.246   2.438  12.148 -0.0775 -1.4508 -2.7464
14389TIP3    H264583   1.355   2.345  12.098  2.9138 -1.7001  3.2364
14390TIP3   OH264584   6.310   2.820  15.020 -0.1308 -0.2281 -0.7289
14390TIP3    H164585   6.360   2.868  15.086 -1.3571 -0.6050  0.5346
14390TIP3    H264586   6.366   2.745  14.997  0.7671  0.5006 -0.9408
14391TIP3   OH264587   4.253   1.171   4.172  0.1034  0.2657  0.0747
14391TIP3    H164588   4.242   1.162   4.077  0.1716  0.6178  0.0309
14391TIP3    H264589   4.168   1.201   4.203  0.1229  0.2927  0.1023
14392TIP3   OH264590   2.226   0.103  15.947 -0.4598 -0.4316  0.1607
14392TIP3    H164591   2.199   0.100  16.039  2.7289  0.4244  1.2329
14392TIP3    H264592   2.288   0.031  15.938 -0.6667 -0.4417 -1.3242
14393TIP3   OH264593   0.046   4.223  12.626 -0.4003 -0.5076  0.5620
14393TIP3    H164594   0.125   4.186  12.664  0.3155  0.7838  0.3800
14393TIP3    H264595   0.053   4.205  12.532 -0.4237 -0.5900  0.5771
14394TIP3   OH264596   4.529   6.216  13.338 -0.6507 -0.3959 -0.1700
14394TIP3    H164597   4.539   6.218  13.243  1.0871  0.6093  0.0010
14394TIP3    H264598   4.590   6.282  13.370 -1.6170 -0.3122  1.6232
14395TIP3   OH264599   5.458   6.394   3.660 -0.1089  0.1308 -0.3476
14395TIP3    H164600   5.431   6.469   3.713  0.5352 -2.0529  3.4727
14395TIP3    H264601   5.391   6.387   3.592 -1.2579  2.9579  0.3485
14396TIP3   OH264602   4.051   3.292  15.022  0.1641  0.3903 -0.1443
14396TIP3    H164603   4.034   3.244  14.941  3.3526  0.5418 -1.0596
14396TIP3    H264604   4.082   3.378  14.992  1.3641  0.4714  1.2057
14397TIP3   OH264605   5.407   2.246  12.857  0.1067 -0.0636  0.4767
14397TIP3    H164606   5.399   2.340  12.843 -0.2760 -0.0856  0.5560
14397TIP3    H264607   5.401   2.235  12.952 -0.5016 -0.2317  0.4208
14398TIP3   OH264608   6.593   1.731   2.199 -0.2591 -0.5156  0.5344
14398TIP3    H164609   6.499   1.711   2.192 -0.5873  1.3596 -1.8799
14398TIP3    H264610   6.596   1.824   2.219  1.0449 -0.2446 -0.7395
14399TIP3   OH264611   3.868   4.679  13.811  0.0420  0.1895 -0.0921
14399TIP3    H164612   3.807   4.747  13.839 -0.3350  0.6699 -1.9422
14399TIP3    H264613   3.912   4.651  13.892 -2.2681  0.1661  1.2472
14400TIP3   OH264614   6.515   3.915   2.616  0.3655  0.0137  0.3888
14400TIP3    H164615   6.589   3.924   2.676  0.4078 -0.2304  0.3752
14400TIP3    H264616   6.444   3.882   2.671  0.3084  0.1087  0.3724
14401TIP3   OH264617   2.319   3.380  13.866 -0.3148 -0.3296  0.4262
14401TIP3    H164618   2.229   3.406  13.889 -0.5813 -0.4901 -0.3967
14401TIP3    H264619   2.352   3.336  13.944 -1.2748 -1.0645  0.4375
14402TIP3   OH264620   6.050   0.005  14.125  0.6280  0.0201  0.1964
14402TIP3    H164621   6.129   0.020  14.177  0.3229 -0.9790  0.9790
14402TIP3    H264622   6.000   0.086  14.133  1.9032  0.9681 -0.9493
14403TIP3   OH264623   3.075   4.404  15.931  0.0656  0.2177 -0.4654
14403TIP3    H164624   3.103   4.438  16.016 -2.0799 -0.2535  0.4858
14403TIP3    H264625   2.996   4.454  15.910  1.2366  1.2388 -2.8572
14404TIP3   OH264626   3.655   5.141   0.287  0.4167  0.9649  0.1246
14404TIP3    H164627   3.613   5.059   0.312  0.6938  0.0449 -2.1774
14404TIP3    H264628   3.654   5.140   0.192 -0.5056  4.1491 -0.0001
14405TIP3   OH264629   1.563   1.899   4.081  0.8227 -0.2484 -0.1321
14405TIP3    H164630   1.574   1.873   3.990 -0.7526 -0.6335 -0.2453
14405TIP3    H264631   1.582   1.820   4.131 -4.0885 -1.9534 -0.4813
14406TIP3   OH264632   1.392   2.417  12.463 -1.1795  0.4808  0.8056
14406TIP3    H164633   1.339   2.418  12.383  1.5903 -1.1423 -1.2430
14406TIP3    H264634   1.389   2.326  12.492  0.4268  0.3445  0.6205
14407TIP3   OH264635   3.882   3.600   3.021 -0.3304  0.0777 -0.2237
14407TIP3    H164636   3.952   3.647   2.974 -0.7298 -0.1478 -1.0652
14407TIP3    H264637   3.802   3.647   2.999 -0.4200  0.5522  1.0300
14408TIP3   OH264638   3.321   0.576   5.337  0.1015  0.6656 -0.0510
14408TIP3    H164639   3.398   0.633   5.348  1.1027 -0.2746 -1.7338
14408TIP3    H264640   3.257   0.609   5.400  1.0774  2.8931 -0.1368
14409TIP3   OH264641   6.694   3.680   2.053 -0.4100  0.1685  0.5575
14409TIP3    H164642   6.697   3.651   1.961 -1.8109  0.2094  0.4833
14409TIP3    H264643   6.784   3.708   2.071 -0.1272  0.2859 -0.8490
14410TIP3   OH264644   4.235   5.009   4.370  0.1553  0.1983  0.2915
14410TIP3    H164645   4.195   4.968   4.447 -2.3155  0.6084 -0.6891
14410TIP3    H264646   4.196   5.096   4.366 -0.2908 -0.0558 -1.7907
14411TIP3   OH264647   0.831   4.032  14.297 -0.2574 -0.0290  0.0304
14411TIP3    H164648   0.851   3.944  14.327  1.1729  0.2283 -0.1055
14411TIP3    H264649   0.824   4.084  14.378  1.9400  0.3252  0.0438
14412TIP3   OH264650   1.982   3.298   0.090 -0.1342 -0.3510 -0.1142
14412TIP3    H164651   2.002   3.386   0.121  0.7595 -0.6743  0.2440
14412TIP3    H264652   2.042   3.241   0.138 -1.2779 -1.2574  0.3084
14413TIP3   OH264653   1.962   2.040  15.283 -0.3057 -0.0247  0.0055
14413TIP3    H164654   1.901   2.065  15.214  0.5091  0.4201 -0.5707
14413TIP3    H264655   2.003   1.960  15.251  1.2363  1.0450 -0.7964
14414TIP3   OH264656   2.795   0.712   5.607 -0.2996  0.3732 -0.2382
14414TIP3    H164657   2.710   0.702   5.565 -0.3656  0.0221 -0.0221
14414TIP3    H264658   2.835   0.625   5.601 -0.0508  0.4799 -0.1377
14415TIP3   OH264659   5.325   1.766  15.999 -0.2204 -0.5898  0.1113
14415TIP3    H164660   5.376   1.772  15.918 -0.8091 -0.7562 -0.2790
14415TIP3    H264661   5.297   1.855  16.018  2.3621 -0.0119  1.7724
14416TIP3   OH264662   2.277   5.107  15.793 -0.4433 -0.0857 -0.4719
14416TIP3    H164663   2.318   5.109  15.706 -1.8820  0.5925 -1.1716
14416TIP3    H264664   2.295   5.193  15.830  0.3025 -0.4288 -0.0193
14417TIP3   OH264665   1.043   3.324   4.180 -0.2921  0.0074 -0.3606
14417TIP3    H164666   1.116   3.265   4.159  0.0846  0.6747 -0.9430
14417TIP3    H264667   1.037   3.321   4.275  1.5591  1.1848 -0.1670
14418TIP3   OH264668   3.731   6.060   0.942 -0.2419 -0.5878 -0.3985
14418TIP3    H164669   3.658   6.023   0.891 -0.9049  0.2161 -0.0537
14418TIP3    H264670   3.809   6.017   0.907 -0.8181 -0.9981 -1.2057
14419TIP3   OH264671   5.365   4.967   4.626  0.2616  0.7314 -0.2840
14419TIP3    H164672   5.311   4.894   4.596  0.8374  0.1549  0.0613
14419TIP3    H264673   5.303   5.039   4.638 -0.8192 -0.5158  2.2800
14420TIP3   OH264674   5.285   2.154  12.618  0.2927 -0.1681  0.2207
14420TIP3    H164675   5.336   2.173  12.698 -2.3218  0.7226  1.7969
14420TIP3    H264676   5.210   2.104  12.650  0.1174 -1.4409 -2.0255
14421TIP3   OH264677   2.071   0.260   1.489  0.8089  0.5171 -0.3284
14421TIP3    H164678   2.059   0.199   1.417 -1.0314 -0.1872  0.4992
14421TIP3    H264679   2.014   0.226   1.559  0.7333  2.4390  0.6286
14422TIP3   OH264680   6.675   3.431  13.815 -0.4727 -0.5656 -0.0510
14422TIP3    H164681   6.611   3.487  13.857  0.3740  0.7743 -0.4747
14422TIP3    H264682   6.749   3.489  13.795 -0.2875 -1.4220 -2.1315
14423TIP3   OH264683   5.260   4.049   1.372  0.1068  0.0139  0.3255
14423TIP3    H164684   5.251   4.111   1.444  1.9215  0.0742  0.5538
14423TIP3    H264685   5.242   3.964   1.412 -3.4132  0.3505 -0.2073
14424TIP3   OH264686   1.096   5.933  11.939 -0.5286 -0.0953  0.2579
14424TIP3    H164687   1.067   5.876  11.868  0.8537 -1.0736  0.4347
14424TIP3    H264688   1.033   6.005  11.939 -1.9232 -1.2575 -0.4257
14425TIP3   OH264689   2.181   6.593   5.330  0.7244  0.1382  1.1054
14425TIP3    H164690   2.219   6.545   5.257  0.3973 -2.0769  2.3054
14425TIP3    H264691   2.160   6.526   5.395 -1.6630  1.6858  2.0851
14426TIP3   OH264692   3.519   5.352   0.769  0.1409 -0.1012 -0.4276
14426TIP3    H164693   3.558   5.351   0.682  1.0860 -0.4871 -0.0222
14426TIP3    H264694   3.456   5.424   0.767 -0.4745 -0.6485 -1.6847
14427TIP3   OH264695   2.117   3.793  15.993  0.6478  0.0925  0.2812
14427TIP3    H164696   2.161   3.763  15.913  0.8996 -0.1387  0.5029
14427TIP3    H264697   2.070   3.872  15.966  0.6348 -0.0474 -0.1215
14428TIP3   OH264698   2.159   5.705  12.322 -0.0774  0.0603 -0.1183
14428TIP3    H164699   2.079   5.750  12.349  0.4062  0.6760  0.3072
14428TIP3    H264700   2.163   5.719  12.227 -1.6989 -1.9803 -0.5630
14429TIP3   OH264701   6.363   5.009   3.794 -0.1073 -0.0520 -0.0134
14429TIP3    H164702   6.410   4.940   3.842  0.6520  1.2114  1.1257
14429TIP3    H264703   6.345   5.076   3.859  0.1997  1.3583 -1.3187
14430TIP3   OH264704   1.187   3.220  13.236 -0.0053 -0.6253 -0.0454
14430TIP3    H164705   1.235   3.213  13.319 -1.8284 -1.6871  0.9985
14430TIP3    H264706   1.223   3.151  13.181  3.1242  1.7602 -1.3026
14431TIP3   OH264707   0.390   2.696  13.739  0.2032  0.2425  0.0211
14431TIP3    H164708   0.435   2.771  13.777 -0.1269  0.3471  0.2090
14431TIP3    H264709   0.298   2.723  13.732  0.4133  0.5728 -1.7534
14432TIP3   OH264710   3.025   1.436   0.309 -0.0736 -0.1861 -0.3403
14432TIP3    H164711   3.055   1.370   0.247  0.7002 -0.4507  0.2944
14432TIP3    H264712   3.063   1.409   0.393 -3.3738 -1.4458  0.8918
14433TIP3   OH264713   1.222   3.257   3.120 -0.0367  0.3126 -0.1855
14433TIP3    H164714   1.201   3.275   3.212  0.6529  2.8046 -0.4383
14433TIP3    H264715   1.140   3.273   3.073 -0.0401  0.4597 -0.1323
14434TIP3   OH264716   5.268   4.117   6.238 -0.3014 -0.2556  0.8710
14434TIP3    H164717   5.183   4.073   6.236  0.1570 -1.1693 -1.5226
14434TIP3    H264718   5.246   4.210   6.225 -0.9827 -0.3466  1.2931
14435TIP3   OH264719   5.992   0.360   6.463 -0.2523 -0.3550 -0.1652
14435TIP3    H164720   5.973   0.392   6.552  1.8825 -0.6588  0.4532
14435TIP3    H264721   5.928   0.290   6.449 -0.2196 -0.7370  1.4073
14436TIP3   OH264722   6.256   0.332  13.360 -0.1914 -0.2965  0.0531
14436TIP3    H164723   6.162   0.323  13.380 -0.2481 -1.5794 -0.6784
14436TIP3    H264724   6.277   0.253  13.309  1.5411 -0.6204  1.1856
14437TIP3   OH264725   3.539   6.469  15.002 -0.8302  0.1943 -0.3213
14437TIP3    H164726   3.627   6.446  14.974 -0.1585  0.7265  1.2154
14437TIP3    H264727   3.490   6.483  14.921  0.6237  0.3658 -1.1987
14438TIP3   OH264728   4.471   1.556   0.243  0.0676 -0.3589  0.4076
14438TIP3    H164729   4.557   1.519   0.263  0.1379  0.4646  1.8276
14438TIP3    H264730   4.482   1.650   0.257 -1.4443 -0.3983  2.3118
14439TIP3   OH264731   0.649   2.100   2.606  0.3997  0.5259  0.3310
14439TIP3    H164732   0.578   2.053   2.564  0.4960  0.4119  0.2966
14439TIP3    H264733   0.722   2.094   2.544  0.4620  0.5792  0.3988
14440TIP3   OH264734   4.206   4.508  17.051  0.2517 -0.0492 -0.5976
14440TIP3    H164735   4.129   4.492  16.996  0.2578  0.3560 -0.7304
14440TIP3    H264736   4.169   4.528  17.137  0.1077  1.7384 -1.0308
14441TIP3   OH264737   5.137   0.577   2.527  0.2501  0.1706 -0.0484
14441TIP3    H164738   5.054   0.531   2.540  0.5398  0.2848  2.8189
14441TIP3    H264739   5.136   0.648   2.592  2.8288 -0.2270  0.5394
14442TIP3   OH264740   2.405   6.182  11.292  0.0815  0.9358 -0.1029
14442TIP3    H164741   2.311   6.169  11.278  0.1572 -1.6867  1.2486
14442TIP3    H264742   2.421   6.153  11.382  2.0360  2.3567  0.0809
14443TIP3   OH264743   4.197   3.682  14.347 -0.4662  0.4790  0.1209
14443TIP3    H164744   4.235   3.618  14.286  0.8484 -0.5937  1.9719
14443TIP3    H264745   4.250   3.761  14.336 -0.1324  0.2388  0.0115
14444TIP3   OH264746   1.557   6.288  13.866  0.8403 -0.1178 -0.1272
14444TIP3    H164747   1.554   6.291  13.770  2.3099  0.7102 -0.1838
14444TIP3    H264748   1.648   6.308  13.887 -0.2065  3.8748  1.5582
14445TIP3   OH264749   1.656   5.731   1.987  0.4104  0.0246 -0.4028
14445TIP3    H164750   1.670   5.826   1.986 -0.0172  0.0888 -0.8290
14445TIP3    H264751   1.660   5.707   2.080  1.1290  0.3631 -0.3438
14446TIP3   OH264752   1.448   1.889   4.664 -0.2717  0.5029 -0.2103
14446TIP3    H164753   1.471   1.839   4.742 -0.1140  0.1624 -0.4702
14446TIP3    H264754   1.504   1.966   4.668  0.0974  0.2410 -0.2422
14447TIP3   OH264755   5.322   0.869   1.248  0.2331  0.6153  0.5258
14447TIP3    H164756   5.296   0.859   1.340 -2.5154 -1.5173 -0.3267
14447TIP3    H264757   5.240   0.888   1.202  1.1158 -0.6076 -1.7433
14448TIP3   OH264758   2.781   0.838  15.920 -0.2161  0.4645 -0.9736
14448TIP3    H164759   2.695   0.881  15.926 -0.7894 -0.8120  1.2868
14448TIP3    H264760   2.836   0.902  15.876 -1.8076  2.2091 -0.5898
14449TIP3   OH264761   3.843   3.309  11.876 -0.3092 -0.7113  0.0079
14449TIP3    H164762   3.910   3.368  11.842 -0.5176 -0.6494 -0.2961
14449TIP3    H264763   3.760   3.346  11.846 -0.5391 -0.3717  1.0037
14450TIP3   OH264764   1.396   0.005  12.233  0.3603 -0.2384  0.4061
14450TIP3    H164765   1.316  -0.036  12.265  0.3234  1.1987  2.3424
14450TIP3    H264766   1.367   0.056  12.157  0.0502 -2.0779 -0.7684
14451TIP3   OH264767   0.647   2.011  13.274 -0.0773 -0.2350 -0.0167
14451TIP3    H164768   0.623   1.935  13.326  1.2945 -0.8110 -0.1883
14451TIP3    H264769   0.585   2.011  13.202 -0.7348 -0.5872  0.5368
14452TIP3   OH264770   3.196   4.196  16.071 -0.7061 -0.0055  0.3327
14452TIP3    H164771   3.223   4.140  15.998  1.0105 -0.7049  1.4196
14452TIP3    H264772   3.156   4.272  16.030  0.6129 -0.1622 -1.3611
14453TIP3   OH264773   0.559   6.513   2.281 -0.4291 -0.3128 -0.6917
14453TIP3    H164774   0.639   6.467   2.254  1.5704  2.5298 -0.1152
14453TIP3    H264775   0.530   6.466   2.359  1.7129 -0.4585  0.0955
14454TIP3   OH264776   3.670   2.213  16.585 -0.2632 -0.4267 -0.0264
14454TIP3    H164777   3.606   2.175  16.645  0.9446 -2.0711  0.3145
14454TIP3    H264778   3.663   2.160  16.505 -0.0741  0.0617 -0.3719
14455TIP3   OH264779   6.510   1.192  11.766 -0.0460  0.3353 -0.2120
14455TIP3    H164780   6.576   1.153  11.709  0.5686 -1.6190  1.6786
14455TIP3    H264781   6.430   1.143  11.748  0.1480 -0.2826  0.5429
14456TIP3   OH264782   4.577   5.584  17.076  0.1384 -0.2167  0.7158
14456TIP3    H164783   4.574   5.492  17.051  1.4047 -0.5106  1.5380
14456TIP3    H264784   4.493   5.620  17.047  0.9832 -0.7475 -2.8274
14457TIP3   OH264785   2.566   5.961   3.645 -0.9061  0.1836 -0.2270
14457TIP3    H164786   2.608   5.876   3.640 -0.8953  0.1585  0.2742
14457TIP3    H264787   2.491   5.954   3.585  0.4660  0.6369 -2.0932
14458TIP3   OH264788   6.264   3.545  14.179 -0.2700  0.1601  0.0104
14458TIP3    H164789   6.292   3.459  14.211 -1.4536  0.0213  0.7372
14458TIP3    H264790   6.282   3.604  14.252 -1.3863  0.1496  0.3070
14459TIP3   OH264791   2.122   6.216   1.203  0.5193 -1.1375 -0.7775
14459TIP3    H164792   2.165   6.136   1.234  1.5914 -0.3026 -0.0501
14459TIP3    H264793   2.181   6.251   1.136  1.5416  0.5154  0.8920
14460TIP3   OH264794   2.102   5.184   2.768  0.4068  0.5935  0.1644
14460TIP3    H164795   2.092   5.147   2.680  0.8122  0.3422  0.2204
14460TIP3    H264796   2.145   5.114   2.818 -0.0161  0.6546  0.6166
14461TIP3   OH264797   1.711   1.207  12.470 -0.7736 -0.3696  0.2746
14461TIP3    H164798   1.692   1.140  12.405 -1.7003 -0.9891  1.1685
14461TIP3    H264799   1.708   1.290  12.421 -1.6160 -0.8105 -0.4333
14462TIP3   OH264800   4.442   2.462  13.355 -0.2410 -0.3076 -0.0591
14462TIP3    H164801   4.447   2.456  13.450 -0.1445 -3.1179 -0.1722
14462TIP3    H264802   4.355   2.500  13.339 -0.5860 -0.5244  1.1494
14463TIP3   OH264803   1.160   1.542  13.538  0.0153 -0.2504  0.0228
14463TIP3    H164804   1.075   1.497  13.545 -1.1853  1.9179  0.2980
14463TIP3    H264805   1.164   1.571  13.447  0.7205 -0.7959 -0.1234
14464TIP3   OH264806   0.206   2.231   2.783  0.3003  0.4321  0.2619
14464TIP3    H164807   0.177   2.145   2.752 -1.1862  0.8215  0.4923
14464TIP3    H264808   0.281   2.252   2.728 -0.3999 -0.2485 -0.9975
14465TIP3   OH264809   1.740   4.505  14.256  0.1931 -0.4513  0.3609
14465TIP3    H164810   1.670   4.559  14.222 -0.2144  0.1535  2.0436
14465TIP3    H264811   1.803   4.498  14.184  0.1409  2.0565 -0.0044
14466TIP3   OH264812   2.774   2.267  13.232  0.0408  0.5279  0.0779
14466TIP3    H164813   2.703   2.223  13.186 -1.1977  0.8860  1.5708
14466TIP3    H264814   2.853   2.218  13.206 -1.2066 -2.3902  1.3584
14467TIP3   OH264815   0.723   5.985  15.983  0.4782 -0.1479 -0.1212
14467TIP3    H164816   0.784   5.971  16.055  0.6406 -2.5651 -0.6450
14467TIP3    H264817   0.638   5.956  16.018 -0.1890  2.0393  0.2076
14468TIP3   OH264818   1.843   1.789  16.799  0.7309  0.8565  0.3305
14468TIP3    H164819   1.930   1.817  16.773  1.3400 -0.6859  0.5816
14468TIP3    H264820   1.838   1.698  16.770 -0.5064  0.6900  1.0088
14469TIP3   OH264821   2.524   3.842  13.852  0.1131 -1.1651  0.1046
14469TIP3    H164822   2.474   3.902  13.909  1.7179 -1.0529  1.4693
14469TIP3    H264823   2.460   3.776  13.826 -0.9630 -0.5814  1.1274
14470TIP3   OH264824   5.160   1.974   3.897  0.1684 -0.3138  0.2973
14470TIP3    H164825   5.234   1.955   3.955  0.1106 -3.7220 -0.5400
14470TIP3    H264826   5.083   1.960   3.952  0.0603  2.0451  0.8356
14471TIP3   OH264827   1.763   1.588   1.972 -0.8003 -0.7361  0.2175
14471TIP3    H164828   1.759   1.567   2.066 -2.1587 -0.7702  0.1688
14471TIP3    H264829   1.829   1.658   1.967 -1.6667  0.2233  1.3966
14472TIP3   OH264830   0.965   5.903   5.464  0.2859 -0.0311  0.4433
14472TIP3    H164831   0.870   5.914   5.468  0.4718  1.4476  1.6493
14472TIP3    H264832   0.996   5.978   5.414  0.9955  0.9015  2.2200
14473TIP3   OH264833   1.189   3.629   6.387  0.1763 -0.2172  0.0294
14473TIP3    H164834   1.254   3.653   6.321 -2.3459  0.8475 -2.2503
14473TIP3    H264835   1.170   3.710   6.433 -1.7590  0.2729 -1.5074
14474TIP3   OH264836   2.764   0.473  15.286  0.0020  0.1265  0.7395
14474TIP3    H164837   2.808   0.518  15.357  0.8161  1.9516 -0.8322
14474TIP3    H264838   2.770   0.380  15.309  3.0449  0.4159  1.5067
14475TIP3   OH264839   0.730   2.136   3.244  0.8758 -0.0976 -0.3768
14475TIP3    H164840   0.753   2.050   3.209  0.2674 -0.1031 -0.7787
14475TIP3    H264841   0.736   2.195   3.169  1.2367  0.2065 -0.1149
14476TIP3   OH264842   5.247   4.458  12.919  0.0163  0.1652 -0.1544
14476TIP3    H164843   5.168   4.406  12.935 -0.1888  0.5557  0.1116
14476TIP3    H264844   5.285   4.420  12.840 -1.0676  0.7160 -0.9605
14477TIP3   OH264845   2.498   0.723   5.965 -0.1018  0.1948 -0.2271
14477TIP3    H164846   2.536   0.806   5.936  0.6302  0.3972  1.2335
14477TIP3    H264847   2.560   0.657   5.936  0.6656  0.4023  0.8997
14478TIP3   OH264848   1.026   6.218  12.383 -0.2066  0.0636 -0.4455
14478TIP3    H164849   1.102   6.266  12.351 -0.6581  0.1333 -1.4553
14478TIP3    H264850   0.952   6.276  12.366 -0.6434 -0.5755 -0.7663
14479TIP3   OH264851   3.598   4.040   5.083 -0.1488 -0.1310 -0.6759
14479TIP3    H164852   3.549   4.054   5.164  0.4904  1.4292 -0.5102
14479TIP3    H264853   3.656   4.116   5.077  2.2048 -1.8293 -0.8999
14480TIP3   OH264854   2.449   6.043   4.291 -0.3650 -0.0431  0.0938
14480TIP3    H164855   2.537   6.053   4.256  0.1272  0.1644  1.3319
14480TIP3    H264856   2.416   6.133   4.297 -0.6397 -0.1170 -0.3246
14481TIP3   OH264857   3.939   6.515  13.788  0.4461 -0.0831  0.3128
14481TIP3    H164858   4.025   6.484  13.817  1.0964  0.1830 -1.2611
14481TIP3    H264859   3.952   6.607  13.766 -0.4463  0.1761  0.8112
14482TIP3   OH264860   3.259   4.307   1.380 -0.1573 -0.2306  0.4063
14482TIP3    H164861   3.346   4.296   1.341  1.2281  0.6235  3.0385
14482TIP3    H264862   3.200   4.312   1.305  2.1617  0.0485 -1.5162
14483TIP3   OH264863   3.921   3.009  12.768 -0.2984  0.2332  0.3051
14483TIP3    H164864   3.981   3.040  12.835 -0.2812  0.5019  0.1621
14483TIP3    H264865   3.848   3.071  12.770  0.2728  0.9571 -0.7831
14484TIP3   OH264866   3.948   5.200   5.563 -0.4191 -0.4541 -0.3029
14484TIP3    H164867   3.997   5.119   5.551  0.7847  0.2763 -0.4258
14484TIP3    H264868   3.865   5.171   5.601 -0.0420 -1.7485 -0.3927
14485TIP3   OH264869   6.326   4.279  10.351 -0.5240  0.3256 -0.0325
14485TIP3    H164870   6.267   4.279  10.426  0.9607  3.1949  1.3106
14485TIP3    H264871   6.340   4.372  10.332  1.2873 -0.2877 -2.1235
14486TIP3   OH264872   1.469   4.538  13.702  0.6867  0.1818  0.3577
14486TIP3    H164873   1.462   4.456  13.751  0.6694  0.1125  0.2383
14486TIP3    H264874   1.408   4.528  13.629 -2.1677  1.7304  2.3323
14487TIP3   OH264875   2.471   2.514   5.179  0.0496 -0.1557 -0.4669
14487TIP3    H164876   2.490   2.560   5.098  1.6993 -0.7396 -0.4402
14487TIP3    H264877   2.384   2.476   5.165  0.0697  0.2152 -1.7251
14488TIP3   OH264878   6.014   4.917   4.689  0.0785 -0.3492 -0.5222
14488TIP3    H164879   5.995   4.945   4.599  0.5736 -1.9876 -1.1738
14488TIP3    H264880   5.967   4.834   4.699  1.6183 -1.1886  0.0327
14489TIP3   OH264881   0.760   4.391   2.769  0.3528 -0.3661 -0.3482
14489TIP3    H164882   0.783   4.299   2.787 -0.0029 -0.6589 -1.3510
14489TIP3    H264883   0.831   4.441   2.809  0.5728 -1.0748  0.1811
14490TIP3   OH264884   3.697   6.562  10.679  0.3621 -0.1405  0.2248
14490TIP3    H164885   3.607   6.531  10.688 -0.0777  0.3373 -1.9798
14490TIP3    H264886   3.702   6.636  10.740 -0.5747 -0.4723  0.7351
14491TIP3   OH264887   2.882   0.208   1.433  0.0472  0.4033 -0.0324
14491TIP3    H164888   2.830   0.149   1.488  2.1739  1.6124  3.6229
14491TIP3    H264889   2.966   0.164   1.424  0.0895  0.7390 -1.4771
14492TIP3   OH264890   1.033   0.039   4.588  0.5399  0.8469  0.1081
14492TIP3    H164891   1.099   0.106   4.569  1.3909 -0.1497 -0.6018
14492TIP3    H264892   1.076  -0.044   4.565 -1.1273  0.1993 -0.8534
14493TIP3   OH264893   5.838   4.915   1.811 -0.5938 -0.1346 -0.7882
14493TIP3    H164894   5.864   4.969   1.736  0.1762 -0.5798 -0.8515
14493TIP3    H264895   5.784   4.974   1.865 -1.1190  0.2037 -1.6553
14494TIP3   OH264896   2.669   0.750  12.577 -0.4437  0.5205  0.3583
14494TIP3    H164897   2.761   0.762  12.556 -0.7031  0.7928 -0.7056
14494TIP3    H264898   2.662   0.659  12.607  0.1656  0.4987  0.4367
14495TIP3   OH264899   4.876   2.672   0.866 -0.1956 -0.5501 -0.2904
14495TIP3    H164900   4.863   2.708   0.778 -0.9571 -0.8889 -0.3204
14495TIP3    H264901   4.964   2.634   0.863  0.9703  1.9166 -0.0476
14496TIP3   OH264902   6.490   3.542   2.909 -0.2175  0.0709  0.3550
14496TIP3    H164903   6.543   3.613   2.945 -0.0097 -0.4316  1.0662
14496TIP3    H264904   6.528   3.462   2.946 -2.8111 -0.2115  2.7724
14497TIP3   OH264905   0.908   3.029   0.143  0.5138 -0.5108 -0.2435
14497TIP3    H164906   0.924   2.971   0.069  0.8356 -0.8846  0.1155
14497TIP3    H264907   0.958   3.108   0.124  2.7819 -1.5934  0.7886
14498TIP3   OH264908   2.870   5.590  10.808 -0.7269  0.0693  0.4542
14498TIP3    H164909   2.914   5.507  10.828  2.0715  1.4191  0.3959
14498TIP3    H264910   2.795   5.565  10.754  1.4079 -2.2593 -1.6906
14499TIP3   OH264911   0.234   2.766  11.538  0.3434 -0.3104  0.0268
14499TIP3    H164912   0.294   2.811  11.480  0.6106  0.5527  0.9442
14499TIP3    H264913   0.278   2.766  11.623 -1.1795  0.9062  0.8701
14500TIP3   OH264914   1.011   3.919   1.638 -0.3238 -0.7379 -0.0967
14500TIP3    H164915   1.041   3.988   1.579 -1.1733 -0.6750 -0.4760
14500TIP3    H264916   1.070   3.924   1.713  0.4309 -0.4560 -0.6932
14501TIP3   OH264917   4.373   1.835  11.056  0.1896  0.3859  0.0616
14501TIP3    H164918   4.440   1.820  10.989 -0.4174  0.5491 -0.5880
14501TIP3    H264919   4.357   1.748  11.094 -0.0155  0.1635 -0.5306
14502TIP3   OH264920   4.230   2.878   0.801 -0.4485 -0.1199 -0.1881
14502TIP3    H164921   4.137   2.854   0.793 -0.5334  0.4377 -0.9402
14502TIP3    H264922   4.232   2.946   0.868 -0.2515 -1.8465  1.6973
14503TIP3   OH264923   1.299   0.598  10.815  0.3729  0.3092 -0.4302
14503TIP3    H164924   1.349   0.642  10.884  1.7987 -1.2835 -0.3720
14503TIP3    H264925   1.306   0.656  10.740  2.1071  0.2944 -0.3211
14504TIP3   OH264926   4.453   0.143   4.570  0.4652 -0.1075 -0.9710
14504TIP3    H164927   4.492   0.173   4.651 -0.1146 -0.7026 -0.4549
14504TIP3    H264928   4.493   0.057   4.554  0.0272 -0.3274 -0.9055
14505TIP3   OH264929   5.127   4.688  16.262  0.4857  0.0355 -0.0676
14505TIP3    H164930   5.110   4.781  16.248  0.4195 -0.1188 -1.0969
14505TIP3    H264931   5.040   4.649  16.270  0.4782 -0.0584 -0.5460
14506TIP3   OH264932   0.643   4.598  14.541 -0.1155  0.2357 -0.4470
14506TIP3    H164933   0.555   4.562  14.548  0.1589 -0.3050  0.4460
14506TIP3    H264934   0.688   4.568  14.620  1.3267 -0.7548 -1.5736
14507TIP3   OH264935   2.054   6.439   3.770 -0.0884 -0.0699 -0.0807
14507TIP3    H164936   2.081   6.450   3.679 -1.9586  0.0684 -0.6567
14507TIP3    H264937   1.979   6.380   3.766 -0.9256  0.8406  1.2305
14508TIP3   OH264938   2.965   4.478   2.198  0.6148  0.3338 -0.0320
14508TIP3    H164939   2.993   4.484   2.106  1.4527  1.6487  0.2773
14508TIP3    H264940   2.897   4.545   2.206  1.1435  0.8255  0.4890
14509TIP3   OH264941   5.130   1.706   3.804 -0.3684 -0.1921 -0.2184
14509TIP3    H164942   5.159   1.795   3.824  0.8134 -0.6066  0.0133
14509TIP3    H264943   5.210   1.660   3.778 -0.6785 -1.5998  1.1449
14510TIP3   OH264944   0.748   6.364  17.057  0.7797 -0.1066 -0.1996
14510TIP3    H164945   0.658   6.398  17.056  1.0949  0.7469 -0.7829
14510TIP3    H264946   0.740   6.273  17.030  0.0589 -0.1154  0.0332
14511TIP3   OH264947   1.798   0.086   4.091 -0.3779 -0.1569  0.6731
14511TIP3    H164948   1.747   0.139   4.029  0.3269  0.9904  1.0479
14511TIP3    H264949   1.753   0.098   4.175 -1.3095 -1.6781  0.4291
14512TIP3   OH264950   6.689   4.364   0.684 -0.1065  0.3706 -0.2067
14512TIP3    H164951   6.603   4.328   0.663 -0.1307  0.1312  0.2874
14512TIP3    H264952   6.671   4.447   0.729 -0.1612 -0.6021  1.6885
14513TIP3   OH264953   4.240   0.318  14.372  0.2688 -0.2945 -0.1189
14513TIP3    H164954   4.208   0.388  14.315  0.1189 -0.6510 -0.4790
14513TIP3    H264955   4.324   0.292  14.335  1.7640  1.6584  1.6802
14514TIP3   OH264956   4.271   1.319   3.414 -0.1194 -0.0256  0.1315
14514TIP3    H164957   4.337   1.363   3.467 -1.4615  0.4503  1.4960
14514TIP3    H264958   4.320   1.275   3.345  1.6272  0.0934  1.2466
14515TIP3   OH264959   0.985   3.042   1.885 -0.1879 -0.4089 -0.4620
14515TIP3    H164960   1.025   3.001   1.808 -0.4069 -2.3019  0.3942
14515TIP3    H264961   0.899   3.070   1.855 -0.1814 -0.9178 -0.9661
14516TIP3   OH264962   5.605   2.841  16.665 -0.2737  0.5269 -0.2203
14516TIP3    H164963   5.550   2.882  16.599  0.6876  0.9950 -0.7564
14516TIP3    H264964   5.612   2.749  16.638 -0.1141  0.6541 -0.6064
14517TIP3   OH264965   3.747   4.753  11.412  0.4542  0.4745 -0.1132
14517TIP3    H164966   3.795   4.835  11.414  0.9274  0.1861  0.7442
14517TIP3    H264967   3.805   4.689  11.453  0.1599 -0.3294 -0.9104
14518TIP3   OH264968   0.013   3.095   4.322  0.5770  0.3075  0.4168
14518TIP3    H164969  -0.077   3.121   4.300  0.2968  2.5908  3.5923
14518TIP3    H264970   0.065   3.173   4.304  1.7004 -0.5246 -0.0292
14519TIP3   OH264971   6.305   3.565   1.603  0.0494 -0.4282  0.4472
14519TIP3    H164972   6.304   3.659   1.585  1.8989 -0.1681  1.4137
14519TIP3    H264973   6.346   3.558   1.690 -1.3782 -2.0561  1.0347
14520TIP3   OH264974   4.655   1.118  15.425  0.4909  0.2935 -0.7961
14520TIP3    H164975   4.616   1.129  15.339 -0.7819 -3.0708 -0.8092
14520TIP3    H264976   4.738   1.073  15.408  1.7472  2.3552 -0.3945
14521TIP3   OH264977   4.559   4.292  13.955 -0.1310  0.5338 -0.0367
14521TIP3    H164978   4.577   4.246  14.037 -0.5054  1.3630  0.5240
14521TIP3    H264979   4.636   4.274  13.900 -0.5147 -1.1954 -0.0518
14522TIP3   OH264980   5.234   6.576   1.622 -0.0632 -0.2106 -0.7917
14522TIP3    H164981   5.232   6.512   1.550 -1.6904 -0.3372 -0.6826
14522TIP3    H264982   5.143   6.581   1.652  0.8600 -1.9987  2.9082
14523TIP3   OH264983   3.177   2.023  16.869 -0.4614  0.0746  0.0390
14523TIP3    H164984   3.231   2.082  16.921  0.3481 -0.4190 -0.2168
14523TIP3    H264985   3.219   1.937  16.880 -1.9025 -0.5549  0.8100
14524TIP3   OH264986   3.391   5.447   5.718  0.1443  0.0418  0.2992
14524TIP3    H164987   3.377   5.525   5.771 -2.7229  0.2561 -0.6028
14524TIP3    H264988   3.422   5.381   5.780 -0.2092  1.1106  1.6508
14525TIP3   OH264989   0.238   1.308  16.669 -0.1055 -0.3215  0.0285
14525TIP3    H164990   0.300   1.237  16.654 -0.4136 -0.3927 -0.9716
14525TIP3    H264991   0.243   1.325  16.763  1.2849 -0.4557 -0.0002
14526TIP3   OH264992   0.117   4.644   2.658 -0.4874 -0.0940  0.3715
14526TIP3    H164993   0.189   4.703   2.678 -0.1771  0.2753 -1.5926
14526TIP3    H264994   0.132   4.567   2.712  1.0467  0.2267  0.4382
14527TIP3   OH264995   5.312   0.881   0.630 -0.3519 -0.2628  0.1636
14527TIP3    H164996   5.376   0.811   0.619 -0.8138 -0.7003  0.2058
14527TIP3    H264997   5.243   0.862   0.566 -0.0430  0.6763 -0.4703
14528TIP3   OH264998   5.719   4.674  11.508  0.0745  0.3853  0.2482
14528TIP3    H164999   5.627   4.663  11.532 -0.6107 -0.3753 -2.4439
14528TIP3    H265000   5.722   4.758  11.462  0.6645  0.2424  0.0109
14529TIP3   OH265001   3.420   5.430  16.286  0.4632  0.0590  0.0312
14529TIP3    H165002   3.345   5.434  16.345 -0.0961 -0.9157 -0.5709
14529TIP3    H265003   3.411   5.507  16.230  0.1792  0.2113  0.2896
14530TIP3   OH265004   1.969   6.340   5.157  0.5442  0.1486 -0.0753
14530TIP3    H165005   2.010   6.261   5.193  0.6404  0.4315  0.4538
14530TIP3    H265006   1.885   6.311   5.124  0.0831  0.0263  1.1626
14531TIP3   OH265007   6.392   2.297  15.881 -0.4727 -0.7139  0.2295
14531TIP3    H165008   6.408   2.276  15.973 -0.6426 -2.3050 -0.0802
14531TIP3    H265009   6.324   2.365  15.883  1.1697  0.9755  1.3140
14532TIP3   OH265010   1.257   6.641  15.404 -0.2063  0.2558  0.5496
14532TIP3    H165011   1.172   6.608  15.431  0.6147 -2.5233  0.0316
14532TIP3    H265012   1.285   6.698  15.476 -1.3574 -0.8998  1.9538
14533TIP3   OH265013   1.927   0.680  11.064  0.0165  0.4425 -0.4517
14533TIP3    H165014   1.848   0.713  11.021  1.3773  2.3125 -1.6808
14533TIP3    H265015   1.949   0.747  11.129  1.2535  0.5610 -0.9740
14534TIP3   OH265016   1.294   3.800  16.042  0.5323 -0.7041 -0.3856
14534TIP3    H165017   1.264   3.884  16.009 -1.4851 -0.1810  2.4108
14534TIP3    H265018   1.388   3.799  16.024  0.2361  1.1007 -2.4706
14535TIP3   OH265019   1.018   0.976  14.991 -0.0975  0.2097  0.0778
14535TIP3    H165020   1.058   1.008  14.911  0.5321 -1.1123 -0.1609
14535TIP3    H265021   0.954   1.044  15.015 -1.1507  0.0871 -2.1684
14536TIP3   OH265022   1.833   1.214  14.837 -0.4458 -0.7440  0.4930
14536TIP3    H165023   1.810   1.296  14.882  0.9850  0.5993 -1.0830
14536TIP3    H265024   1.907   1.238  14.781 -0.2251 -3.0620 -0.2837
14537TIP3   OH265025   0.508   5.245  15.349 -0.0672 -0.2559  0.0930
14537TIP3    H165026   0.536   5.336  15.345  3.0705 -1.0528  1.1452
14537TIP3    H265027   0.468   5.235  15.435  0.0192  0.0076  0.1627
14538TIP3   OH265028   1.894   6.515   3.013 -0.2262  0.1084  0.6407
14538TIP3    H165029   1.965   6.530   3.076  0.7425 -2.3419  0.2562
14538TIP3    H265030   1.929   6.545   2.930 -0.0812  0.0056  0.6628
14539TIP3   OH265031   6.667   3.527   0.956  0.8680 -0.1315 -1.1537
14539TIP3    H165032   6.733   3.469   0.994  1.1749  0.1914 -1.1895
14539TIP3    H265033   6.588   3.473   0.951  0.8118 -0.1845 -0.0307
14540TIP3   OH265034   1.371   5.466  14.264  0.3079 -0.0163 -0.3981
14540TIP3    H165035   1.461   5.436  14.274 -0.0486 -1.1908 -0.5127
14540TIP3    H265036   1.327   5.437  14.344  0.5768  2.8124  0.8693
14541TIP3   OH265037   0.820   5.561   3.904  0.2411 -0.4942 -0.3071
14541TIP3    H165038   0.863   5.500   3.964  1.6845 -0.8165 -1.6019
14541TIP3    H265039   0.751   5.509   3.864  0.7051 -0.9467 -0.5370
14542TIP3   OH265040   0.036   2.651   1.362  0.5978  0.4193 -0.7497
14542TIP3    H165041  -0.054   2.681   1.344 -0.0227  0.0375  1.3679
14542TIP3    H265042   0.086   2.731   1.373  0.2505  0.6499 -0.8264
14543TIP3   OH265043   3.620   6.174   3.413 -0.3676 -0.0009  0.0146
14543TIP3    H165044   3.542   6.119   3.409 -0.5203  0.2625 -0.8985
14543TIP3    H265045   3.648   6.183   3.321 -1.0249  2.3649 -0.0349
14544TIP3   OH265046   5.865   4.082   6.029 -0.1450 -0.3624 -0.0909
14544TIP3    H165047   5.830   3.993   6.033 -0.6416 -0.1184  1.5729
14544TIP3    H265048   5.838   4.123   6.111 -0.0092  1.3718 -0.8597
14545TIP3   OH265049   6.568   4.198   4.460  0.6618 -0.3833  0.2010
14545TIP3    H165050   6.572   4.289   4.431  0.0804 -0.1582  0.7940
14545TIP3    H265051   6.513   4.201   4.539  0.7385 -1.2288  0.2905
14546TIP3   OH265052   6.196   5.845  13.149  0.2584 -0.2365 -0.0116
14546TIP3    H165053   6.252   5.919  13.171  1.1810 -0.6892 -0.7792
14546TIP3    H265054   6.111   5.885  13.126 -0.0956  0.3789  2.1921
14547TIP3   OH265055   5.800   2.047   2.522  0.2209 -0.2368 -0.2347
14547TIP3    H165056   5.708   2.034   2.497  0.1159  0.3238 -0.1503
14547TIP3    H265057   5.807   2.009   2.609  0.3696 -1.3860 -0.7321
14548TIP3   OH265058   3.140   1.579  13.611  0.0530  0.1757  0.6779
14548TIP3    H165059   3.108   1.667  13.596  0.0590  0.1811  0.6960
14548TIP3    H265060   3.116   1.560  13.702 -0.9528 -0.2657  0.3303
14549TIP3   OH265061   2.097   3.701  16.949 -0.0323 -0.0157  0.6601
14549TIP3    H165062   2.036   3.727  16.879 -0.6013  0.2604  1.2559
14549TIP3    H265063   2.080   3.608  16.962  0.4106 -0.1835  0.1124
14550TIP3   OH265064   1.592   2.322  14.912 -0.4571  0.0570 -0.1282
14550TIP3    H165065   1.605   2.341  14.818  0.6829  1.0732  0.2009
14550TIP3    H265066   1.585   2.409  14.952  1.9420 -0.2530  1.0879
14551TIP3   OH265067   1.231   1.842  14.379 -0.4858  0.2552 -0.1028
14551TIP3    H165068   1.223   1.792  14.297  0.1856 -0.4606  0.2518
14551TIP3    H265069   1.268   1.926  14.353 -0.8100  0.2459 -0.6031
14552TIP3   OH265070   1.725   5.630   0.969 -0.4515  0.5750  0.0385
14552TIP3    H165071   1.721   5.546   0.923 -2.9356  0.4811  0.2812
14552TIP3    H265072   1.690   5.693   0.906 -0.5524  1.0451  0.5624
14553TIP3   OH265073   2.839   3.487  14.286 -0.2848 -0.1869 -0.3400
14553TIP3    H165074   2.931   3.515  14.278  0.7974 -2.7946  1.4734
14553TIP3    H265075   2.822   3.439  14.205  0.4587 -0.8572 -0.1212
14554TIP3   OH265076   2.718   0.497  16.249 -0.3087 -0.4872 -0.3512
14554TIP3    H165077   2.692   0.584  16.219 -0.4181 -0.2666  0.3640
14554TIP3    H265078   2.636   0.449  16.258 -0.1780 -0.9853 -1.6903
14555TIP3   OH265079   5.754   5.493  15.318 -0.4572  0.4066 -0.0943
14555TIP3    H165080   5.673   5.540  15.338 -2.0184 -1.8984 -0.6413
14555TIP3    H265081   5.742   5.407  15.359  3.5457  1.2264  3.5904
14556TIP3   OH265082   6.627   1.973  16.871 -0.2590  0.1965 -0.0355
14556TIP3    H165083   6.671   2.054  16.844  1.0026 -0.4517 -0.0248
14556TIP3    H265084   6.609   1.927  16.789 -3.1817  1.5081 -0.2443
14557TIP3   OH265085   1.621   3.082   0.657  0.1329 -0.1050 -0.1672
14557TIP3    H165086   1.635   3.023   0.582 -0.6803  0.2779 -0.6317
14557TIP3    H265087   1.526   3.085   0.668  0.2417 -0.0743  0.8265
14558TIP3   OH265088   4.838   2.990   2.975 -0.1446  0.6303  0.0060
14558TIP3    H165089   4.779   3.010   3.048 -0.5106 -0.1510 -0.0609
14558TIP3    H265090   4.874   2.904   2.997 -0.6595  0.1488 -0.9837
14559TIP3   OH265091   2.832   0.457   1.355 -0.1321  0.0570 -0.4918
14559TIP3    H165092   2.839   0.362   1.364  3.1325  0.3090  0.8750
14559TIP3    H265093   2.782   0.469   1.274 -0.1574 -2.8263 -1.0147
14560TIP3   OH265094   6.014   4.726  16.090 -0.0053 -0.0622 -0.1669
14560TIP3    H165095   5.989   4.692  16.004 -2.4835 -0.1285  0.5038
14560TIP3    H265096   6.003   4.652  16.149  2.5007 -0.2528  0.1623
14561TIP3   OH265097   3.204   6.140  12.682  0.2201  0.2095 -0.2335
14561TIP3    H165098   3.169   6.223  12.649  1.5498  0.4210 -1.1875
14561TIP3    H265099   3.268   6.165  12.749  0.7090 -0.0289 -0.6020
14562TIP3   OH265100   4.627   5.475   5.138  0.8301  0.1029 -0.5900
14562TIP3    H165101   4.598   5.440   5.222 -1.7333  2.2849 -0.4257
14562TIP3    H265102   4.701   5.532   5.160 -0.0567  0.9555  0.3157
14563TIP3   OH265103   5.068   0.812   5.730 -0.8997  0.1556 -0.4958
14563TIP3    H165104   4.992   0.759   5.706 -0.9825  0.2061 -0.3505
14563TIP3    H265105   5.098   0.774   5.813 -0.5454 -0.0930 -0.7393
14564TIP3   OH265106   3.400   1.815  11.945 -0.3271  0.0069 -0.3600
14564TIP3    H165107   3.474   1.814  11.883 -1.4460  2.6750 -1.9475
14564TIP3    H265108   3.333   1.762  11.903  0.1316 -1.1680  0.3570
14565TIP3   OH265109   5.369   3.858  16.528  0.5810  0.0138 -0.5738
14565TIP3    H165110   5.275   3.864  16.515  0.6425 -0.9972 -1.5970
14565TIP3    H265111   5.379   3.791  16.596  0.5031  1.5572  1.0349
14566TIP3   OH265112   0.609   4.419   1.553 -0.2853  0.2727 -0.0823
14566TIP3    H165113   0.683   4.461   1.509  0.7861  1.3853  2.5553
14566TIP3    H265114   0.636   4.328   1.565  0.2165  0.4278 -0.0217
14567TIP3   OH265115   4.166   5.753   5.722 -0.9082  0.0073 -0.5562
14567TIP3    H165116   4.196   5.808   5.650  1.8343 -2.3010 -1.3410
14567TIP3    H265117   4.071   5.747   5.710 -0.9667  2.3633 -1.9083
14568TIP3   OH265118   0.824   0.468  17.014  0.8060  0.2197  0.3842
14568TIP3    H165119   0.914   0.481  17.044  1.6307 -2.1474 -0.7690
14568TIP3    H265120   0.771   0.467  17.094  1.8768  1.0838  1.1225
14569TIP3   OH265121   0.169   6.144   3.046  1.0559  0.0248  0.0759
14569TIP3    H165122   0.164   6.209   3.116  1.0026  0.5151 -0.3732
14569TIP3    H265123   0.214   6.069   3.085  0.6127  0.1145  0.7632
14570TIP3   OH265124   4.078   3.987   5.092 -0.4760  0.0331  0.7754
14570TIP3    H165125   4.036   3.982   5.178 -2.2944  0.5023 -0.0387
14570TIP3    H265126   4.062   4.077   5.064 -1.2071 -0.5216 -0.6723
14571TIP3   OH265127   2.495   6.756  10.626 -0.2579 -0.0638  0.4103
14571TIP3    H165128   2.486   6.662  10.614  0.4008 -0.1419  0.4874
14571TIP3    H265129   2.450   6.794  10.550  1.7889 -0.4986 -1.1091
14572TIP3   OH265130   1.614   4.534  15.199 -0.1161  0.0426  0.2978
14572TIP3    H165131   1.701   4.568  15.218  0.1630 -0.9039  0.7350
14572TIP3    H265132   1.560   4.613  15.186  1.1293  0.6387 -1.5639
14573TIP3   OH265133   0.821   5.847   2.328 -0.2075  0.3661  0.0083
14573TIP3    H165134   0.886   5.815   2.266 -1.1560  1.0574 -1.4008
14573TIP3    H265135   0.749   5.783   2.322 -0.4855  0.6707  0.0862
14574TIP3   OH265136   4.065   6.494   5.802 -0.5858  0.3251 -0.1648
14574TIP3    H165137   4.086   6.562   5.866 -2.2197  1.9195 -1.2040
14574TIP3    H265138   4.103   6.414   5.838  0.3449  1.5442  1.7305
14575TIP3   OH265139   6.138   3.000  13.035  0.2200 -0.0088  0.1144
14575TIP3    H165140   6.184   3.075  12.997 -0.2616 -0.0820 -0.6443
14575TIP3    H265141   6.113   3.029  13.123 -1.0390  1.2087 -0.5930
14576TIP3   OH265142   3.081   0.013  13.076  0.0841  0.0442 -0.1622
14576TIP3    H165143   3.109   0.035  13.165 -1.2908 -0.0645  0.3242
14576TIP3    H265144   3.154  -0.035  13.038  1.6681  2.1119  0.0653
14577TIP3   OH265145   2.916   2.321  17.210 -0.4967 -0.3865  0.4089
14577TIP3    H165146   2.872   2.236  17.215  2.1155 -1.7815  2.2724
14577TIP3    H265147   2.862   2.379  17.265 -1.1046 -1.4525  0.9722
14578TIP3   OH265148   3.399   1.062   2.545  0.4918  0.4273 -0.4618
14578TIP3    H165149   3.417   0.977   2.586  0.0982  0.0491 -1.0443
14578TIP3    H265150   3.303   1.069   2.546  0.5249  0.8824 -0.3802
14579TIP3   OH265151   0.469   0.437  13.751 -0.1974 -0.1354 -0.4732
14579TIP3    H165152   0.536   0.409  13.813 -1.0226 -1.1382  0.0149
14579TIP3    H265153   0.387   0.404  13.789 -1.0705  1.6954 -0.6659
14580TIP3   OH265154   4.631   2.161  14.711 -0.7801 -0.2628 -0.0848
14580TIP3    H165155   4.718   2.127  14.691 -0.8414  0.3138 -1.4755
14580TIP3    H265156   4.573   2.085  14.709 -0.0050 -1.0801  3.3418
14581TIP3   OH265157   0.007   6.002   1.403  0.1551  0.3262 -0.2526
14581TIP3    H165158  -0.043   6.060   1.346 -1.8072 -0.9650  0.0421
14581TIP3    H265159   0.039   6.058   1.473 -2.3546  1.0175  0.4576
14582TIP3   OH265160   2.929   1.968  15.916 -0.6003 -0.2190  0.4170
14582TIP3    H165161   2.986   1.975  15.840 -0.6099 -2.0043  0.2202
14582TIP3    H265162   2.940   2.052  15.961  1.3293 -0.0905 -0.1987
14583TIP3   OH265163   2.317   0.682   4.236 -0.6490  0.3087 -0.1295
14583TIP3    H165164   2.324   0.778   4.233 -1.7143  0.4750  1.5297
14583TIP3    H265165   2.374   0.657   4.308 -0.1622 -0.3523 -0.7349
14584TIP3   OH265166   0.936   0.892  16.926  0.3516  0.2209  0.0693
14584TIP3    H165167   1.007   0.848  16.879  0.3255  1.3888 -1.1206
14584TIP3    H265168   0.979   0.944  16.993  0.6238  0.8337 -0.5717
14585TIP3   OH265169   3.286   5.334   0.245  0.1349 -0.4007  0.3817
14585TIP3    H165170   3.366   5.383   0.266  0.4298 -0.0466 -1.4553
14585TIP3    H265171   3.311   5.242   0.254  0.7307 -0.2906 -0.0974
14586TIP3   OH265172   5.663   6.562   2.846  0.3558 -0.3919 -0.5135
14586TIP3    H165173   5.582   6.533   2.804  0.6870 -2.0904 -0.0707
14586TIP3    H265174   5.682   6.647   2.808 -2.3806  0.7120  0.4041
14587TIP3   OH265175   4.741   2.035  10.430 -0.1217  0.6349 -0.3035
14587TIP3    H165176   4.793   1.979  10.373 -0.5116  1.2592 -1.3000
14587TIP3    H265177   4.654   1.994  10.431  0.4900 -0.7594  1.8574
14588TIP3   OH265178   3.559   4.575  14.232  0.2212  0.2834 -0.3066
14588TIP3    H165179   3.625   4.550  14.168  0.7298 -2.0304  0.9927
14588TIP3    H265180   3.500   4.500  14.236 -0.7683  1.0690  0.7172
14589TIP3   OH265181   2.108   5.229   5.471  0.7239 -0.7447 -0.1522
14589TIP3    H165182   2.080   5.270   5.552  1.0854 -0.3414 -0.2256
14589TIP3    H265183   2.034   5.173   5.445  0.7748 -1.2063  0.6684
14590TIP3   OH265184   2.448   4.269  12.819 -0.0477  0.0575  0.2095
14590TIP3    H165185   2.508   4.310  12.758 -0.4566  0.0596 -0.1980
14590TIP3    H265186   2.388   4.218  12.764 -1.9737  2.0372  0.3539
14591TIP3   OH265187   2.489   1.186  16.959  0.2464 -0.4336 -0.4290
14591TIP3    H165188   2.461   1.094  16.960 -1.2178 -0.0348  1.8995
14591TIP3    H265189   2.503   1.208  17.051  1.6234  1.4174 -1.0210
14592TIP3   OH265190   0.191   2.402  10.896 -0.1860  0.0704  0.5471
14592TIP3    H165191   0.185   2.345  10.972 -1.1949 -0.6496 -0.0456
14592TIP3    H265192   0.226   2.346  10.827  3.7647  1.4514  1.1459
14593TIP3   OH265193   3.695   4.364   6.468 -0.3811  0.1498  0.2938
14593TIP3    H165194   3.705   4.418   6.546 -0.1961  0.0783  0.3202
14593TIP3    H265195   3.601   4.349   6.462 -0.7270  2.4155 -1.0266
14594TIP3   OH265196   1.730   6.660   3.176  0.4511  0.3283  0.1979
14594TIP3    H165197   1.798   6.614   3.127  1.6754  1.3957  0.8288
14594TIP3    H265198   1.708   6.735   3.122 -1.6671 -0.9982 -0.9114
14595TIP3   OH265199   5.452   2.596  16.840  0.1173 -0.2794  0.1087
14595TIP3    H165200   5.402   2.528  16.885  0.7874 -0.1235  1.1251
14595TIP3    H265201   5.397   2.622  16.766 -0.8550 -0.7794  0.6427
14596TIP3   OH265202   1.560   6.283   2.811  0.1000 -0.0497 -0.3952
14596TIP3    H165203   1.509   6.342   2.866  0.3668  1.3600 -1.5962
14596TIP3    H265204   1.517   6.286   2.725  0.6055 -0.9693 -0.6960
14597TIP3   OH265205   3.520   0.550  15.186  0.1705  0.1700  0.3925
14597TIP3    H165206   3.610   0.533  15.212  0.3535  1.1762  0.4413
14597TIP3    H265207   3.474   0.567  15.268 -0.3113 -1.3760  0.4697
14598TIP3   OH265208   3.558   5.418   0.244 -0.1823  0.2325  0.2926
14598TIP3    H165209   3.602   5.424   0.328  0.1907 -1.1112  0.2179
14598TIP3    H265210   3.568   5.505   0.205 -1.6984  1.3590  2.2486
14599TIP3   OH265211   1.374   5.824   1.881  1.6337  0.0598 -0.0056
14599TIP3    H165212   1.374   5.730   1.861  1.5126 -0.1562  0.9730
14599TIP3    H265213   1.450   5.837   1.938  0.0107 -0.0058  2.3040
14600TIP3   OH265214   3.784   6.419  13.048 -0.6511  0.2034  0.4110
14600TIP3    H165215   3.820   6.345  13.097  1.8315  1.1902  0.2493
14600TIP3    H265216   3.829   6.415  12.963 -2.4459  0.4210 -0.5999
14601TIP3   OH265217   1.591   5.717   3.915 -0.1911  0.4283  0.0966
14601TIP3    H165218   1.685   5.702   3.925 -0.2258 -0.2466 -0.4790
14601TIP3    H265219   1.556   5.631   3.893 -1.0834  0.4862  1.2095
14602TIP3   OH265220   0.100   1.675   2.834  0.1492  0.6053 -0.1737
14602TIP3    H165221   0.175   1.648   2.781  0.1930 -1.1282  0.7097
14602TIP3    H265222   0.128   1.757   2.874  1.9879 -0.4893  0.8998
14603TIP3   OH265223   3.361   6.199   1.645 -0.4559 -0.1610 -0.0977
14603TIP3    H165224   3.397   6.116   1.614  0.3812 -0.0264  0.4944
14603TIP3    H265225   3.268   6.180   1.659 -0.2948 -0.9688 -0.0737
14604TIP3   OH265226   5.514   4.780   6.490 -0.4617 -0.1007  0.1581
14604TIP3    H165227   5.536   4.866   6.525  0.7828 -0.0198 -0.7720
14604TIP3    H265228   5.429   4.793   6.447 -1.0630  0.2498  1.3921
14605TIP3   OH265229   5.745   3.659   1.935 -0.3725 -0.7041 -0.4407
14605TIP3    H165230   5.735   3.690   1.845  0.6213 -0.6224 -0.5329
14605TIP3    H265231   5.664   3.687   1.979  0.3695  1.8793 -0.5653
14606TIP3   OH265232   2.034   1.286   5.241 -0.0582 -0.4162 -0.2330
14606TIP3    H165233   2.004   1.351   5.305  0.2614 -1.5207  1.0956
14606TIP3    H265234   2.001   1.318   5.157 -0.7431  0.9352  0.5082
14607TIP3   OH265235   0.349   5.893   0.312 -0.0073 -0.1863  1.0165
14607TIP3    H165236   0.409   5.840   0.259  0.9873  1.8483 -0.0646
14607TIP3    H265237   0.337   5.843   0.392  0.8546 -2.0043  0.0840
14608TIP3   OH265238   2.825   2.118   0.766 -0.6805  0.5032  0.1980
14608TIP3    H165239   2.750   2.061   0.785  0.5150 -2.5966 -3.0974
14608TIP3    H265240   2.896   2.083   0.820 -1.1004  2.3547  2.0528
14609TIP3   OH265241   2.555   2.017  16.262  0.2111 -0.2829 -0.1919
14609TIP3    H165242   2.554   2.021  16.166 -0.3967 -0.0345 -0.1795
14609TIP3    H265243   2.566   1.924  16.282 -2.3568 -0.7314 -0.5160
14610TIP3   OH265244   0.057   0.706   5.027 -0.1646  0.3194  0.1389
14610TIP3    H165245  -0.033   0.732   5.007 -0.6524 -0.7354  0.8588
14610TIP3    H265246   0.054   0.682   5.120  0.7365 -0.2195  0.0322
14611TIP3   OH265247   6.771   5.543   3.117 -0.4365  0.4081  0.1602
14611TIP3    H165248   6.820   5.461   3.120 -1.6086 -0.7168 -4.1308
14611TIP3    H265249   6.680   5.517   3.131 -0.5675  1.4187  1.3212
14612TIP3   OH265250   3.984   2.229  13.800  0.6515  0.5334 -0.4062
14612TIP3    H165251   4.072   2.217  13.835  0.4974  0.1593 -0.1393
14612TIP3    H265252   3.929   2.242  13.877  0.4214  0.4278 -0.5522
14613TIP3   OH265253   3.362   0.831   4.602  0.7314  0.2122  0.0883
14613TIP3    H165254   3.446   0.867   4.573  0.6454 -0.0628 -0.5278
14613TIP3    H265255   3.380   0.793   4.688  1.3898 -0.3897 -0.3056
14614TIP3   OH265256   1.001   5.208  16.690  0.5196 -0.6136  0.2632
14614TIP3    H165257   1.028   5.276  16.628  2.9859 -0.3486  1.4913
14614TIP3    H265258   0.990   5.254  16.773  1.3081 -1.5230  0.9025
14615TIP3   OH265259   3.243   0.193  13.688  0.1803  0.0426 -0.5668
14615TIP3    H165260   3.284   0.275  13.662  1.9001 -1.0371 -1.4838
14615TIP3    H265261   3.310   0.149  13.741 -0.9268 -0.5221  0.4090
14616TIP3   OH265262   0.448   5.807  11.722 -0.3178  0.6628 -0.4189
14616TIP3    H165263   0.377   5.782  11.781  0.1408  0.3870  0.0375
14616TIP3    H265264   0.410   5.805  11.635 -0.6614 -0.3073 -0.2634
14617TIP3   OH265265   5.610   4.612   1.218  0.2226 -0.4181 -0.2800
14617TIP3    H165266   5.662   4.543   1.260  1.5910  1.7314  1.8406
14617TIP3    H265267   5.675   4.663   1.169 -0.6223 -0.1072 -1.0911
14618TIP3   OH265268   4.997   1.695   2.509 -0.0402 -0.5345  0.1410
14618TIP3    H165269   4.912   1.653   2.523 -0.7828  0.7410 -0.4157
14618TIP3    H265270   4.992   1.732   2.422  0.6006  0.6754  0.5963
14619TIP3   OH265271   2.322   0.792  10.675 -0.0610  0.2576 -0.3178
14619TIP3    H165272   2.307   0.752  10.761 -0.7020 -0.8468 -0.9179
14619TIP3    H265273   2.412   0.769  10.653  0.3036  1.0468  0.3022
14620TIP3   OH265274   5.894   2.967  14.420 -0.2388  0.1352  0.5854
14620TIP3    H165275   5.931   2.880  14.406  2.0414  1.2206 -0.6684
14620TIP3    H265276   5.803   2.959  14.391 -0.2016 -1.9192  0.9066
14621TIP3   OH265277   4.488   1.604   5.693  0.0988  0.1575 -0.9778
14621TIP3    H165278   4.528   1.580   5.777 -0.1861  0.8876 -0.6154
14621TIP3    H265279   4.414   1.660   5.718 -0.4369 -0.2306 -1.6899
14622TIP3   OH265280   2.674   0.551   5.874  0.1061  0.2232 -0.1370
14622TIP3    H165281   2.708   0.511   5.794  2.4321  2.4158 -0.3445
14622TIP3    H265282   2.736   0.523   5.942 -1.4490 -1.0313  0.8361
14623TIP3   OH265283   4.495   5.786  10.863  0.1723  0.6222 -0.1306
14623TIP3    H165284   4.488   5.824  10.951  2.4407  1.5489 -0.2822
14623TIP3    H265285   4.413   5.813  10.819  0.0140  2.1156  0.9886
14624TIP3   OH265286   6.077   3.558   1.845  0.1169 -0.2632 -0.0625
14624TIP3    H165287   6.052   3.468   1.825 -0.4584 -0.2155  0.3892
14624TIP3    H265288   6.060   3.606   1.764  0.6398 -0.6007 -0.3733
14625TIP3   OH265289   6.129   3.368   3.719 -0.2674 -0.5855  0.4627
14625TIP3    H165290   6.064   3.434   3.694 -1.4377 -2.0801 -0.6405
14625TIP3    H265291   6.101   3.337   3.805  0.2284  0.2242  0.9390
14626TIP3   OH265292   1.771   1.126  11.073 -0.0376 -0.1119  0.4674
14626TIP3    H165293   1.691   1.084  11.042 -0.8253  2.1097 -0.8049
14626TIP3    H265294   1.770   1.212  11.031  1.7453  0.9525  2.4099
14627TIP3   OH265295   5.545   4.352  11.696  1.2470  0.1170  0.2443
14627TIP3    H165296   5.504   4.392  11.772  0.9675  1.0929 -0.4083
14627TIP3    H265297   5.541   4.258  11.713 -0.4453  0.2350  0.6013
14628TIP3   OH265298   4.376   4.234  12.830 -0.1917 -0.1147 -0.4842
14628TIP3    H165299   4.459   4.281  12.832 -0.4456  0.3042  0.7725
14628TIP3    H265300   4.357   4.224  12.737  1.5298 -0.7057 -0.8044
14629TIP3   OH265301   6.333   1.358  11.613  0.2292 -0.0988 -0.2032
14629TIP3    H165302   6.363   1.312  11.691  0.9296 -0.3550 -0.6187
14629TIP3    H265303   6.386   1.322  11.542 -0.5033  0.0208 -0.8258
14630TIP3   OH265304   6.590   2.906  16.364  0.8754  0.2820  1.2401
14630TIP3    H165305   6.634   2.883  16.282  0.6716  0.9772  0.9290
14630TIP3    H265306   6.630   2.849  16.430  3.5559  2.1111  1.3463
14631TIP3   OH265307   5.279   5.242  11.757 -0.0965 -0.5841 -0.5379
14631TIP3    H165308   5.348   5.291  11.802  0.3822 -1.2985 -0.4696
14631TIP3    H265309   5.198   5.289  11.778  0.1024 -0.9229  1.1393
14632TIP3   OH265310   3.197   6.632   0.704  0.1943 -0.0699 -0.1648
14632TIP3    H165311   3.167   6.574   0.773 -0.6592 -1.3706 -1.5668
14632TIP3    H265312   3.133   6.704   0.703 -0.5025 -0.6793 -0.3853
14633TIP3   OH265313   2.177   1.173  12.289 -1.0168 -0.1746  0.2752
14633TIP3    H165314   2.134   1.256  12.306 -0.1877  0.3046  0.1073
14633TIP3    H265315   2.161   1.121  12.368  1.3523  1.4102  1.9463
14634TIP3   OH265316   5.151   5.158   1.950 -0.1731  0.0579 -0.5668
14634TIP3    H165317   5.110   5.196   1.872 -0.6588 -0.5325 -0.6071
14634TIP3    H265318   5.118   5.068   1.953 -1.7445  0.6190  1.3940
14635TIP3   OH265319   0.330   3.039   2.797 -0.1321 -0.0737  0.1363
14635TIP3    H165320   0.320   2.986   2.718  0.5933  0.1782 -0.1331
14635TIP3    H265321   0.322   2.976   2.869 -2.7974 -0.0307 -0.0232
14636TIP3   OH265322   2.299   1.643   0.076 -0.2115  0.0481  0.0687
14636TIP3    H165323   2.204   1.659   0.074 -0.4743 -1.4377 -1.1258
14636TIP3    H265324   2.316   1.594  -0.004  1.6288  0.4907  0.1600
14637TIP3   OH265325   6.040   3.875   1.892  0.3940 -0.0832 -0.1138
14637TIP3    H165326   5.954   3.906   1.921  0.2725  0.2520 -0.8158
14637TIP3    H265327   6.069   3.940   1.829  2.0389  0.8377  1.5178
14638TIP3   OH265328   1.452   1.253  12.302  0.5176 -0.2418  0.0415
14638TIP3    H165329   1.389   1.289  12.240 -0.9849 -4.0766 -0.9467
14638TIP3    H265330   1.417   1.276  12.388 -0.6434  0.1178 -0.5095
14639TIP3   OH265331   5.703   1.135   6.079 -0.3306 -0.3962 -0.3397
14639TIP3    H165332   5.694   1.228   6.059  2.1033 -0.2760 -1.1390
14639TIP3    H265333   5.739   1.096   5.999 -0.1961 -1.8282  0.3702
14640TIP3   OH265334   1.052   5.828  16.544  0.2610  0.0563 -0.1663
14640TIP3    H165335   1.082   5.805  16.631 -0.5412 -0.3477  0.0177
14640TIP3    H265336   1.066   5.922  16.537 -0.7661  0.3140  0.8608
14641TIP3   OH265337   2.843   6.596   5.820  0.2964 -0.4130 -0.1581
14641TIP3    H165338   2.915   6.607   5.759 -0.4821 -0.8896 -1.1968
14641TIP3    H265339   2.794   6.520   5.787  1.1095 -2.1599  2.3236
14642TIP3   OH265340   5.207   0.031   5.900 -0.0468  0.4223 -0.3344
14642TIP3    H165341   5.197  -0.024   5.978  0.1914 -0.4068 -0.8731
14642TIP3    H265342   5.276   0.093   5.923 -0.9672  1.1264  0.6173
14643TIP3   OH265343   3.594   5.136   5.508  0.5763 -0.1844 -0.2459
14643TIP3    H165344   3.525   5.202   5.497 -1.1017 -1.8560 -0.4100
14643TIP3    H265345   3.600   5.125   5.603 -0.4383 -1.0208 -0.2563
14644TIP3   OH265346   5.251   4.428   6.315  0.0602 -0.2513 -0.3054
14644TIP3    H165347   5.265   4.441   6.221  0.4873  1.0286 -0.0878
14644TIP3    H265348   5.324   4.473   6.357 -0.8248  0.3157  0.6692
14645TIP3   OH265349   5.586   1.497   0.696  0.5100  0.1570 -0.3506
14645TIP3    H165350   5.594   1.409   0.733 -1.6023  0.2173  0.4082
14645TIP3    H265351   5.645   1.497   0.620  1.0522 -1.6736  0.0239
14646TIP3   OH265352   5.576   5.438  10.902  0.4316 -0.4175  0.1998
14646TIP3    H165353   5.519   5.407  10.832 -1.3240  1.5944  0.6169
14646TIP3    H265354   5.606   5.524  10.872  2.8647 -1.1619  0.2705
14647TIP3   OH265355   4.813   1.329   0.108  0.3582 -0.0471  0.3708
14647TIP3    H165356   4.726   1.317   0.070 -0.3464 -0.1077  1.9389
14647TIP3    H265357   4.841   1.415   0.076 -1.5623  1.3506  2.1426
14648TIP3   OH265358   1.777   3.119   5.789  0.1815  0.0263  0.3978
14648TIP3    H165359   1.755   3.210   5.774 -0.5876  0.0355  1.4501
14648TIP3    H265360   1.721   3.092   5.862 -1.0575 -1.8382 -1.1070
14649TIP3   OH265361   6.231   0.596  14.844 -0.0722  0.4022  0.0284
14649TIP3    H165362   6.230   0.643  14.928  1.7897  0.3441  0.1235
14649TIP3    H265363   6.269   0.510  14.865  0.2783  0.3329 -0.8528
14650TIP3   OH265364   0.637   5.965   0.634 -0.6855  0.4305 -0.5724
14650TIP3    H165365   0.642   5.869   0.633 -1.7895  0.3244 -2.5104
14650TIP3    H265366   0.678   5.992   0.552 -0.1205  1.6640  0.0875
14651TIP3   OH265367   1.688   6.488  17.038 -0.0055 -0.0446  1.1389
14651TIP3    H165368   1.707   6.580  17.059  2.4444 -0.7670  2.3649
14651TIP3    H265369   1.635   6.493  16.958 -1.3402  2.4680  2.0497
14652TIP3   OH265370   6.384   4.631   2.745  0.2422  0.5677  0.7582
14652TIP3    H165371   6.393   4.622   2.650  1.3986 -2.5987  1.0457
14652TIP3    H265372   6.301   4.677   2.757  0.3855  1.6600 -1.7468
14653TIP3   OH265373   0.374   4.319   2.899  0.0602  0.0852 -0.6651
14653TIP3    H165374   0.287   4.286   2.923  0.8014 -1.1490  0.4442
14653TIP3    H265375   0.416   4.247   2.852  0.4767  0.6946 -1.2499
14654TIP3   OH265376   4.717   4.567  14.636  0.1329  0.0683  0.3447
14654TIP3    H165377   4.727   4.533  14.725  0.4297  0.5397  0.4928
14654TIP3    H265378   4.709   4.662  14.647  0.3295  0.1430 -0.1449
14655TIP3   OH265379   4.876   2.042  11.327  1.0990  0.1387 -0.0702
14655TIP3    H165380   4.892   2.064  11.419  0.3765  3.3137 -0.5614
14655TIP3    H265381   4.792   1.996  11.328  1.2042 -0.0615  0.8799
14656TIP3   OH265382   1.122   4.120  13.666 -0.3674 -0.0354 -0.1997
14656TIP3    H165383   1.163   4.183  13.606 -3.4256  0.5375 -1.8724
14656TIP3    H265384   1.111   4.041  13.614 -1.4728 -0.1118  0.1329
14657TIP3   OH265385   5.849   5.437  14.699  0.2510  0.0659  0.4338
14657TIP3    H165386   5.944   5.435  14.707  0.1808 -2.0375  1.5357
14657TIP3    H265387   5.818   5.482  14.777  0.3321  1.3929 -0.2745
14658TIP3   OH265388   1.169   2.156   4.409  0.2250  0.1020 -0.4818
14658TIP3    H165389   1.143   2.189   4.323  0.6941 -0.6125 -0.9081
14658TIP3    H265390   1.218   2.076   4.390 -1.6265 -1.3497  0.5248
14659TIP3   OH265391   3.043   0.152  12.535 -0.1462  0.4891  0.2325
14659TIP3    H165392   3.095   0.214  12.484 -0.2613 -0.9154 -1.6915
14659TIP3    H265393   2.964   0.200  12.559  1.0575  1.9940  1.4150
14660TIP3   OH265394   6.213   0.887   5.751  0.1557  0.4164  0.4267
14660TIP3    H165395   6.282   0.860   5.690 -1.0413 -1.5062 -0.1609
14660TIP3    H265396   6.139   0.830   5.730 -0.7088  0.5475  2.8729
14661TIP3   OH265397   1.653   2.578  10.648 -0.1330  0.2468 -0.8881
14661TIP3    H165398   1.711   2.541  10.581  0.0476  1.1600 -1.2462
14661TIP3    H265399   1.578   2.612  10.600  0.8366  2.5827 -0.8746
14662TIP3   OH265400   4.152   0.641  14.564 -0.5612 -0.4952  0.0622
14662TIP3    H165401   4.210   0.683  14.500  0.5612 -1.8446  0.1548
14662TIP3    H265402   4.070   0.690  14.556 -0.2616 -0.2030 -1.9431
14663TIP3   OH265403   2.597   5.595  16.930  0.1671  0.1897 -0.0914
14663TIP3    H165404   2.592   5.685  16.960  0.1835  0.3155 -0.4585
14663TIP3    H265405   2.561   5.543  17.002 -0.8079  0.5730 -0.2911
14664TIP3   OH265406   2.932   6.017  12.097 -0.0824  0.3259  0.6592
14664TIP3    H165407   2.925   6.018  12.192  1.4859  2.6950  0.8367
14664TIP3    H265408   2.904   6.104  12.070 -1.3391 -0.5810 -1.1675
14665TIP3   OH265409   1.258   2.574   1.435  0.0326  0.6931 -0.0460
14665TIP3    H165410   1.339   2.559   1.387  0.5038  1.2473  0.5604
14665TIP3    H265411   1.233   2.488   1.469  1.4284  0.8239  1.4086
14666TIP3   OH265412   2.150   0.862   6.152  0.1007 -0.7896  0.1569
14666TIP3    H165413   2.182   0.930   6.211 -0.0944 -0.5454 -0.0170
14666TIP3    H265414   2.055   0.868   6.158  0.0747 -0.4347 -0.5544
14667TIP3   OH265415   6.316   3.537  13.498  0.5468  0.5590  0.6361
14667TIP3    H165416   6.405   3.528  13.463  0.5806  1.6788  0.3817
14667TIP3    H265417   6.303   3.459  13.551  1.8701  0.6028  1.0714
14668TIP3   OH265418   3.413   2.733  13.055  0.5291 -0.0414  0.0754
14668TIP3    H165419   3.436   2.653  13.007 -0.6174 -0.9717  1.0168
14668TIP3    H265420   3.490   2.789  13.047  1.7646 -1.6465  0.2345
14669TIP3   OH265421   1.957   3.110   2.571  0.1146  0.1420  0.4077
14669TIP3    H165422   2.012   3.041   2.536 -0.1442  1.0120 -1.8384
14669TIP3    H265423   1.903   3.067   2.637  0.0054 -1.7818 -0.8782
14670TIP3   OH265424   0.991   3.489   1.227 -0.3391 -0.0819 -0.5950
14670TIP3    H165425   0.969   3.535   1.146  0.9035 -0.9865 -1.4981
14670TIP3    H265426   1.086   3.473   1.220 -0.1943 -0.1147  1.0801
14671TIP3   OH265427   2.814   2.735  13.711 -0.3035 -0.6177  0.0428
14671TIP3    H165428   2.813   2.680  13.633 -0.9265  0.1684 -0.5272
14671TIP3    H265429   2.781   2.678  13.781  0.8768 -1.5236 -0.1074
14672TIP3   OH265430   5.931   1.221   0.771 -0.2244  0.2805 -0.3016
14672TIP3    H165431   5.973   1.306   0.757  0.9308 -0.0999  0.6329
14672TIP3    H265432   5.979   1.161   0.714 -0.4651  0.1076 -0.3218
14673TIP3   OH265433   1.312   1.507  15.288 -0.2493 -0.1770  0.1752
14673TIP3    H165434   1.289   1.458  15.210  0.2290  0.7677 -0.5768
14673TIP3    H265435   1.269   1.460  15.360 -2.8522  0.3538 -0.9115
14674TIP3   OH265436   4.982   6.052  11.841 -0.7225  0.1716 -0.2447
14674TIP3    H165437   4.943   6.134  11.871 -1.9656 -1.1553  2.0235
14674TIP3    H265438   5.073   6.074  11.822 -1.0724  2.1055  0.1398
14675TIP3   OH265439   5.314   5.329   3.554  0.7518  0.2457  0.0169
14675TIP3    H165440   5.283   5.412   3.592 -0.6874  0.0401 -0.6308
14675TIP3    H265441   5.234   5.278   3.539  1.5242 -0.8256 -0.6117
14676TIP3   OH265442   1.213   1.541   3.376  0.2610  0.3818 -0.9498
14676TIP3    H165443   1.236   1.631   3.354  0.4576  0.0889 -2.0091
14676TIP3    H265444   1.266   1.520   3.453 -0.8993  1.6506  0.2437
14677TIP3   OH265445   4.047   3.423  17.093  0.0526  0.2252  0.0598
14677TIP3    H165446   4.088   3.345  17.129 -1.6429 -1.7914 -2.0783
14677TIP3    H265447   4.055   3.413  16.998 -0.9343  2.2555 -0.3023
14678TIP3   OH265448   3.158   1.771  13.196 -0.1209 -0.2285  0.2531
14678TIP3    H165449   3.148   1.851  13.247 -0.6686  1.0022 -1.6624
14678TIP3    H265450   3.251   1.769  13.171  0.1691 -0.8823  1.2999
14679TIP3   OH265451   4.489   1.540  12.997  0.5464 -0.4677 -0.5930
14679TIP3    H165452   4.448   1.617  12.957 -1.3374 -1.2987 -0.3437
14679TIP3    H265453   4.544   1.576  13.067  0.0015  0.6795 -0.7335
14680TIP3   OH265454   1.049   0.318  15.751 -0.3597  0.4828  0.2855
14680TIP3    H165455   1.139   0.351  15.742 -0.4734  0.8085  0.3289
14680TIP3    H265456   1.001   0.390  15.790 -0.9630  0.8443 -1.0557
14681TIP3   OH265457   5.601   0.687  15.930 -0.3010  0.1419  0.1698
14681TIP3    H165458   5.598   0.722  16.019  0.3965 -1.0877  0.7083
14681TIP3    H265459   5.684   0.639  15.926 -0.6453 -0.3969 -0.9152
14682TIP3   OH265460   1.904   5.028   5.127  0.2915  0.4476  0.3013
14682TIP3    H165461   1.860   5.080   5.194  1.4129  2.3196 -0.3368
14682TIP3    H265462   1.993   5.064   5.123  0.0496  1.0249 -2.7440
14683TIP3   OH265463   5.273   0.345  15.495 -0.2172  0.1653 -0.1895
14683TIP3    H165464   5.266   0.370  15.402 -0.5530  2.0603  0.2995
14683TIP3    H265465   5.187   0.364  15.531 -0.3983 -1.5042  0.3392
14684TIP3   OH265466   2.008   0.787   4.185  0.0835 -0.5757  0.6762
14684TIP3    H165467   2.057   0.844   4.244 -0.4548  0.0535  0.5240
14684TIP3    H265468   2.035   0.699   4.209  1.5444 -0.2393  0.3848
14685TIP3   OH265469   3.532   0.559  14.319 -0.2540 -0.3876  0.4355
14685TIP3    H165470   3.450   0.538  14.365  0.1165 -0.9791  0.8518
14685TIP3    H265471   3.593   0.583  14.389 -0.5391  1.7804  0.0069
14686TIP3   OH265472   4.961   4.300   1.170  0.1528 -0.4965 -0.2432
14686TIP3    H165473   5.056   4.302   1.155  0.5338 -2.3802  1.4668
14686TIP3    H265474   4.951   4.253   1.253 -2.3238 -0.8863 -0.6835
14687TIP3   OH265475   6.581   5.397  15.711 -0.0483  0.4826  0.6100
14687TIP3    H165476   6.523   5.473  15.713 -0.6394  0.1214 -1.0898
14687TIP3    H265477   6.549   5.340  15.781 -2.1430  0.0521 -0.6227
14688TIP3   OH265478   3.062   6.098   0.568 -0.0717  0.2460 -0.6019
14688TIP3    H165479   3.065   6.005   0.545  0.3995  0.4350 -1.3290
14688TIP3    H265480   3.022   6.141   0.492 -0.8593  0.5760 -0.0239
14689TIP3   OH265481   2.303   3.916  14.154 -0.0061 -0.0307  0.1207
14689TIP3    H165482   2.222   3.895  14.201  0.3064 -0.0076  0.6789
14689TIP3    H265483   2.369   3.924  14.223  1.0364 -2.5226 -0.4981
14690TIP3   OH265484   1.195   5.883  14.487  0.1823 -0.1394  0.1160
14690TIP3    H165485   1.274   5.923  14.522  0.4844  1.0525 -1.7996
14690TIP3    H265486   1.126   5.908  14.548  0.8900  0.7578  0.5619
14691TIP3   OH265487   6.237   2.541   0.094  0.5878 -0.4664  0.6537
14691TIP3    H165488   6.182   2.490   0.036  2.3895 -0.9689 -0.7013
14691TIP3    H265489   6.285   2.601   0.037  0.7687  0.6146  1.8722
14692TIP3   OH265490   0.907   5.274  15.166  0.5722 -0.4405 -0.3094
14692TIP3    H165491   0.934   5.205  15.106 -0.6281 -0.7917 -0.4673
14692TIP3    H265492   0.903   5.353  15.111 -0.0314 -0.6576 -0.5787
14693TIP3   OH265493   6.162   2.220   6.427  0.4336  0.1252  0.0216
14693TIP3    H165494   6.185   2.161   6.498 -0.0908  1.0919  1.0273
14693TIP3    H265495   6.067   2.227   6.431  0.4292  0.5109 -0.5232
14694TIP3   OH265496   1.588   2.265   2.477  0.1196 -0.3763 -0.0558
14694TIP3    H165497   1.599   2.294   2.568  2.2962  0.2625 -0.4653
14694TIP3    H265498   1.676   2.240   2.449 -0.1612  1.0580 -2.5110
14695TIP3   OH265499   5.408   0.912  16.140  0.3997  0.3384 -0.0802
14695TIP3    H165500   5.441   0.826  16.165 -2.5464 -0.7509  0.5274
14695TIP3    H265501   5.478   0.951  16.088  1.8453 -2.4299 -0.3901
14696TIP3   OH265502   0.580   2.957   4.723  0.2004  0.0250  0.2217
14696TIP3    H165503   0.662   2.921   4.756  0.2763  0.2446  0.2769
14696TIP3    H265504   0.547   3.011   4.794 -0.3343 -0.5972  0.4484
14697TIP3   OH265505   2.239   6.660  13.324  0.1572  0.3086 -0.4875
14697TIP3    H165506   2.312   6.638  13.265  1.1159 -0.3445  0.8923
14697TIP3    H265507   2.273   6.731  13.379  0.3706 -1.0554  1.2347
14698TIP3   OH265508   2.273   1.113  14.651  0.2856  0.5897  0.2127
14698TIP3    H165509   2.355   1.152  14.618  1.3892 -0.8425  1.1462
14698TIP3    H265510   2.281   1.020  14.631 -1.1406  0.4242  0.3257
14699TIP3   OH265511   2.926   2.418   5.429 -0.0220 -0.3663  0.4798
14699TIP3    H165512   2.888   2.330   5.433  1.3559 -1.0718 -0.7373
14699TIP3    H265513   3.020   2.403   5.423  0.3553  1.2631  1.7296
14700TIP3   OH265514   3.813   1.178  14.726  0.0056 -0.5839 -0.1211
14700TIP3    H165515   3.862   1.240  14.672 -1.6684  1.0065  0.0829
14700TIP3    H265516   3.724   1.179  14.689 -0.4488 -1.6789  0.8746
14701TIP3   OH265517   0.865   0.362   5.434 -0.3970 -0.2360  0.4407
14701TIP3    H165518   0.772   0.370   5.412 -0.5788 -2.0872  0.3696
14701TIP3    H265519   0.878   0.268   5.445  1.2008  0.1021  1.6665
14702TIP3   OH265520   6.067   0.348   3.526 -0.0186 -0.5355  0.7143
14702TIP3    H165521   5.997   0.368   3.589 -0.7913  2.6366 -0.9415
14702TIP3    H265522   6.021   0.312   3.450  0.3555 -0.1224  0.2877
14703TIP3   OH265523   2.668   5.382   0.279  0.2122  0.1470 -0.3671
14703TIP3    H165524   2.685   5.297   0.320 -1.5618 -0.6106 -1.0902
14703TIP3    H265525   2.747   5.401   0.229  0.5927 -1.1356 -0.2783
14704TIP3   OH265526   0.094   4.580   0.575  0.2840 -0.3212  0.0452
14704TIP3    H165527   0.079   4.486   0.590 -0.7757  0.2528  3.4201
14704TIP3    H265528   0.007   4.617   0.560  0.8541 -0.0179 -3.5199
14705TIP3   OH265529   5.813   4.062  11.462 -0.0285  0.0131  0.3982
14705TIP3    H165530   5.872   4.098  11.396  1.5654  0.6920  2.0951
14705TIP3    H265531   5.814   3.967  11.445  0.3321  0.1768 -0.5563
14706TIP3   OH265532   1.191   4.657  16.995  0.1189 -0.3929 -0.2138
14706TIP3    H165533   1.131   4.708  17.050 -0.7645 -0.8647 -0.7143
14706TIP3    H265534   1.267   4.714  16.983 -0.3420  0.3291  0.2214
14707TIP3   OH265535   1.778   1.656   0.431 -0.0353 -0.0302 -0.3915
14707TIP3    H165536   1.843   1.670   0.363 -0.5227  0.2290 -0.8116
14707TIP3    H265537   1.712   1.723   0.415 -0.0785  0.1378  0.4342
14708TIP3   OH265538   4.338   4.218   6.072 -0.3272 -0.2102  0.0438
14708TIP3    H165539   4.410   4.263   6.028  0.3640  0.2407  1.5529
14708TIP3    H265540   4.349   4.126   6.048 -0.7421  0.1700 -1.7017
14709TIP3   OH265541   4.677   0.474   0.871 -0.9165  0.3993 -0.7376
14709TIP3    H165542   4.631   0.418   0.809 -2.1267  0.3220  0.1883
14709TIP3    H265543   4.677   0.425   0.953  1.4376  0.1086 -0.8264
14710TIP3   OH265544   5.002   2.907   2.410 -0.4567  0.6995 -0.3431
14710TIP3    H165545   5.002   2.839   2.477  1.0356  1.3133  0.3338
14710TIP3    H265546   5.001   2.860   2.327  1.0910 -0.1994  0.1081
14711TIP3   OH265547   6.187   5.272   3.175  0.7502 -0.3149  0.1433
14711TIP3    H165548   6.248   5.263   3.102 -0.1888 -1.2662 -0.5579
14711TIP3    H265549   6.241   5.254   3.253  1.0833 -2.8609 -0.5628
14712TIP3   OH265550   2.364   5.650   1.603 -0.5044 -0.2122  0.2498
14712TIP3    H165551   2.455   5.645   1.633  0.2711  3.8694 -0.7947
14712TIP3    H265552   2.317   5.691   1.676 -0.5320  1.5195 -0.6931
14713TIP3   OH265553   4.204   3.658   2.349 -0.4861 -0.2696  0.0083
14713TIP3    H165554   4.207   3.606   2.268  0.5060  0.1409 -0.2259
14713TIP3    H265555   4.294   3.688   2.362 -1.0778  1.5975  0.0115
14714TIP3   OH265556   1.652   2.356  10.815 -0.1500 -0.6886 -0.2590
14714TIP3    H165557   1.747   2.355  10.805 -0.1671 -1.6720 -0.4494
14714TIP3    H265558   1.623   2.430  10.761  0.3849 -1.4043 -1.5867
14715TIP3   OH265559   1.249   3.762   5.770 -0.2274 -0.6174  0.2392
14715TIP3    H165560   1.203   3.681   5.749 -0.6672 -0.1223 -0.7944
14715TIP3    H265561   1.321   3.735   5.827  0.2851 -1.8745 -0.9568
14716TIP3   OH265562   4.089   5.913  14.307 -0.4186  0.2940  0.3342
14716TIP3    H165563   4.016   5.868  14.349 -0.0266  1.0287  1.8811
14716TIP3    H265564   4.120   5.853  14.240 -1.1604 -0.8863  1.0255
14717TIP3   OH265565   2.895   4.111   4.208  0.1405  0.2084 -0.1957
14717TIP3    H165566   2.869   4.115   4.300  0.2809  1.5987 -0.1962
14717TIP3    H265567   2.834   4.048   4.169 -1.4865  1.3618  0.3778
14718TIP3   OH265568   4.145   4.197  11.959  0.2150  0.6441  0.0376
14718TIP3    H165569   4.057   4.182  11.992 -0.1653  1.9912 -0.2668
14718TIP3    H265570   4.131   4.243  11.876  1.1966  0.4958 -0.2181
14719TIP3   OH265571   4.872   5.971   0.775  0.2682 -0.3094  0.2493
14719TIP3    H165572   4.777   5.956   0.774  0.2909 -0.5350  0.7723
14719TIP3    H265573   4.889   6.023   0.697 -0.2603 -0.4308  0.0452
14720TIP3   OH265574   1.418   3.519   0.072 -0.1866 -0.2808 -0.8979
14720TIP3    H165575   1.469   3.508  -0.009  2.5459 -0.1195  0.6571
14720TIP3    H265576   1.431   3.437   0.120  1.8489  1.0981  1.1449
14721TIP3   OH265577   4.014   5.328  11.964  0.2851 -0.5057 -0.3958
14721TIP3    H165578   3.924   5.301  11.945  0.6141 -1.9027 -0.1268
14721TIP3    H265579   4.017   5.335  12.060  1.1658 -3.4636 -0.0836
14722TIP3   OH265580   3.690   5.391  16.381  0.0464  0.2536  0.2451
14722TIP3    H165581   3.596   5.393  16.360 -0.0352 -3.1524 -0.1889
14722TIP3    H265582   3.692   5.377  16.476  0.1131  0.1911  0.2342
14723TIP3   OH265583   2.178   6.488  15.603  0.4473 -0.0940  0.3953
14723TIP3    H165584   2.226   6.487  15.520  2.0994  0.5489  1.3011
14723TIP3    H265585   2.139   6.576  15.607  0.0191 -0.2697  0.1148
14724TIP3   OH265586   4.680   0.374   6.331 -0.1259 -0.2747 -0.3091
14724TIP3    H165587   4.637   0.385   6.416  1.3507 -0.3978  0.5058
14724TIP3    H265588   4.773   0.361   6.353  0.9799  3.3291 -2.0206
14725TIP3   OH265589   1.609   2.432  15.748 -0.0839 -0.0406 -0.2625
14725TIP3    H165590   1.592   2.521  15.779 -0.0582  0.2844 -1.1471
14725TIP3    H265591   1.530   2.383  15.769 -0.6427  0.5319 -0.9847
14726TIP3   OH265592   1.789   3.723  15.436  0.3218  0.0751  0.2263
14726TIP3    H165593   1.769   3.798  15.380 -0.4067 -0.2788 -0.0137
14726TIP3    H265594   1.759   3.749  15.523 -4.0847 -1.4150 -0.5559
14727TIP3   OH265595   5.873   2.562  15.276  0.6644  0.3953 -0.1992
14727TIP3    H165596   5.914   2.476  15.265  1.3801  0.6871  0.1258
14727TIP3    H265597   5.935   2.624  15.238  1.0060  0.9428  1.1719
14728TIP3   OH265598   2.258   4.349  13.189 -0.8937  0.4644  0.0650
14728TIP3    H165599   2.309   4.376  13.266 -0.8190 -0.8098  0.4841
14728TIP3    H265600   2.174   4.321  13.225 -0.0622 -2.4223  0.0534
14729TIP3   OH265601   5.008   5.092   4.361  0.0826  0.0361  0.1179
14729TIP3    H165602   5.027   5.150   4.435  2.0470  1.1178 -1.1499
14729TIP3    H265603   5.005   5.005   4.399  1.3830  0.5271  1.4550
14730TIP3   OH265604   3.817   6.351   2.227 -0.2460  0.5881  0.4304
14730TIP3    H165605   3.759   6.344   2.303 -0.0578 -0.1646  0.5203
14730TIP3    H265606   3.905   6.352   2.265 -0.1090 -0.6176  0.2116
14731TIP3   OH265607   4.183   3.633  15.505  0.1470 -0.4345 -0.6203
14731TIP3    H165608   4.162   3.554  15.455  1.3830 -0.7888 -0.6129
14731TIP3    H265609   4.107   3.646  15.562 -0.4297 -1.1419 -1.2088
14732TIP3   OH265610   1.964   0.574  14.156  0.0618 -0.2185  0.2772
14732TIP3    H165611   2.037   0.622  14.194  1.0485  0.4880 -2.2702
14732TIP3    H265612   1.890   0.594  14.213  1.1733  1.5880  1.2014
14733TIP3   OH265613   4.080   6.538   6.641  0.0032 -0.9156  0.3147
14733TIP3    H165614   4.025   6.532   6.719 -1.0513  0.2882 -0.3118
14733TIP3    H265615   4.056   6.461   6.589 -2.1845  0.3254 -0.6155
14734TIP3   OH265616   5.380   5.594   2.319  0.4917  0.3589  0.2002
14734TIP3    H165617   5.373   5.618   2.227 -0.1586  1.3251  0.4822
14734TIP3    H265618   5.354   5.674   2.366 -1.9054 -0.8879  1.1989
14735TIP3   OH265619   4.351   3.525  13.287 -0.5372 -0.0611  0.5033
14735TIP3    H165620   4.342   3.500  13.195 -0.7889  0.6233  0.3354
14735TIP3    H265621   4.267   3.505  13.326 -0.9692  1.0889  0.2173
14736TIP3   OH265622   1.683   6.058  16.051 -0.5042 -0.0259 -0.1002
14736TIP3    H165623   1.769   6.088  16.080 -0.4719 -0.1254 -0.0912
14736TIP3    H265624   1.701   5.980  15.998 -0.7449 -1.5072  1.8842
14737TIP3   OH265625   1.647   6.677   6.227  1.0396 -0.0933  0.0351
14737TIP3    H165626   1.680   6.629   6.303  2.0313  0.7456  0.1597
14737TIP3    H265627   1.723   6.727   6.196 -0.3759  2.9823  1.1515
14738TIP3   OH265628   6.131   6.292  10.829 -0.2972 -0.4028 -0.0916
14738TIP3    H165629   6.079   6.221  10.791  0.2229 -0.5255 -0.5891
14738TIP3    H265630   6.077   6.370  10.815 -1.7710 -0.9128  2.1933
14739TIP3   OH265631   1.814   2.107   3.810  0.3246 -0.6601  0.1944
14739TIP3    H165632   1.728   2.068   3.798 -0.6561  1.5798 -0.4718
14739TIP3    H265633   1.850   2.113   3.721 -0.7579  2.4484 -0.1386
14740TIP3   OH265634   5.159   5.110  16.875  0.2287 -0.2258  0.0943
14740TIP3    H165635   5.078   5.151  16.846  0.9515 -0.4463 -2.4645
14740TIP3    H265636   5.219   5.184  16.890  0.4473 -0.1752 -0.9841
14741TIP3   OH265637   4.760   4.141  15.561  0.1131 -0.1138 -0.2109
14741TIP3    H165638   4.793   4.121  15.474 -1.3729  0.8446 -1.0456
14741TIP3    H265639   4.665   4.149  15.550 -0.3407 -1.6975  1.8512
14742TIP3   OH265640   1.843   0.101  14.583  0.0176  0.1002 -0.3807
14742TIP3    H165641   1.886   0.153  14.651 -0.0458 -0.9976  0.5399
14742TIP3    H265642   1.880   0.013  14.593 -4.2878 -1.7441  2.4065
14743TIP3   OH265643   0.141   1.988  16.578 -0.4994 -0.4838 -0.2911
14743TIP3    H165644   0.120   2.041  16.654 -1.0960 -1.3882  0.2011
14743TIP3    H265645   0.196   1.918  16.612  0.3319 -0.1558 -0.9377
14744TIP3   OH265646   2.034   2.463  15.644 -0.2070  0.3030 -0.3713
14744TIP3    H165647   2.028   2.457  15.740  1.1605 -0.2850 -0.2981
14744TIP3    H265648   2.073   2.380  15.617  0.9736  1.1099 -1.2744
14745TIP3   OH265649   0.783   5.712   4.342 -0.1931  0.1329  0.2944
14745TIP3    H165650   0.836   5.790   4.360 -1.1126  0.7814  0.2231
14745TIP3    H265651   0.826   5.643   4.392  1.3268  0.4032 -0.5395
14746TIP3   OH265652   6.536   6.127  14.268 -0.1258 -0.5179  0.3413
14746TIP3    H165653   6.624   6.129  14.230 -0.4232 -0.2172 -0.3482
14746TIP3    H265654   6.542   6.183  14.346 -0.0587  0.7234 -0.5163
14747TIP3   OH265655   4.543   5.973   1.618 -0.9513 -0.4197 -0.1942
14747TIP3    H165656   4.495   5.920   1.682  0.4088 -0.8780  0.4655
14747TIP3    H265657   4.579   5.910   1.556 -0.3320 -0.1741 -0.0910
14748TIP3   OH265658   0.838   6.139   1.366 -0.1063 -0.5135  0.0871
14748TIP3    H165659   0.774   6.205   1.341 -0.1427 -0.2857  0.7595
14748TIP3    H265660   0.785   6.062   1.389 -0.0215 -1.3240 -2.1185
14749TIP3   OH265661   2.772   5.478   4.730 -0.0944  0.5007  0.1977
14749TIP3    H165662   2.865   5.463   4.746 -0.0651 -0.7351 -0.9060
14749TIP3    H265663   2.730   5.396   4.755 -0.7669  0.7401 -0.1237
14750TIP3   OH265664   3.611   4.201  14.925  0.3350  0.2469 -0.3973
14750TIP3    H165665   3.569   4.116  14.939 -1.0975  1.0228  0.3306
14750TIP3    H265666   3.539   4.258  14.896  1.1946  1.2846 -0.5426
14751TIP3   OH265667   5.890   5.337  13.541  0.1700 -0.0471 -0.5517
14751TIP3    H165668   5.843   5.416  13.517 -0.6944 -0.9416 -1.9784
14751TIP3    H265669   5.946   5.363  13.614 -1.9140  1.2766  0.6833
14752TIP3   OH265670   0.514   6.183  11.650 -0.3077 -0.4478  0.3597
14752TIP3    H165671   0.543   6.210  11.564 -1.9505 -1.7419 -0.6844
14752TIP3    H265672   0.420   6.201  11.650 -0.4981 -1.2964  1.5223
14753TIP3   OH265673   6.489   4.295   0.496 -0.3781 -0.4051 -0.0419
14753TIP3    H165674   6.438   4.359   0.446  0.7559  1.4576  1.0724
14753TIP3    H265675   6.552   4.260   0.433 -0.7895 -0.1935 -0.5799
14754TIP3   OH265676   3.572   4.975  13.215 -0.5350  0.1006 -0.5678
14754TIP3    H165677   3.502   5.039  13.226 -0.9573 -0.2395 -1.2254
14754TIP3    H265678   3.650   5.028  13.200 -1.0730  0.4758 -2.2516
14755TIP3   OH265679   3.967   5.728   5.267 -0.0258 -0.1713 -0.1238
14755TIP3    H165680   4.043   5.786   5.279  0.2871 -0.6731  0.3929
14755TIP3    H265681   4.003   5.640   5.279 -0.4605 -0.4866 -1.1091
14756TIP3   OH265682   3.615   5.371  13.397 -0.2964 -0.0858 -0.2755
14756TIP3    H165683   3.710   5.383  13.405 -0.3331  0.0767 -0.0658
14756TIP3    H265684   3.577   5.444  13.447 -0.5557  1.0632 -2.0589
14757TIP3   OH265685   0.455   0.079  14.213 -0.1678  0.3344 -0.6504
14757TIP3    H165686   0.527   0.024  14.184 -0.2725  0.9654 -2.1933
14757TIP3    H265687   0.412   0.028  14.281  1.6326 -0.1168  0.2171
14758TIP3   OH265688   1.405   3.362   5.199  0.0032  0.2799  0.8149
14758TIP3    H165689   1.333   3.303   5.224 -0.9391  0.5851 -0.9631
14758TIP3    H265690   1.470   3.304   5.158  0.0940  0.1956  1.0769
14759TIP3   OH265691   3.942   0.977  11.570  0.1373 -0.3783  0.4132
14759TIP3    H165692   3.985   0.984  11.655 -0.6396 -1.0361  0.8722
14759TIP3    H265693   3.937   0.883  11.553 -2.1814 -0.4158  0.9651
14760TIP3   OH265694   1.719   3.950   6.067  0.0265  0.0003 -0.6949
14760TIP3    H165695   1.707   3.919   6.157  0.3639 -0.9247 -0.9509
14760TIP3    H265696   1.797   4.005   6.070  0.4440 -0.5924 -0.5475
14761TIP3   OH265697   4.873   3.979   5.622 -0.3830  0.2337  0.2225
14761TIP3    H165698   4.831   4.051   5.669  0.2757  1.2127 -0.6662
14761TIP3    H265699   4.888   4.012   5.534  0.3825 -0.8149 -0.0685
14762TIP3   OH265700   6.348   1.932  11.952 -0.1992 -0.1538 -0.3609
14762TIP3    H165701   6.442   1.935  11.936 -0.1735  0.4131 -0.1332
14762TIP3    H265702   6.338   1.958  12.044 -0.6375  0.7600 -0.6485
14763TIP3   OH265703   2.694   1.792   0.118 -0.1964 -0.2055  0.1907
14763TIP3    H165704   2.769   1.848   0.138 -0.8444  0.9116 -0.3766
14763TIP3    H265705   2.700   1.720   0.180  1.3489 -0.1495  0.1454
14764TIP3   OH265706   6.144   5.988  14.456 -0.1857  0.1725  0.7271
14764TIP3    H165707   6.178   6.022  14.373  0.6573  2.7306  2.0270
14764TIP3    H265708   6.166   5.895  14.454 -0.1022  0.1673 -1.8444
14765TIP3   OH265709   1.169   4.474  12.182  0.2034 -1.0802  0.7878
14765TIP3    H165710   1.138   4.384  12.193 -2.5601 -0.4103 -0.4792
14765TIP3    H265711   1.248   4.465  12.128 -1.1783 -2.7133 -1.1560
14766TIP3   OH265712   2.764   5.753   3.668 -0.0274  0.0171 -0.1489
14766TIP3    H165713   2.796   5.842   3.654  0.3049 -0.0831 -0.0585
14766TIP3    H265714   2.837   5.708   3.711  0.1062 -0.5070 -0.8962
14767TIP3   OH265715   0.156   5.373  14.812 -0.0026  0.2624 -0.2239
14767TIP3    H165716   0.169   5.424  14.892 -0.5220 -0.2327  0.1912
14767TIP3    H265717   0.073   5.404  14.777 -0.3303 -0.2945  0.0409
14768TIP3   OH265718   1.916   0.301  11.784  0.2732 -0.3341 -0.3866
14768TIP3    H165719   1.978   0.321  11.854  0.1706  0.0047 -0.3882
14768TIP3    H265720   1.907   0.206  11.786  1.1167 -0.4311 -0.6646
14769TIP3   OH265721   2.656   1.906   5.300  0.5842 -0.7855  0.0208
14769TIP3    H165722   2.713   1.831   5.315  1.7127  0.0057 -0.1981
14769TIP3    H265723   2.571   1.867   5.276  1.1360 -1.9796 -0.0751
14770TIP3   OH265724   5.109   3.630  13.563 -0.3753 -0.2086  0.2886
14770TIP3    H165725   5.051   3.567  13.606  0.1540 -0.5835  0.4598
14770TIP3    H265726   5.164   3.664  13.633  1.5109 -1.9028 -0.2487
14771TIP3   OH265727   4.170   4.391   3.182 -0.4796 -0.0912  0.0048
14771TIP3    H165728   4.091   4.423   3.226 -0.1854  0.0287  0.4577
14771TIP3    H265729   4.140   4.321   3.125 -1.0964  0.7778 -0.7632
14772TIP3   OH265730   2.554   1.358  16.509 -0.5735  0.2084  0.1929
14772TIP3    H165731   2.485   1.347  16.574 -2.7149  0.9260 -1.8286
14772TIP3    H265732   2.509   1.354  16.425  2.0143 -0.2253 -1.2742
14773TIP3   OH265733   3.414   2.490  13.558 -0.0581 -0.7178 -0.5159
14773TIP3    H165734   3.464   2.487  13.640 -0.3403 -3.1659 -0.3736
14773TIP3    H265735   3.323   2.499  13.585  0.0395  1.8237 -0.7338
14774TIP3   OH265736   3.108   2.017  15.687 -0.2247 -0.1245  0.2194
14774TIP3    H165737   3.178   1.952  15.677  1.0037  0.8185  2.0847
14774TIP3    H265738   3.046   1.996  15.617  0.3189 -3.0213  0.4564
14775TIP3   OH265739   3.535   0.192   0.020  0.0563  0.7370  0.4409
14775TIP3    H165740   3.575   0.248  -0.046  0.6872  2.2952  2.0621
14775TIP3    H265741   3.608   0.155   0.069 -0.3338 -1.7080 -0.6454
14776TIP3   OH265742   1.715   2.752   0.948  0.1484 -0.1543  0.3454
14776TIP3    H165743   1.775   2.732   1.019  1.4863  0.0661 -0.6850
14776TIP3    H265744   1.704   2.847   0.951 -0.3566 -0.2209  0.6868
14777TIP3   OH265745   1.564   1.547  13.406  0.3481 -0.1404 -0.5185
14777TIP3    H165746   1.547   1.487  13.333 -0.3636 -0.3790 -0.1697
14777TIP3    H265747   1.591   1.490  13.478  0.2689  0.0146 -0.3652
14778TIP3   OH265748   1.992   0.671  13.718 -0.4501  0.2719  0.0683
14778TIP3    H165749   2.052   0.681  13.792 -0.9076 -0.7795  0.5931
14778TIP3    H265750   1.922   0.735  13.735 -1.3477 -0.9889  1.3704
14779TIP3   OH265751   1.087   0.650   1.930  0.0978  0.4810  0.5505
14779TIP3    H165752   1.106   0.573   1.877  2.3578  0.7186  0.9276
14779TIP3    H265753   1.040   0.709   1.871  1.0754  0.0528 -0.7021
14780TIP3   OH265754   1.899   2.009  13.423  0.1680 -0.6330 -0.4581
14780TIP3    H165755   1.840   1.934  13.423  0.3245 -0.7791  0.8068
14780TIP3    H265756   1.917   2.025  13.516  2.0255 -0.5287 -0.7926
14781TIP3   OH265757   2.345   0.250   1.661  0.3007  0.6284  0.0872
14781TIP3    H165758   2.387   0.296   1.733 -0.1780  0.8718  0.2168
14781TIP3    H265759   2.292   0.317   1.618 -1.2860 -0.0073  0.9524
14782TIP3   OH265760   2.425   2.915   6.403 -0.4157 -0.6336 -0.6017
14782TIP3    H165761   2.366   2.972   6.453  1.8941  3.7001 -2.2059
14782TIP3    H265762   2.415   2.944   6.312  2.0840 -1.6476 -1.2931
14783TIP3   OH265763   1.467   5.691  14.388 -0.4741 -0.2907 -0.2094
14783TIP3    H165764   1.439   5.775  14.353 -1.1123 -0.3433  0.1622
14783TIP3    H265765   1.444   5.628  14.320  0.7657 -0.0801 -0.8533
14784TIP3   OH265766   5.869   2.621  13.079 -0.3010  0.5925 -0.0805
14784TIP3    H165767   5.851   2.543  13.027 -0.0678  0.4750  0.0109
14784TIP3    H265768   5.936   2.668  13.029 -0.7269  0.9379 -0.3321
14785TIP3   OH265769   3.622   0.396  13.597  0.4553 -0.5673  0.3273
14785TIP3    H165770   3.680   0.332  13.556  1.4918  0.0391  0.8161
14785TIP3    H265771   3.662   0.414  13.682 -0.5849 -0.3137  0.7746
14786TIP3   OH265772   2.560   2.364   3.013  0.1203 -0.0143  0.2474
14786TIP3    H165773   2.577   2.292   2.952  1.1839  0.6329 -0.2465
14786TIP3    H265774   2.608   2.340   3.092  1.3749  0.6125 -0.2809
14787TIP3   OH265775   3.574   2.947   2.902  0.0537 -0.6968  0.6825
14787TIP3    H165776   3.530   3.028   2.877 -1.5902 -2.1524 -1.4890
14787TIP3    H265777   3.663   2.957   2.869 -0.2608  0.0392  0.0213
14788TIP3   OH265778   5.541   5.676  11.083  0.1693  0.8129  0.2258
14788TIP3    H165779   5.540   5.766  11.052  0.9165  0.4072 -1.0274
14788TIP3    H265780   5.634   5.654  11.088  0.0619 -1.1587 -3.4162
14789TIP3   OH265781   6.154   3.429   0.034  0.0292 -0.3131  0.6446
14789TIP3    H165782   6.229   3.467   0.080  2.4003 -0.7659 -2.5329
14789TIP3    H265783   6.167   3.335   0.041 -0.4229 -0.4043  0.3209
14790TIP3   OH265784   0.252   4.265  16.112 -0.2315 -0.2928  0.2716
14790TIP3    H165785   0.172   4.297  16.153 -1.6256 -1.0530 -1.6880
14790TIP3    H265786   0.224   4.187  16.062  1.0964  0.9661 -2.7001
14791TIP3   OH265787   2.618   1.092  10.781 -0.6264 -0.1560  0.1867
14791TIP3    H165788   2.526   1.096  10.807 -0.9638 -1.1170 -0.7972
14791TIP3    H265789   2.617   1.048  10.697  0.5651  1.5841 -0.7930
14792TIP3   OH265790   0.100   4.691  13.578 -0.0584 -0.3289  0.0785
14792TIP3    H165791   0.113   4.765  13.518  1.5350  0.1528  0.9734
14792TIP3    H265792   0.088   4.731  13.664 -0.4636 -1.0832  0.3873
14793TIP3   OH265793   2.963   2.991  14.203  0.0169 -0.0256  0.0688
14793TIP3    H165794   3.031   2.953  14.147 -0.5206 -0.4048 -0.3392
14793TIP3    H265795   2.908   3.041  14.143  0.4543  1.0430  0.5351
14794TIP3   OH265796   0.999   1.520  10.541  0.2380  0.3363 -0.1799
14794TIP3    H165797   1.052   1.456  10.493  0.0637 -0.1914  0.3207
14794TIP3    H265798   0.934   1.550  10.477  1.4242  1.3548 -0.9447
14795TIP3   OH265799   4.961   3.914  12.553  0.0704  0.3958 -0.6134
14795TIP3    H165800   4.908   3.904  12.474 -1.5062 -0.4244  0.4881
14795TIP3    H265801   4.904   3.962  12.614  1.0964  0.6679  0.1658
14796TIP3   OH265802   5.978   4.819   5.427 -0.2949 -0.2323  0.3841
14796TIP3    H165803   6.063   4.789   5.395  0.0081 -0.3995  1.3113
14796TIP3    H265804   5.996   4.856   5.513 -0.8194  1.7828 -0.3159
14797TIP3   OH265805   5.633   2.759  16.334  0.1524  0.4157 -0.2250
14797TIP3    H165806   5.702   2.700  16.308  0.1445  0.0614  0.5258
14797TIP3    H265807   5.654   2.842  16.291 -0.3469 -0.3615 -2.0325
14798TIP3   OH265808   3.322   0.199   2.546 -0.3342 -0.2377 -0.3336
14798TIP3    H165809   3.288   0.115   2.516 -0.5575 -0.8739  1.5660
14798TIP3    H265810   3.244   0.248   2.573 -0.1963  0.5664 -1.3126
14799TIP3   OH265811   3.008   4.174   2.232  0.0600 -0.0653 -0.5200
14799TIP3    H165812   3.102   4.164   2.248 -0.2474 -2.7902  0.1095
14799TIP3    H265813   2.993   4.268   2.238  3.0341  0.6760 -2.5166
14800TIP3   OH265814   5.861   5.487   0.636  0.2089 -0.2304 -0.3847
14800TIP3    H165815   5.795   5.419   0.652 -0.3296  0.4284  0.2349
14800TIP3    H265816   5.850   5.509   0.543  0.8426 -1.4512 -0.7731
14801TIP3   OH265817   1.418   4.678   2.536  0.1837 -0.5000  0.1029
14801TIP3    H165818   1.440   4.770   2.550  2.6149 -0.6559 -2.0131
14801TIP3    H265819   1.324   4.679   2.519 -0.0362  1.4219  1.0369
14802TIP3   OH265820   2.032   4.171  14.061  0.4549 -0.8002 -0.1150
14802TIP3    H165821   2.082   4.138  13.986 -1.3859 -0.9489 -1.3358
14802TIP3    H265822   2.083   4.245  14.093  0.7805 -0.0677 -2.1862
14803TIP3   OH265823   4.347   6.233   0.842  0.4558 -0.0214 -0.4734
14803TIP3    H165824   4.348   6.320   0.881  0.0199  0.2617 -1.0627
14803TIP3    H265825   4.374   6.174   0.912  0.7126  0.5847 -0.0573
14804TIP3   OH265826   5.511   5.987  11.137  0.4849 -0.0146 -0.6290
14804TIP3    H165827   5.517   5.964  11.044  2.4462 -1.5247 -0.1855
14804TIP3    H265828   5.596   6.025  11.158 -0.0746  0.6795  0.4707
14805TIP3   OH265829   3.257   2.843  14.255  0.0380 -0.0072 -0.2372
14805TIP3    H165830   3.202   2.766  14.242 -1.9844  1.3302 -0.0029
14805TIP3    H265831   3.228   2.905  14.188  0.1939  1.2840  0.8480
14806TIP3   OH265832   6.694   6.373   4.708 -0.2907  0.2132 -0.1633
14806TIP3    H165833   6.633   6.446   4.693 -0.4595  0.0871 -0.0915
14806TIP3    H265834   6.715   6.379   4.801  0.4205  0.7333 -0.3508
14807TIP3   OH265835   2.834   3.210   0.923 -0.0846  0.2901  0.7361
14807TIP3    H165836   2.925   3.205   0.895  0.2799  1.0556  1.7538
14807TIP3    H265837   2.838   3.224   1.017 -1.2059  3.0605  0.4529
14808TIP3   OH265838   0.117   4.488  13.279 -0.0848  0.0156 -0.2131
14808TIP3    H165839   0.119   4.569  13.228 -0.0122 -1.5874 -2.9554
14808TIP3    H265840   0.024   4.465  13.285 -0.3848  1.4726  2.7911
14809TIP3   OH265841   4.025   4.960  13.784 -0.0673 -0.3496  0.4673
14809TIP3    H165842   4.016   4.944  13.690  0.6929 -1.0805  0.5070
14809TIP3    H265843   4.069   4.882  13.818  0.0105  0.0704  1.3650
14810TIP3   OH265844   3.934   2.914   5.769 -0.3830  0.5247 -0.1756
14810TIP3    H165845   3.859   2.894   5.713 -0.2515 -1.9293  0.3925
14810TIP3    H265846   3.900   2.976   5.834 -1.0493  1.8593 -1.7447
14811TIP3   OH265847   4.373   0.920   1.774  0.5471  0.0625 -0.2793
14811TIP3    H165848   4.354   0.891   1.863  0.5011 -0.4785 -0.4616
14811TIP3    H265849   4.374   0.840   1.722  1.4262  0.2767 -0.6164
14812TIP3   OH265850   3.958   5.013  16.969 -0.0743 -0.2530  0.2930
14812TIP3    H165851   3.956   5.029  16.874  1.2047  0.2221  0.3318
14812TIP3    H265852   3.865   5.009  16.994 -0.4361 -1.0262 -1.0742
14813TIP3   OH265853   4.886   1.430   5.203  0.0070  0.7268 -0.5036
14813TIP3    H165854   4.903   1.495   5.270  1.4519  0.7307 -0.8336
14813TIP3    H265855   4.903   1.346   5.246  1.8187  0.7675 -1.0617
14814TIP3   OH265856   2.391   3.589   5.246  0.5656  0.3054  0.1572
14814TIP3    H165857   2.314   3.561   5.196  1.3241 -1.9799  0.1805
14814TIP3    H265858   2.354   3.635   5.322 -0.8348 -1.2927  0.5139
14815TIP3   OH265859   4.315   3.489   6.142 -0.0988  0.5220  0.0460
14815TIP3    H165860   4.365   3.407   6.139 -1.3736 -0.2683 -0.7541
14815TIP3    H265861   4.358   3.546   6.079  1.0262  0.6196  0.8829
14816TIP3   OH265862   0.221   2.430  16.112 -0.6024 -0.0091 -0.7341
14816TIP3    H165863   0.228   2.504  16.172  0.8954 -0.8300  0.1661
14816TIP3    H265864   0.284   2.450  16.042 -1.6895  0.5106 -1.6011
14817TIP3   OH265865   5.122   6.626  14.868  0.8149  0.3943  0.0502
14817TIP3    H165866   5.206   6.664  14.846  0.2349  2.2009  0.7884
14817TIP3    H265867   5.063   6.701  14.876 -0.6934 -0.7694  0.2625
14818TIP3   OH265868   0.575   6.011  13.357  0.4806 -0.9579 -0.3031
14818TIP3    H165869   0.592   6.069  13.430  0.7081 -0.6520 -0.5927
14818TIP3    H265870   0.527   6.064  13.293  0.2126 -1.2427 -0.3431
14819TIP3   OH265871   4.247   1.605   3.175  0.0300  0.2444 -0.4561
14819TIP3    H165872   4.259   1.685   3.124  0.9484 -0.5596 -1.5491
14819TIP3    H265873   4.189   1.631   3.247  0.0883  1.8143 -0.9385
14820TIP3   OH265874   0.885   3.386  11.251  0.4917  0.2259 -0.2969
14820TIP3    H165875   0.967   3.379  11.204  0.4036  0.1543 -0.4394
14820TIP3    H265876   0.818   3.363  11.187  0.2111  2.0756 -0.7245
14821TIP3   OH265877   3.143   1.327  15.903 -0.0846  0.5014 -0.2371
14821TIP3    H165878   3.050   1.307  15.917 -1.0865  3.3571 -1.8022
14821TIP3    H265879   3.175   1.351  15.990 -1.3251  1.1156  0.0806
14822TIP3   OH265880   2.324   4.569   5.663  0.6512  0.0530 -0.1654
14822TIP3    H165881   2.313   4.654   5.620 -1.1426 -0.4839 -0.8873
14822TIP3    H265882   2.362   4.513   5.596 -0.2924 -0.2773 -0.4369
14823TIP3   OH265883   6.766   2.766   2.522  0.3381 -0.1287 -0.2657
14823TIP3    H165884   6.722   2.745   2.439  0.2644 -0.0591 -0.2437
14823TIP3    H265885   6.807   2.683   2.548  1.5216  0.1676 -1.0749
14824TIP3   OH265886   6.585   1.083   4.547  0.3556 -0.4612 -0.0938
14824TIP3    H165887   6.625   1.044   4.469  2.7731 -1.1676  1.3983
14824TIP3    H265888   6.537   1.159   4.514  0.3552 -1.3686 -2.3831
14825TIP3   OH265889   3.541   0.730  13.793 -0.1726  0.4824 -0.0771
14825TIP3    H165890   3.571   0.639  13.787  2.5034  1.3131 -0.6057
14825TIP3    H265891   3.535   0.746  13.888  1.1546  0.2486  0.0719
14826TIP3   OH265892   0.493   6.077  16.695 -0.2265  0.2274 -0.1109
14826TIP3    H165893   0.445   6.124  16.627  0.3435 -1.0714 -1.4545
14826TIP3    H265894   0.475   5.984  16.678 -1.5304 -0.1068  2.6329
14827TIP3   OH265895   2.930   2.149  13.595  0.7929  0.3387  0.6368
14827TIP3    H165896   2.875   2.070  13.591  1.8356 -0.3660 -2.3181
14827TIP3    H265897   2.870   2.220  13.573  0.5527 -0.1447 -0.3694
14828TIP3   OH265898   0.551   0.114   6.009 -0.1354  0.0693  0.0694
14828TIP3    H165899   0.462   0.144   6.028  0.4644  0.9041  1.6749
14828TIP3    H265900   0.580   0.072   6.089  0.9991 -0.0226 -0.3784
14829TIP3   OH265901   5.031   3.735  16.341 -0.4159 -0.1093 -0.2232
14829TIP3    H165902   5.025   3.829  16.326  2.6026  0.0103 -1.3771
14829TIP3    H265903   4.979   3.696  16.271 -0.3828  0.6968 -0.7068
14830TIP3   OH265904   4.625   6.705  16.656 -0.1652  0.1628 -0.3455
14830TIP3    H165905   4.713   6.691  16.622  0.4739 -0.3660  1.4286
14830TIP3    H265906   4.569   6.703  16.578  0.9301 -3.1811 -1.2525
14831TIP3   OH265907   2.066   5.778   2.287  0.0261  0.3247  1.1954
14831TIP3    H165908   2.158   5.802   2.282 -0.2469  1.0970 -1.5072
14831TIP3    H265909   2.062   5.690   2.248 -0.5156  0.7897  0.1800
14832TIP3   OH265910   6.035   1.059   5.500 -0.7108  0.1612  0.0317
14832TIP3    H165911   6.032   1.112   5.579 -1.3435  0.0047  0.1208
14832TIP3    H265912   6.067   1.118   5.432 -0.8492  0.4927  0.2535
14833TIP3   OH265913   2.666   0.234  11.937 -0.1261 -0.1746  0.1994
14833TIP3    H165914   2.626   0.318  11.955 -0.9248 -0.0590 -1.7987
14833TIP3    H265915   2.749   0.256  11.895  1.1662 -0.4244  2.4832
14834TIP3   OH265916   6.246   3.147   2.609  0.9356 -0.5733 -0.4465
14834TIP3    H165917   6.296   3.225   2.632  0.5424 -0.5752  0.4486
14834TIP3    H265918   6.289   3.075   2.656 -0.1864 -0.4927  0.7603
14835TIP3   OH265919   4.353   5.205  14.294  0.0263 -0.4843  0.1105
14835TIP3    H165920   4.449   5.199  14.297  0.1127 -1.2588 -2.1902
14835TIP3    H265921   4.327   5.134  14.235 -1.9489 -0.0086  0.3581
14836TIP3   OH265922   3.030   1.728   0.358  0.3550  0.0649 -0.1769
14836TIP3    H165923   3.016   1.634   0.351  1.0747 -0.1673  1.2438
14836TIP3    H265924   2.995   1.752   0.444 -0.7544  1.2949 -0.9208
14837TIP3   OH265925   5.274   1.275   2.203 -0.2881  0.3611  0.4006
14837TIP3    H165926   5.319   1.359   2.216 -1.5308  0.8425  1.9080
14837TIP3    H265927   5.181   1.298   2.199 -0.6604 -0.9369  0.9148
14838TIP3   OH265928   5.516   5.411  11.889 -0.4379 -0.3363  0.3469
14838TIP3    H165929   5.602   5.374  11.870 -0.4194  0.3002 -0.9007
14838TIP3    H265930   5.511   5.412  11.985  0.5832 -1.1769  0.4287
14839TIP3   OH265931   3.091   4.668  12.351  0.8368  0.3383  0.1125
14839TIP3    H165932   3.053   4.722  12.281  1.1589  1.0406  0.4600
14839TIP3    H265933   3.169   4.716  12.377  0.9777 -0.1692  0.6298
14840TIP3   OH265934   3.901   4.540   0.246 -0.5504 -0.3447 -0.1315
14840TIP3    H165935   3.884   4.558   0.153  0.0967 -0.8110 -0.3484
14840TIP3    H265936   3.908   4.445   0.251  2.4797 -0.2358 -0.2107
14841TIP3   OH265937   4.563   3.170  11.360  0.4720 -0.2421 -0.0079
14841TIP3    H165938   4.655   3.189  11.380  0.4464  0.0211 -0.1385
14841TIP3    H265939   4.515   3.244  11.396  0.1731 -1.0225  1.2526
14842TIP3   OH265940   1.627   4.244   5.473 -0.4116  0.7281 -0.0075
14842TIP3    H165941   1.537   4.212   5.467 -0.0941 -0.4178  1.0058
14842TIP3    H265942   1.620   4.323   5.527 -0.8065  0.6076  0.1263
14843TIP3   OH265943   3.063   6.109   2.056 -0.3189 -0.6488 -0.1130
14843TIP3    H165944   3.018   6.111   1.972  0.0140 -1.3278 -0.3107
14843TIP3    H265945   2.996   6.085   2.119 -0.5875 -0.0631 -0.1685
14844TIP3   OH265946   0.082   4.627  12.833  0.4765 -0.0516 -0.3698
14844TIP3    H165947   0.137   4.688  12.784  1.0875 -0.4739 -0.2185
14844TIP3    H265948   0.073   4.668  12.919  0.3262  0.1496 -0.4807
14845TIP3   OH265949   4.565   0.337   4.208  0.6616  0.0301 -0.2255
14845TIP3    H165950   4.490   0.278   4.202  2.1295 -1.8723 -0.6254
14845TIP3    H265951   4.573   0.356   4.301  1.0708 -1.6716  0.1238
14846TIP3   OH265952   5.357   1.091  17.214  0.5313 -0.3765 -0.3907
14846TIP3    H165953   5.388   1.068  17.127  0.2210 -0.3247 -0.5192
14846TIP3    H265954   5.329   1.008  17.252 -0.6058 -0.2284 -0.8567
14847TIP3   OH265955   1.729   6.408  11.885  0.3212 -0.4431  0.4430
14847TIP3    H165956   1.705   6.338  11.946 -0.1778 -0.0104  0.7538
14847TIP3    H265957   1.825   6.412  11.889  0.3002 -0.5193  1.0838
14848TIP3   OH265958   5.018   3.034   4.420 -0.0188 -0.4456 -0.3738
14848TIP3    H165959   5.010   3.128   4.405  0.2965 -0.0008  1.8509
14848TIP3    H265960   5.082   3.026   4.492  0.3174 -2.3939 -0.8069
14849TIP3   OH265961   2.601   0.848   0.242 -0.0675 -0.7175  0.6812
14849TIP3    H165962   2.586   0.755   0.228  1.2131 -1.5234  3.8208
14849TIP3    H265963   2.694   0.854   0.265 -0.4320  1.1003  1.9006
14850TIP3   OH265964   2.318   2.605  11.072  0.3219  0.0604 -0.5822
14850TIP3    H165965   2.273   2.669  11.127 -1.4267 -0.8350 -0.9019
14850TIP3    H265966   2.404   2.643  11.055 -0.2271  1.7332  0.2604
14851TIP3   OH265967   0.822   5.295   0.634 -0.0981  0.5327 -0.7228
14851TIP3    H165968   0.903   5.301   0.585  0.3069  0.6352 -0.0507
14851TIP3    H265969   0.756   5.271   0.569 -0.0376  3.0149 -1.7839
14852TIP3   OH265970   0.005   5.652   2.866 -0.1348  0.0545  0.5092
14852TIP3    H165971   0.017   5.637   2.960 -0.5655  3.1408  1.1972
14852TIP3    H265972   0.060   5.728   2.847 -0.0121 -0.5372 -1.7894
14853TIP3   OH265973   4.254   6.475   2.475  0.0430  0.0396 -0.3422
14853TIP3    H165974   4.312   6.548   2.456  0.5272  0.0118  0.9728
14853TIP3    H265975   4.221   6.492   2.563  1.8033 -2.3383  0.8736
14854TIP3   OH265976   0.516   5.371  12.232  0.3302  0.1086  0.0733
14854TIP3    H165977   0.594   5.390  12.284  0.3734  0.3705 -0.0858
14854TIP3    H265978   0.443   5.382  12.293  0.4449 -0.7222  0.3855
14855TIP3   OH265979   1.182   4.676  11.446  0.0886 -0.1532 -0.0940
14855TIP3    H165980   1.220   4.702  11.530 -0.1801 -0.1202  0.0201
14855TIP3    H265981   1.236   4.603  11.416  0.4073  0.0685 -0.0675
14856TIP3   OH265982   1.833   2.156  16.806  0.2910 -0.5095  0.4457
14856TIP3    H165983   1.847   2.246  16.837  1.6438  0.8517 -3.5734
14856TIP3    H265984   1.888   2.148  16.729 -2.1820 -3.7456 -1.2257
14857TIP3   OH265985   5.656   1.259  15.585 -0.1220  0.8853  0.2748
14857TIP3    H165986   5.577   1.300  15.620 -0.9116  1.4635 -2.0200
14857TIP3    H265987   5.693   1.325  15.527 -0.2683 -0.8596 -1.9087
14858TIP3   OH265988   3.251   1.205   2.197 -0.3172 -0.0912  0.1572
14858TIP3    H165989   3.173   1.164   2.235  0.0712 -0.3335  0.7076
14858TIP3    H265990   3.219   1.285   2.156 -0.9663 -0.5607 -0.2578
14859TIP3   OH265991   5.969   6.394  13.878  0.1212  0.2859 -0.0783
14859TIP3    H165992   6.033   6.355  13.818 -0.7097  0.3325 -1.0366
14859TIP3    H265993   5.986   6.488  13.874 -0.1396  0.3201 -0.5144
14860TIP3   OH265994   5.373   2.544   2.812 -0.6184  0.6541  0.3539
14860TIP3    H165995   5.359   2.569   2.721  0.0245  0.8243  0.2952
14860TIP3    H265996   5.423   2.617   2.849  1.8893 -0.8012  0.0081
14861TIP3   OH265997   1.094   1.637  15.017 -0.2790 -0.2011  0.1171
14861TIP3    H165998   1.122   1.621  15.107 -1.6554 -0.3570  0.5390
14861TIP3    H265999   1.108   1.553  14.973  2.2433  0.3895 -0.3733
14862TIP3   OH266000   6.006   0.080  13.743 -0.0855  0.2331 -0.7492
14862TIP3    H166001   6.073   0.144  13.720 -1.5142  1.7512 -0.9051
14862TIP3    H266002   5.952   0.072  13.664  0.1877 -1.3708 -0.8163
14863TIP3   OH266003   6.450   0.946   1.329 -0.4883 -0.1062 -0.0021
14863TIP3    H166004   6.451   1.041   1.339  1.4412 -0.1742  0.8157
14863TIP3    H266005   6.357   0.923   1.330 -1.1255  1.9545 -2.5598
14864TIP3   OH266006   1.657   1.030   5.076  0.4394  0.1181  0.5571
14864TIP3    H166007   1.734   0.974   5.068 -1.3462 -2.3829 -0.3414
14864TIP3    H266008   1.599   1.000   5.006 -2.1677  0.5702  2.4137
14865TIP3   OH266009   3.191   2.327  12.094 -0.5899 -0.3184  0.4378
14865TIP3    H166010   3.209   2.241  12.133  1.5989 -0.0177  0.2387
14865TIP3    H266011   3.177   2.309  12.001  0.1296 -0.4514  0.3490
14866TIP3   OH266012   4.569   3.078  12.131 -0.2037 -0.1173  0.3293
14866TIP3    H166013   4.547   3.061  12.223  0.3196 -0.1214  0.4577
14866TIP3    H266014   4.642   3.017  12.113  0.0724  0.2851  0.0803
14867TIP3   OH266015   1.863   2.709   4.459 -0.4155 -0.1695 -0.0992
14867TIP3    H166016   1.903   2.705   4.372 -0.6785 -0.9235 -0.1942
14867TIP3    H266017   1.784   2.761   4.446 -0.3526 -0.1158 -0.2741
14868TIP3   OH266018   1.163   5.883   3.426  0.1035 -0.4543  0.2831
14868TIP3    H166019   1.088   5.826   3.411  0.0839 -0.5511  0.7549
14868TIP3    H266020   1.187   5.914   3.338 -1.2705  0.5830  0.2415
14869TIP3   OH266021   6.100   4.282   5.313  0.1427 -0.1127 -0.5670
14869TIP3    H166022   6.133   4.206   5.361  1.1789  0.1156 -0.8829
14869TIP3    H266023   6.110   4.355   5.374  0.0006 -0.0796 -0.5829
14870TIP3   OH266024   4.104   4.964   5.568  0.3499 -0.2103 -0.5533
14870TIP3    H166025   4.147   4.889   5.610  1.7513  1.2207  0.7263
14870TIP3    H266026   4.011   4.945   5.574  0.6577 -1.5232  0.4101
14871TIP3   OH266027   3.228   1.669   5.445 -0.3989 -0.2162 -0.5414
14871TIP3    H166028   3.268   1.669   5.532  2.0318 -1.4130 -1.5475
14871TIP3    H266029   3.136   1.692   5.460 -0.2851 -1.2956  2.4141
14872TIP3   OH266030   3.957   4.496  14.743 -0.0632  0.5265  0.2554
14872TIP3    H166031   4.000   4.468  14.823 -0.6964 -2.3495 -0.2990
14872TIP3    H266032   3.894   4.563  14.771 -1.0970 -1.2330  2.3905
14873TIP3   OH266033   2.284   3.298  11.031 -0.1979  0.0646 -0.0545
14873TIP3    H166034   2.335   3.217  11.029 -0.2203  0.0603 -0.4553
14873TIP3    H266035   2.249   3.307  10.943 -0.1226  0.5598 -0.0382
14874TIP3   OH266036   4.417   1.779  12.822  0.3616  0.0090 -1.3215
14874TIP3    H166037   4.415   1.761  12.728  0.3153 -0.1649 -1.2871
14874TIP3    H266038   4.388   1.870  12.830 -0.2464 -0.1772 -1.4216
14875TIP3   OH266039   3.637   6.661  15.183  0.7714  0.3340  0.0050
14875TIP3    H166040   3.596   6.589  15.135  0.1541  1.0253 -0.5115
14875TIP3    H266041   3.597   6.657  15.270  0.2781  0.4392 -0.2168
14876TIP3   OH266042   1.017   0.136  12.244  0.2954  0.3309  0.0133
14876TIP3    H166043   1.049   0.204  12.303  1.6892  0.9575 -1.3931
14876TIP3    H266044   1.066   0.058  12.268  1.3432  0.7459 -0.6920
14877TIP3   OH266045   0.027   1.876  13.870 -0.2069  0.7351  0.5763
14877TIP3    H166046   0.089   1.886  13.798 -0.2086  1.3757  0.6590
14877TIP3    H266047   0.030   1.783  13.891  0.0681  0.6073 -0.0064
14878TIP3   OH266048   5.958   3.086   5.697 -0.4311  0.4027  0.1437
14878TIP3    H166049   6.034   3.117   5.747  0.3963 -1.0678 -0.1449
14878TIP3    H266050   5.920   3.017   5.752 -1.8830  1.4346  0.5105
14879TIP3   OH266051   0.758   3.312   1.826 -0.3070 -0.4385 -0.3458
14879TIP3    H166052   0.804   3.375   1.881 -0.5105 -0.1958 -0.4494
14879TIP3    H266053   0.740   3.359   1.745 -2.6982  0.2525  0.4789
14880TIP3   OH266054   6.323   5.694  13.981 -0.6543 -0.2417  0.0191
14880TIP3    H166055   6.346   5.773  14.029  0.3354 -0.2874 -0.3421
14880TIP3    H266056   6.354   5.710  13.892 -1.1734 -0.7204 -0.2559
14881TIP3   OH266057   2.960   0.738   1.051  0.4128 -0.2457 -0.0461
14881TIP3    H166058   2.938   0.773   0.964 -1.5618  0.1415  0.5415
14881TIP3    H266059   2.908   0.791   1.111 -0.5651 -2.3900  1.1241
14882TIP3   OH266060   6.559   2.856  12.564  0.0292 -0.1790 -0.1421
14882TIP3    H166061   6.539   2.947  12.589  0.8447 -0.0251 -0.0156
14882TIP3    H266062   6.651   2.859  12.536 -0.1653 -0.8221 -0.8666
14883TIP3   OH266063   6.338   4.974  16.842 -0.5635 -0.2229 -0.2923
14883TIP3    H166064   6.270   4.950  16.779 -0.3770 -0.8747 -0.2575
14883TIP3    H266065   6.342   5.070  16.838  0.3167 -0.2793 -2.2302
14884TIP3   OH266066   4.917   0.104  15.801 -0.0475 -0.1233 -0.1073
14884TIP3    H166067   4.917   0.010  15.819 -0.7543  0.1210  1.3649
14884TIP3    H266068   4.955   0.143  15.879 -2.2070  0.9516  0.4998
14885TIP3   OH266069   3.894   5.731  14.441 -0.0201 -0.1667 -0.2395
14885TIP3    H166070   3.811   5.764  14.475  0.6592  1.3011  0.0580
14885TIP3    H266071   3.895   5.638  14.466 -1.4526 -0.1509 -0.0438
14886TIP3   OH266072   6.430   1.041   4.164  0.4251  0.2311 -0.4567
14886TIP3    H166073   6.406   1.009   4.251  0.3175 -0.7606 -0.8387
14886TIP3    H266074   6.458   0.963   4.117 -0.1414  0.6542 -1.5159
14887TIP3   OH266075   1.751   6.239  16.404 -0.0896 -0.4142 -0.1255
14887TIP3    H166076   1.837   6.274  16.382 -0.6865  0.4249 -1.2436
14887TIP3    H266077   1.766   6.186  16.482  1.1140  1.2140  0.8219
14888TIP3   OH266078   3.285   4.964  13.980  0.6599  0.4049 -0.3688
14888TIP3    H166079   3.226   4.917  13.922 -1.7553  0.9008  1.4944
14888TIP3    H266080   3.319   4.897  14.039  2.3001  0.0656 -1.6466
14889TIP3   OH266081   5.047   4.861   1.097  0.6230 -0.2920  0.0155
14889TIP3    H166082   5.047   4.778   1.144 -1.9344 -0.1057  0.5070
14889TIP3    H266083   5.111   4.915   1.143  1.8129 -1.7192  0.1170
14890TIP3   OH266084   2.782   6.174   0.367  0.1360 -0.0213  0.2626
14890TIP3    H166085   2.752   6.134   0.449 -1.4396  0.9575  0.2137
14890TIP3    H266086   2.765   6.268   0.380  2.0594  0.4363 -0.3029
14891TIP3   OH266087   0.427   6.336   0.849 -0.0001 -0.7196  0.3486
14891TIP3    H166088   0.479   6.277   0.903  2.8224  0.3347 -1.0058
14891TIP3    H266089   0.438   6.303   0.760 -1.6053 -0.3763 -0.0021
14892TIP3   OH266090   2.731   2.658  15.087 -0.0710  0.0030  0.9756
14892TIP3    H166091   2.714   2.571  15.050  1.1312  0.0881  0.1498
14892TIP3    H266092   2.678   2.662  15.166 -0.4311 -1.3450  0.8214
14893TIP3   OH266093   6.181   1.135  15.360 -0.3560  0.1240  0.1439
14893TIP3    H166094   6.264   1.085  15.359  1.2931  2.6645 -1.0718
14893TIP3    H266095   6.120   1.079  15.312  1.0635 -1.2572 -0.1582
14894TIP3   OH266096   1.608   0.683  14.543 -0.9520  0.0561  0.4234
14894TIP3    H166097   1.523   0.648  14.517 -0.9142 -0.4792  0.9862
14894TIP3    H266098   1.665   0.605  14.548 -0.4999  0.3743  0.3114
14895TIP3   OH266099   4.625   6.598   3.806  0.2201  0.0648  0.0568
14895TIP3    H166100   4.685   6.672   3.821  0.5647 -0.0797 -0.5591
14895TIP3    H266101   4.658   6.529   3.863 -0.3576  0.5172  0.9516
14896TIP3   OH266102   2.081   0.931  14.256 -0.6555 -0.0707 -0.2091
14896TIP3    H166103   1.992   0.941  14.290  0.0214  1.3104  1.2980
14896TIP3    H266104   2.103   1.017  14.220  0.4866 -0.0352  0.5271
14897TIP3   OH266105   6.686   1.153  17.184  0.0068 -0.3403  0.4715
14897TIP3    H166106   6.716   1.080  17.130 -1.5445  2.0135 -4.1793
14897TIP3    H266107   6.590   1.145  17.183 -0.1593  1.3216  0.4585
14898TIP3   OH266108   4.851   5.702   5.244 -0.2135  0.1321  0.1159
14898TIP3    H166109   4.840   5.713   5.338  0.1068  1.2259  0.0416
14898TIP3    H266110   4.945   5.691   5.231 -0.2535 -0.0047 -0.0725
14899TIP3   OH266111   4.277   0.487   2.692 -0.3030  0.2644 -0.2193
14899TIP3    H166112   4.229   0.441   2.761  0.3041 -0.1979 -0.1062
14899TIP3    H266113   4.215   0.490   2.619 -0.4725 -0.4095 -0.1081
14900TIP3   OH266114   1.385   4.310  15.853 -0.6984  0.0485 -0.3301
14900TIP3    H166115   1.331   4.360  15.792 -1.0193  0.2583  0.1271
14900TIP3    H266116   1.458   4.368  15.874 -0.1229 -0.3442 -1.1789
14901TIP3   OH266117   2.485   3.949   6.014  0.5124 -0.0651 -0.1323
14901TIP3    H166118   2.405   3.963   6.064 -0.2146 -1.1769 -0.9163
14901TIP3    H266119   2.476   4.006   5.938  1.8012  1.9279  1.1255
14902TIP3   OH266120   1.736   6.758  11.625  0.0302 -1.1706 -0.4362
14902TIP3    H166121   1.786   6.758  11.543  0.1468  0.2014 -0.3763
14902TIP3    H266122   1.799   6.782  11.692 -0.6133  0.2666 -0.3172
14903TIP3   OH266123   1.203   4.923  14.145 -0.1291  0.5778  0.1697
14903TIP3    H166124   1.213   4.861  14.217 -0.5590 -0.0661 -0.3152
14903TIP3    H266125   1.115   4.958  14.155 -0.3514  0.1543 -0.3000
14904TIP3   OH266126   0.291   0.867   5.386  0.8885 -0.2258  0.1850
14904TIP3    H166127   0.338   0.897   5.464 -0.3983 -0.4923  1.0929
14904TIP3    H266128   0.331   0.917   5.315  1.3708  0.8285  1.1498
14905TIP3   OH266129   2.636   6.770  16.014 -0.0555  0.3318 -0.8902
14905TIP3    H166130   2.554   6.736  15.977  0.3878  0.2547 -1.8477
14905TIP3    H266131   2.640   6.860  15.983  0.3912  0.2249 -1.1493
14906TIP3   OH266132   2.867   6.229   0.786 -0.4660  0.5933  0.5936
14906TIP3    H166133   2.960   6.215   0.771 -0.1836  0.8911  1.9228
14906TIP3    H266134   2.843   6.165   0.853 -0.6792  1.9755  1.9042
14907TIP3   OH266135   6.195   1.776  11.725 -0.7139  0.6172  0.1715
14907TIP3    H166136   6.164   1.772  11.816 -1.2853  1.9552  0.0503
14907TIP3    H266137   6.175   1.865  11.696  1.6247  0.9844 -0.5063
14908TIP3   OH266138   3.832   4.687  15.767 -0.7132 -0.3019  0.1757
14908TIP3    H166139   3.752   4.657  15.724 -0.5124  0.4601 -0.7662
14908TIP3    H266140   3.887   4.609  15.773 -1.7097 -0.9484  1.3035
14909TIP3   OH266141   6.394   1.862  12.995 -0.0321 -0.5701 -0.1968
14909TIP3    H166142   6.366   1.799  13.061 -1.3769 -0.5793 -0.7484
14909TIP3    H266143   6.490   1.854  12.992  0.2477  0.4718  2.8062
14910TIP3   OH266144   6.367   2.605  14.352 -0.1581  0.0053  0.5665
14910TIP3    H166145   6.419   2.529  14.327 -2.2223 -0.3668 -3.3912
14910TIP3    H266146   6.341   2.588  14.442  1.1735 -2.9393  0.4890
14911TIP3   OH266147   4.387   4.030  15.221 -0.0073  0.5438  0.1442
14911TIP3    H166148   4.332   3.958  15.250 -0.1125  0.7281  0.4079
14911TIP3    H266149   4.372   4.035  15.127  1.5482 -1.0821 -0.2432
14912TIP3   OH266150   4.036   3.710   1.401  0.3091  0.1147  0.4196
14912TIP3    H166151   4.128   3.685   1.395  0.2202 -0.0990 -0.1164
14912TIP3    H266152   4.033   3.800   1.370  0.3933  0.2642  0.8325
14913TIP3   OH266153   0.330   4.191   5.631  0.5847 -0.3752  0.2254
14913TIP3    H166154   0.247   4.234   5.653 -0.0049 -2.7081  3.3142
14913TIP3    H266155   0.309   4.136   5.555 -0.3968 -0.0229  0.2247
14914TIP3   OH266156   4.101   6.440   2.072 -0.5248 -0.7628 -0.8902
14914TIP3    H166157   4.165   6.511   2.079 -0.0612 -1.0921 -1.5723
14914TIP3    H266158   4.041   6.469   2.003  0.8722 -1.8913 -2.6708
14915TIP3   OH266159   4.763   0.204   1.841 -0.2231  0.3811 -0.4147
14915TIP3    H166160   4.702   0.231   1.773  0.9205 -0.2870 -1.7621
14915TIP3    H266161   4.713   0.146   1.898 -1.2655  1.1602 -0.5239
14916TIP3   OH266162   5.427   0.798  15.545  0.3132  0.0597 -0.1001
14916TIP3    H166163   5.446   0.706  15.557 -1.7887 -0.5789 -1.0602
14916TIP3    H266164   5.416   0.808  15.451  0.1957  1.2057  0.0206
14917TIP3   OH266165   2.859   1.315   1.977  0.1946  0.0103 -0.2485
14917TIP3    H166166   2.894   1.397   1.942 -0.5453  0.8193  0.8690
14917TIP3    H266167   2.868   1.253   1.904  2.8003  0.4633 -0.4305
14918TIP3   OH266168   6.539   5.517  12.447 -0.5199 -0.1174  0.4702
14918TIP3    H166169   6.472   5.575  12.483 -1.2232  0.4300 -1.6209
14918TIP3    H266170   6.500   5.430  12.451 -1.1179  0.1182 -0.1966
14919TIP3   OH266171   0.098   2.580  14.699 -0.1171  0.2119  0.1277
14919TIP3    H166172   0.107   2.540  14.613 -0.8849  1.1875 -0.4329
14919TIP3    H266173   0.184   2.618  14.717 -0.3025  1.1551 -0.8374
14920TIP3   OH266174   6.652   0.386  14.548 -0.2834 -0.1450  0.1950
14920TIP3    H166175   6.695   0.304  14.575  0.5046  0.5384  1.0912
14920TIP3    H266176   6.720   0.453  14.558 -0.5185  0.4520 -1.7893
14921TIP3   OH266177   6.669   5.968  11.921 -0.1407 -0.1410  0.1949
14921TIP3    H166178   6.734   5.898  11.913 -1.5660 -1.4442 -0.4708
14921TIP3    H266179   6.673   5.995  12.012  0.2840 -1.2427  0.5148
14922TIP3   OH266180   1.380   0.546   0.709  0.4263 -0.1857 -0.4918
14922TIP3    H166181   1.379   0.640   0.688  0.2252 -0.0279  0.1920
14922TIP3    H266182   1.365   0.503   0.625  3.1726  0.2785 -1.3097
14923TIP3   OH266183   5.334   2.959   1.263  0.7692  0.4108 -0.1687
14923TIP3    H166184   5.290   2.926   1.185  1.0233  0.1984 -0.2238
14923TIP3    H266185   5.362   2.881   1.310  0.0131  0.5156  0.4916
14924TIP3   OH266186   4.412   1.877  15.628  0.4444  0.2988 -0.2697
14924TIP3    H166187   4.363   1.881  15.546 -1.1966  0.8009  0.6867
14924TIP3    H266188   4.403   1.964  15.666 -0.4752 -0.4535  1.3466
14925TIP3   OH266189   3.756   3.004  13.333 -0.4204 -0.3521  0.6898
14925TIP3    H166190   3.703   2.983  13.256 -3.1123  0.7211  2.1057
14925TIP3    H266191   3.797   2.921  13.358  0.2721 -0.7884 -1.6518
14926TIP3   OH266192   4.250   5.841   5.084  0.0046 -0.2743  0.5475
14926TIP3    H166193   4.204   5.839   5.168 -0.8021 -0.7176  0.1086
14926TIP3    H266194   4.290   5.754   5.077 -2.0053 -1.1898 -0.6167
14927TIP3   OH266195   4.426   2.058   5.787  0.2271  0.1112 -0.2614
14927TIP3    H166196   4.407   2.108   5.708  1.7019 -1.5451 -1.7414
14927TIP3    H266197   4.349   2.070   5.842 -1.7656 -0.3508 -2.7845
14928TIP3   OH266198   3.551   2.950   3.951  0.2274 -0.3320 -0.1496
14928TIP3    H166199   3.612   2.879   3.933  1.0193 -0.2039  1.7921
14928TIP3    H266200   3.523   2.980   3.865  1.4511 -1.6355 -1.0455
14929TIP3   OH266201   3.815   1.853  12.379 -0.2687 -0.3809 -0.2125
14929TIP3    H166202   3.898   1.901  12.382 -0.8909  0.8423 -1.6149
14929TIP3    H266203   3.827   1.781  12.441  1.6213  0.1106  0.0475
14930TIP3   OH266204   6.143   3.723  16.145  0.1058  0.2272  0.7651
14930TIP3    H166205   6.200   3.747  16.072 -1.7705 -1.6265 -1.4974
14930TIP3    H266206   6.057   3.757  16.120 -0.5393 -0.1945  2.2848
14931TIP3   OH266207   3.930   4.755   3.850  0.1232  0.0198  0.3965
14931TIP3    H166208   3.933   4.758   3.946 -0.2139  0.4510  0.3966
14931TIP3    H266209   3.840   4.732   3.829 -0.5428  2.5032  0.1606
14932TIP3   OH266210   4.358   4.183  14.246 -0.2150 -0.5829  0.3107
14932TIP3    H166211   4.353   4.267  14.291 -2.6390  0.5261 -1.8109
14932TIP3    H266212   4.447   4.180  14.209  0.2112  0.5831  1.2027
14933TIP3   OH266213   0.295   3.185  12.662  0.1682  0.0058 -0.4694
14933TIP3    H166214   0.251   3.248  12.719 -0.4329 -0.4534 -0.4171
14933TIP3    H266215   0.387   3.189  12.688  0.8233  3.2844 -2.6698
14934TIP3   OH266216   4.861   4.884  11.816 -0.6027 -0.0265 -0.1981
14934TIP3    H166217   4.811   4.815  11.861 -0.0618 -0.3307 -0.0466
14934TIP3    H266218   4.871   4.852  11.727 -0.0887 -0.2900 -0.0474
14935TIP3   OH266219   6.165   3.279  11.923 -0.0230  0.2842 -0.0249
14935TIP3    H166220   6.202   3.283  11.835 -1.2124  0.5076 -0.5386
14935TIP3    H266221   6.096   3.213  11.917 -2.3634  2.5623 -0.1867
14936TIP3   OH266222   6.735   4.237  16.899 -0.2796  0.1076  0.5773
14936TIP3    H166223   6.749   4.242  16.994  0.8219  1.3825  0.3715
14936TIP3    H266224   6.658   4.181  16.889  0.7208 -1.6562  2.1335
14937TIP3   OH266225   1.160   2.776  11.755 -0.1804  0.3537  0.3172
14937TIP3    H166226   1.167   2.866  11.723  0.3744  0.4536  0.7043
14937TIP3    H266227   1.110   2.783  11.836  0.6692  0.4453  0.8480
14938TIP3   OH266228   5.551   3.572  13.900 -0.3495  0.2411  0.1128
14938TIP3    H166229   5.641   3.548  13.923 -0.9841 -0.9070  1.5096
14938TIP3    H266230   5.546   3.557  13.806  0.4258 -1.4091  0.2961
14939TIP3   OH266231   2.592   2.428   4.834  0.1811 -0.0725 -0.0161
14939TIP3    H166232   2.510   2.469   4.862 -0.8143 -0.9823 -1.4791
14939TIP3    H266233   2.569   2.377   4.757  1.8669 -1.4119  0.2899
14940TIP3   OH266234   2.945   2.487   0.478 -0.6462 -0.0499  0.3714
14940TIP3    H166235   3.023   2.502   0.531  0.2501  1.4525 -1.2715
14940TIP3    H266236   2.892   2.566   0.490 -2.5885 -1.5509  2.4405
14941TIP3   OH266237   1.056   6.451  13.726 -0.8701 -0.1586  0.6474
14941TIP3    H166238   1.030   6.540  13.752  0.6471  0.4654  0.1445
14941TIP3    H266239   1.007   6.435  13.645  0.8034  1.3153 -0.7356
14942TIP3   OH266240   4.440   1.044  14.415  0.2888  0.4987  0.2488
14942TIP3    H166241   4.478   1.078  14.496 -0.5195  2.1413 -0.0274
14942TIP3    H266242   4.513   1.046  14.353  0.4966  0.8594  0.4964
14943TIP3   OH266243   3.599   1.845   1.729 -0.2341  0.1061  0.0530
14943TIP3    H166244   3.610   1.932   1.690  1.1923  0.2241  0.6564
14943TIP3    H266245   3.602   1.785   1.655 -0.5358  0.5151 -0.2978
14944TIP3   OH266246   0.511   4.333  13.257  0.3398 -0.4381  0.1012
14944TIP3    H166247   0.430   4.290  13.230 -1.4082  2.6117  0.0623
14944TIP3    H266248   0.482   4.408  13.309  3.0860  1.3820 -0.7828
14945TIP3   OH266249   2.511   4.456   1.932  0.3543  0.6279 -0.0378
14945TIP3    H166250   2.439   4.415   1.884  0.7258  0.9147 -0.8575
14945TIP3    H266251   2.567   4.493   1.864  1.7256 -0.3148  0.5349
14946TIP3   OH266252   4.216   5.577  13.810  0.1990 -0.1314  0.2559
14946TIP3    H166253   4.239   5.601  13.900 -1.6347 -0.5767  0.8989
14946TIP3    H266254   4.263   5.496  13.793  0.8175  0.1307  0.6801
14947TIP3   OH266255   0.154   1.226   4.297 -0.5300 -0.3054  0.2980
14947TIP3    H166256   0.157   1.296   4.362 -1.5797 -1.5584  1.7892
14947TIP3    H266257   0.241   1.187   4.301 -0.8812 -1.0483  1.8277
14948TIP3   OH266258   3.198   0.168   1.155 -0.1186  0.8382 -0.0939
14948TIP3    H166259   3.106   0.186   1.175 -0.7515  0.8434 -2.6175
14948TIP3    H266260   3.214   0.081   1.190 -1.1495  0.7423  0.1794
14949TIP3   OH266261   3.474   2.633  14.971  0.3739  0.1142  0.1196
14949TIP3    H166262   3.493   2.637  15.064  3.8270 -0.3967 -0.4416
14949TIP3    H266263   3.446   2.722  14.948 -0.0544  0.3561  1.5226
14950TIP3   OH266264   2.216   5.987   3.199 -0.2783  0.1795 -0.2797
14950TIP3    H166265   2.173   5.906   3.226 -0.4022  0.3139 -0.0712
14950TIP3    H266266   2.148   6.055   3.208 -0.3034  0.2335 -0.8772
14951TIP3   OH266267   0.527   2.006  11.941 -0.7234  0.1525 -0.1468
14951TIP3    H166268   0.436   2.000  11.914 -0.9795 -2.2964  0.9642
14951TIP3    H266269   0.524   2.000  12.037  0.5714  0.3909 -0.0722
14952TIP3   OH266270   6.600   5.041  14.043  0.1442  0.2966 -0.2812
14952TIP3    H166271   6.546   5.022  14.119 -0.3319  1.0330 -0.4200
14952TIP3    H266272   6.658   5.112  14.073  0.9584 -0.4044 -0.1692
14953TIP3   OH266273   3.397   4.598   4.390  0.2302 -0.1422 -0.6215
14953TIP3    H166274   3.302   4.604   4.396  0.2758 -0.3692  0.5133
14953TIP3    H266275   3.413   4.534   4.321 -0.4607 -1.1459  0.1224
14954TIP3   OH266276   3.918   3.357  12.887  0.1410  0.3741  0.4959
14954TIP3    H166277   3.832   3.398  12.890  0.3349  1.0727 -1.6056
14954TIP3    H266278   3.975   3.423  12.849  0.6756 -1.3851 -2.0804
14955TIP3   OH266279   6.066   2.788   5.876  0.4972  0.0686  0.3158
14955TIP3    H166280   6.087   2.804   5.784  1.7583 -0.2287  0.5297
14955TIP3    H266281   6.065   2.874   5.917 -0.1606  0.2097  0.0134
14956TIP3   OH266282   6.563   5.134   1.636  0.0219  0.0467  0.0323
14956TIP3    H166283   6.473   5.155   1.611  0.2307 -0.0954 -0.8620
14956TIP3    H266284   6.554   5.063   1.699 -0.5918  1.4056  1.5658
14957TIP3   OH266285   2.300   5.191  12.886 -0.2965  0.1826  0.0472
14957TIP3    H166286   2.314   5.121  12.950  1.3867  0.6488  0.2377
14957TIP3    H266287   2.274   5.267  12.938  1.4678  0.6730  0.2639
14958TIP3   OH266288   0.791   3.371   5.282  0.3464 -0.2556  0.0125
14958TIP3    H166289   0.721   3.326   5.235 -0.6398 -0.3450  1.5151
14958TIP3    H266290   0.848   3.301   5.314  0.7899 -0.2150 -0.6602
14959TIP3   OH266291   5.064   5.924   3.957  0.1953 -0.1742  0.3303
14959TIP3    H166292   5.156   5.908   3.974  0.6618  2.1024  0.2625
14959TIP3    H266293   5.034   5.978   4.030 -0.3729  1.2597 -0.8932
14960TIP3   OH266294   3.821   4.206  13.790  0.0879 -0.4386  0.4050
14960TIP3    H166295   3.906   4.235  13.756  0.1689 -0.6786  0.4010
14960TIP3    H266296   3.804   4.124  13.745  0.0270 -0.5772  0.6783
14961TIP3   OH266297   2.596   5.021  13.435  0.1448  0.0752  0.0007
14961TIP3    H166298   2.570   5.019  13.527  0.9075  0.3677  0.2300
14961TIP3    H266299   2.608   5.114  13.415 -2.1567  0.2396 -1.0334
14962TIP3   OH266300   3.063   1.458   3.128 -0.2645  0.4962 -0.1411
14962TIP3    H166301   3.137   1.400   3.142 -0.9160 -0.6696 -1.3426
14962TIP3    H266302   3.050   1.502   3.213  0.0050 -1.3859  0.9294
14963TIP3   OH266303   1.123   5.273  11.371  0.7130 -0.3943  0.2760
14963TIP3    H166304   1.158   5.184  11.376  1.5471 -0.1621 -0.9280
14963TIP3    H266305   1.197   5.326  11.344 -0.0389  0.4818 -0.1253
14964TIP3   OH266306   5.205   2.511   1.737  0.3229 -0.2087 -0.0891
14964TIP3    H166307   5.265   2.586   1.744  0.9241 -0.7221  0.3475
14964TIP3    H266308   5.118   2.550   1.748  0.7574  0.0901  3.2069
14965TIP3   OH266309   6.486   1.160  12.036 -0.0625 -0.3271 -0.4353
14965TIP3    H166310   6.513   1.196  11.951  0.9533 -1.8080 -0.7747
14965TIP3    H266311   6.544   1.085  12.049 -0.9378 -0.7658  1.0739
14966TIP3   OH266312   0.078   4.123   2.583  0.1928 -0.4604 -0.0092
14966TIP3    H166313   0.052   4.215   2.585  1.0556 -0.2254  0.9770
14966TIP3    H266314   0.089   4.099   2.675 -0.6438 -1.7473 -0.2181
14967TIP3   OH266315   5.904   0.808   5.684  0.5744 -0.5679 -0.4996
14967TIP3    H166316   5.979   0.779   5.632  1.0284 -2.3022  1.0104
14967TIP3    H266317   5.885   0.734   5.742 -0.7737  0.7499  0.8353
14968TIP3   OH266318   4.405   0.314   3.131  0.1993  0.0121 -0.6297
14968TIP3    H166319   4.491   0.353   3.145 -0.7181  1.6511  0.9657
14968TIP3    H266320   4.403   0.291   3.038  2.7993 -1.3028 -0.4250
14969TIP3   OH266321   1.988   5.625   1.060  0.4692 -0.3741  0.0999
14969TIP3    H166322   2.034   5.675   0.992 -0.2751  1.4439  0.8644
14969TIP3    H266323   1.897   5.622   1.031  0.2248  0.0448  0.7966
14970TIP3   OH266324   6.683   1.350   6.194  0.3872  0.9100  0.2103
14970TIP3    H166325   6.697   1.388   6.281  2.7736  1.9116 -0.5132
14970TIP3    H266326   6.755   1.288   6.184 -1.8223 -1.8667  0.2271
14971TIP3   OH266327   3.569   4.111   3.028 -0.0403 -0.2426 -0.0579
14971TIP3    H166328   3.597   4.100   3.119  1.5715  0.0945 -0.4749
14971TIP3    H266329   3.514   4.190   3.030 -0.3087 -0.4376  0.6759
14972TIP3   OH266330   0.161   2.758  14.369  0.1100 -0.5480 -0.3871
14972TIP3    H166331   0.192   2.842  14.404  1.6787 -1.5565  0.7971
14972TIP3    H266332   0.065   2.768  14.365  0.2894  1.5316 -1.0087
14973TIP3   OH266333   0.887   3.661   5.003  0.2408 -0.1559 -0.5994
14973TIP3    H166334   0.921   3.736   4.955  1.6718 -0.0512  0.4974
14973TIP3    H266335   0.792   3.666   4.991  0.0601  2.9250  0.8747
14974TIP3   OH266336   1.254   1.309  11.270  0.1151  0.5350  0.0853
14974TIP3    H166337   1.315   1.377  11.240 -0.4851  0.4128 -1.4877
14974TIP3    H266338   1.215   1.274  11.190  0.4799 -1.7594  0.8253
14975TIP3   OH266339   4.243   5.103   3.062 -0.1031  0.2171  0.4783
14975TIP3    H166340   4.244   5.196   3.038 -1.1818  0.6080  1.8429
14975TIP3    H266341   4.189   5.099   3.140 -1.2005 -1.7708 -0.3206
14976TIP3   OH266342   4.110   5.120  11.329  0.0880  0.0951 -0.3039
14976TIP3    H166343   4.095   5.170  11.249  2.3657  1.8326  0.2322
14976TIP3    H266344   4.088   5.182  11.399  1.2086 -0.2687  0.3904
14977TIP3   OH266345   4.930   6.484   3.374  0.0347 -0.0933  0.2158
14977TIP3    H166346   4.836   6.474   3.388 -0.0809 -0.1432 -0.5555
14977TIP3    H266347   4.940   6.489   3.279  0.5774  2.3196  0.3279
14978TIP3   OH266348   4.882   3.066   0.711  0.0328 -0.2084 -0.1840
14978TIP3    H166349   4.905   2.987   0.662  0.7804 -0.4320  0.5121
14978TIP3    H266350   4.942   3.132   0.678  0.9150 -0.4986  0.8110
14979TIP3   OH266351   1.069   1.523  14.274 -0.3622 -0.3384 -0.7831
14979TIP3    H166352   0.994   1.581  14.286 -0.0815 -0.1373  0.0549
14979TIP3    H266353   1.030   1.435  14.273 -0.4010 -0.4891  2.6061
14980TIP3   OH266354   5.205   1.173  14.066 -0.3156 -0.1538 -0.3353
14980TIP3    H166355   5.122   1.185  14.020 -0.9363 -2.0228  0.1891
14980TIP3    H266356   5.247   1.259  14.063 -2.2281  0.8240 -0.6881
14981TIP3   OH266357   0.346   6.656  11.324 -0.4484  0.1070 -0.2629
14981TIP3    H166358   0.426   6.697  11.290  0.0890 -0.3464  0.4259
14981TIP3    H266359   0.278   6.721  11.308  0.3283  1.1441  0.5218
14982TIP3   OH266360   2.904   3.731   1.164  0.3551  0.4149  0.0155
14982TIP3    H166361   2.975   3.735   1.228  1.2362  2.1953 -0.9719
14982TIP3    H266362   2.936   3.783   1.090  0.2570 -3.1109 -2.7931
14983TIP3   OH266363   4.535   0.943   3.398  0.5994 -0.5885 -0.7982
14983TIP3    H166364   4.498   0.983   3.477 -1.3297 -0.4181 -1.7326
14983TIP3    H266365   4.476   0.870   3.377  1.8227 -1.4550 -1.3633
14984TIP3   OH266366   5.938   3.604   4.743  0.2123 -0.0948  0.2409
14984TIP3    H166367   5.945   3.557   4.826 -1.3545 -0.5041  0.1719
14984TIP3    H266368   5.946   3.696   4.767 -0.3786 -0.2008  0.8743
14985TIP3   OH266369   5.068   4.241   5.642 -0.1347 -0.1102 -0.3064
14985TIP3    H166370   5.041   4.193   5.564 -0.0340  0.5122 -0.7346
14985TIP3    H266371   5.015   4.204   5.713 -0.4372 -0.4833 -0.7201
14986TIP3   OH266372   0.478   3.772   3.867 -0.0907  0.1505  0.9887
14986TIP3    H166373   0.407   3.722   3.826 -0.6343  1.7922 -0.1612
14986TIP3    H266374   0.539   3.705   3.897 -0.9811 -1.2318 -0.1276
14987TIP3   OH266375   6.419   4.721  16.502 -0.4060 -0.5754 -0.1003
14987TIP3    H166376   6.362   4.674  16.441 -0.3240  0.6360 -1.1453
14987TIP3    H266377   6.373   4.716  16.586 -2.1058  0.3715 -0.9085
14988TIP3   OH266378   2.911   6.755   3.639 -0.5268  0.0115 -0.2500
14988TIP3    H166379   2.978   6.700   3.598  0.7274 -0.5814  2.4028
14988TIP3    H266380   2.839   6.695   3.657 -0.2358 -0.1935  0.2498
14989TIP3   OH266381   5.246   2.483  13.239  0.6917 -0.3225  0.0547
14989TIP3    H166382   5.208   2.452  13.322  0.6072 -2.5300 -0.7265
14989TIP3    H266383   5.173   2.523  13.193  0.7980  1.1807  1.1294
14990TIP3   OH266384   3.400   5.913  13.367 -0.3955  0.0118  0.1188
14990TIP3    H166385   3.337   5.858  13.319  2.6920 -2.9761 -0.9404
14990TIP3    H266386   3.401   5.877  13.455  0.2346 -0.3972 -0.0467
14991TIP3   OH266387   2.504   3.009  10.734  0.2787  0.1673  0.5689
14991TIP3    H166388   2.572   2.949  10.767  0.6860  0.3298  0.0473
14991TIP3    H266389   2.522   3.016  10.640  0.3138  1.2034  0.6407
14992TIP3   OH266390   1.748   5.581   2.409  0.6391  0.4893 -0.3592
14992TIP3    H166391   1.734   5.626   2.492 -0.0420 -1.4344  0.6231
14992TIP3    H266392   1.732   5.648   2.342  1.6029  2.1855  1.0269
14993TIP3   OH266393   0.711   4.634  15.626  0.3935 -0.0051 -0.2568
14993TIP3    H166394   0.702   4.710  15.684 -2.1537 -1.1755  1.0482
14993TIP3    H266395   0.732   4.561  15.685  0.3594 -0.7652 -1.1706
14994TIP3   OH266396   5.025   0.036   3.634 -0.1654  0.2342 -0.0731
14994TIP3    H166397   5.003   0.097   3.563 -0.6922  0.1228 -0.0148
14994TIP3    H266398   5.051   0.091   3.707 -3.5401  0.6294  1.0179
14995TIP3   OH266399   5.050   4.305  13.998 -0.4544  0.3431  0.2772
14995TIP3    H166400   4.969   4.296  13.947 -0.4641  1.3404  0.1125
14995TIP3    H266401   5.116   4.258  13.946 -1.2158 -1.8740  1.1736
14996TIP3   OH266402   6.330   2.265  14.934 -0.2144 -0.9462 -0.4024
14996TIP3    H166403   6.401   2.322  14.963 -1.1230  0.1774 -0.3216
14996TIP3    H266404   6.363   2.224  14.854 -0.0283  0.7274 -1.2224
14997TIP3   OH266405   0.452   0.920  11.091  0.1935  0.3052  0.2533
14997TIP3    H166406   0.419   0.973  11.018  1.4798  1.0032  0.1317
14997TIP3    H266407   0.494   0.845  11.049 -0.4041 -0.1008  0.3645
14998TIP3   OH266408   0.256   4.383  15.457 -0.4173 -0.2445  0.6828
14998TIP3    H166409   0.303   4.459  15.494 -1.3509  0.8496 -0.2806
14998TIP3    H266410   0.273   4.389  15.363 -1.9264 -0.1845  0.3873
14999TIP3   OH266411   2.156   3.997  14.411  0.2175  0.1057 -0.2382
14999TIP3    H166412   2.075   4.014  14.363 -0.2226 -1.7210 -0.2379
14999TIP3    H266413   2.158   4.064  14.480 -3.2785 -1.8591  2.1173
15000TIP3   OH266414   3.525   4.518   5.679 -0.7331 -0.0085 -0.2447
15000TIP3    H166415   3.581   4.475   5.742 -2.4761  0.0263  1.4218
15000TIP3    H266416   3.540   4.471   5.597  2.1039  0.4007 -0.0354
15001TIP3   OH266417   0.256   5.068   5.948  0.3885  0.0694 -0.5603
15001TIP3    H166418   0.227   4.993   6.001  0.1802  0.9588  0.6285
15001TIP3    H266419   0.175   5.105   5.913  0.4038  0.3014 -0.3544
15002TIP3   OH266420   2.251   1.882   0.679 -0.0453  0.7330  0.3055
15002TIP3    H166421   2.180   1.821   0.657 -1.1795  1.9493  0.4300
15002TIP3    H266422   2.330   1.829   0.677 -0.8099 -0.4365 -1.0097
15003TIP3   OH266423   3.313   6.464  13.506  0.5059 -0.0056  0.1800
15003TIP3    H166424   3.389   6.411  13.484  1.5223  1.4858 -0.0731
15003TIP3    H266425   3.289   6.507  13.424 -0.4058 -0.1970  0.3370
15004TIP3   OH266426   1.404   5.211   5.306  0.5130 -0.3783  0.5702
15004TIP3    H166427   1.324   5.231   5.257  2.9477  0.8460 -3.2955
15004TIP3    H266428   1.440   5.297   5.330  1.9167 -0.7773 -0.0069
15005TIP3   OH266429   1.011   6.733  11.085 -0.4707  0.2225  0.3770
15005TIP3    H166430   1.025   6.787  11.008  0.6236  0.0378  0.4305
15005TIP3    H266431   1.025   6.643  11.055 -0.1650  0.1372  0.7649
15006TIP3   OH266432   2.136   1.120   3.881 -0.5357 -0.1665  0.5061
15006TIP3    H166433   2.147   1.026   3.869  1.5488  0.2637 -1.9604
15006TIP3    H266434   2.046   1.138   3.853 -0.6351 -1.2957  0.0604
15007TIP3   OH266435   5.476   2.641   1.770  0.3047  0.0399  0.5187
15007TIP3    H166436   5.539   2.657   1.700 -0.7211 -1.2798 -0.7848
15007TIP3    H266437   5.444   2.727   1.795  1.1252  0.5693 -0.2340
15008TIP3   OH266438   3.627   6.450  11.006  0.2619 -0.2487  0.4409
15008TIP3    H166439   3.657   6.511  11.073  0.5646 -0.3361  0.3861
15008TIP3    H266440   3.688   6.376  11.012  0.4855 -0.1125 -0.1568
15009TIP3   OH266441   1.536   4.613  14.603 -0.5900 -0.4569 -0.1326
15009TIP3    H166442   1.608   4.670  14.573 -1.2269  0.3957 -0.0872
15009TIP3    H266443   1.509   4.566  14.525 -0.0574 -0.7074 -0.1731
15010TIP3   OH266444   5.674   2.360   3.387 -0.1101 -0.3226 -0.2798
15010TIP3    H166445   5.623   2.408   3.322  1.3478  1.5946 -0.0711
15010TIP3    H266446   5.695   2.424   3.454  0.5559 -1.6493  0.8342
15011TIP3   OH266447   5.896   5.136   5.498  0.0910 -0.1506  0.2229
15011TIP3    H166448   5.861   5.169   5.415 -0.7472 -1.9705 -0.1743
15011TIP3    H266449   5.984   5.105   5.476 -0.3089 -1.0660 -0.0937
15012TIP3   OH266450   4.184   5.426  15.876  0.0304 -0.2140  0.0067
15012TIP3    H166451   4.171   5.404  15.968  1.9819 -1.6387 -0.0070
15012TIP3    H266452   4.163   5.346  15.829  0.6895 -0.0171 -0.6448
15013TIP3   OH266453   1.479   6.435  11.520  0.0982 -0.0644 -0.0994
15013TIP3    H166454   1.435   6.516  11.495  0.4979 -0.1774 -1.1925
15013TIP3    H266455   1.469   6.431  11.615 -5.2551 -1.7705 -0.4034
15014TIP3   OH266456   6.723   0.089  16.315 -0.2342  0.0502 -0.3288
15014TIP3    H166457   6.655   0.085  16.248 -2.3762 -0.3489  1.7400
15014TIP3    H266458   6.709   0.010  16.367  1.1721  0.4939  0.7687
15015TIP3   OH266459   4.067   1.360   4.362  0.1436 -0.1594  0.2338
15015TIP3    H166460   4.125   1.435   4.348  0.7467 -0.6771 -0.1310
15015TIP3    H266461   4.111   1.308   4.429 -0.0290 -0.4270  0.1401
15016TIP3   OH266462   1.679   0.876   4.813  0.3958 -0.1793  0.0355
15016TIP3    H166463   1.625   0.953   4.829 -0.4755 -1.2188  2.5219
15016TIP3    H266464   1.617   0.804   4.807  1.3270 -0.9878 -0.0933
15017TIP3   OH266465   3.982   3.565  14.196  0.2747 -0.1879 -0.6084
15017TIP3    H166466   4.037   3.600  14.265  0.1215 -0.8316 -0.1494
15017TIP3    H266467   3.968   3.638  14.136  1.3219  0.0748 -0.5388
15018TIP3   OH266468   6.491   5.541   1.052  0.1734  0.0460 -0.1218
15018TIP3    H166469   6.459   5.606   0.990 -0.7105 -0.7502 -0.5255
15018TIP3    H266470   6.509   5.591   1.132  0.8931  1.0058 -0.8650
15019TIP3   OH266471   2.915   0.167  13.573  0.4562  0.0466  0.1593
15019TIP3    H166472   2.977   0.230  13.610  0.5090 -0.3747  0.7956
15019TIP3    H266473   2.914   0.095  13.636 -1.6932  0.6273  0.8874
15020TIP3   OH266474   5.852   3.818  16.052  0.1724 -0.0720 -0.2495
15020TIP3    H166475   5.826   3.889  16.111 -1.0614 -0.0407 -0.8118
15020TIP3    H266476   5.793   3.746  16.072 -0.0439 -0.1768 -1.2095
15021TIP3   OH266477   5.030   2.189  11.645 -0.2646  0.3761  0.3689
15021TIP3    H166478   4.960   2.125  11.632  0.2637 -0.2018  0.3076
15021TIP3    H266479   5.018   2.220  11.735  0.3582 -0.9358  0.9396
15022TIP3   OH266480   3.321   6.203   4.220 -0.4611  0.0536  0.0328
15022TIP3    H166481   3.327   6.299   4.223 -1.0004  0.0678  1.9720
15022TIP3    H266482   3.404   6.175   4.182 -0.5179  1.2947 -1.0887
15023TIP3   OH266483   1.320   1.732   4.164  0.4440  0.5244  0.5023
15023TIP3    H166484   1.407   1.696   4.148  0.7608  0.2904  2.4234
15023TIP3    H266485   1.260   1.669   4.125  1.1195  0.4183 -0.3887
15024TIP3   OH266486   2.680   2.810  14.062 -0.0621 -0.2185  0.2679
15024TIP3    H166487   2.693   2.845  14.151  1.5295 -0.1252  0.0349
15024TIP3    H266488   2.622   2.873  14.020 -0.5556 -0.0755  1.1301
15025TIP3   OH266489   6.048   1.427  12.517  0.0091  0.6089 -0.5664
15025TIP3    H166490   6.038   1.413  12.611 -0.0919 -0.3419 -0.7172
15025TIP3    H266491   6.088   1.514  12.511  0.4850  0.4757  0.3753
15026TIP3   OH266492   4.285   1.204  16.915 -0.2072  0.2696 -0.3171
15026TIP3    H166493   4.298   1.109  16.908  0.1269  0.0726  2.1698
15026TIP3    H266494   4.352   1.241  16.858 -1.0060 -0.9446 -2.1598
15027TIP3   OH266495   6.236   4.956  14.483  0.0241 -0.3887 -0.0282
15027TIP3    H166496   6.164   4.972  14.544 -0.3095  0.4965 -0.6399
15027TIP3    H266497   6.197   4.960  14.396  1.1563  2.5355 -0.5205
15028TIP3   OH266498   1.180   1.736   4.695  0.4066 -0.4012 -0.3177
15028TIP3    H166499   1.144   1.795   4.762 -0.5881 -0.3672 -0.8631
15028TIP3    H266500   1.262   1.777   4.669 -0.9484  1.6252 -1.7531
15029TIP3   OH266501   6.042   6.621   0.417 -0.0106  0.2605 -0.0005
15029TIP3    H166502   6.051   6.527   0.402 -1.5863 -0.1155  1.1418
15029TIP3    H266503   5.950   6.640   0.398 -0.3271  1.0714  2.0659
15030TIP3   OH266504   6.553   1.259  13.275 -0.1501 -0.5936 -0.2187
15030TIP3    H166505   6.616   1.301  13.216 -0.9942  0.7764 -0.1796
15030TIP3    H266506   6.592   1.271  13.362 -1.0747  1.5251 -0.0337
15031TIP3   OH266507   4.271   1.291  16.188 -0.3973  0.2510  0.3336
15031TIP3    H166508   4.275   1.322  16.098  1.7695 -2.1563 -0.4972
15031TIP3    H266509   4.260   1.197  16.182 -0.2333  0.0210  2.5851
15032TIP3   OH266510   4.390   5.038   2.367 -0.3415  0.0772 -0.1311
15032TIP3    H166511   4.317   5.037   2.429 -2.0746 -0.1379 -2.0589
15032TIP3    H266512   4.463   5.075   2.417 -2.2826  2.2595  1.3406
15033TIP3   OH266513   5.597   1.958  13.044  0.4324  0.4101 -1.1172
15033TIP3    H166514   5.684   1.936  13.078 -0.6443 -0.7256  1.1828
15033TIP3    H266515   5.582   2.049  13.072  0.1678 -0.0160  0.1782
15034TIP3   OH266516   1.658   1.956  12.646 -0.1613  0.2047  0.9175
15034TIP3    H166517   1.725   1.922  12.706  0.2190  0.6533  0.7555
15034TIP3    H266518   1.577   1.912  12.672  0.0135  0.3456  1.7110
15035TIP3   OH266519   1.482   2.435  16.411  0.3278 -0.1134 -0.5091
15035TIP3    H166520   1.457   2.523  16.438 -2.0765 -0.7087 -0.6300
15035TIP3    H266521   1.540   2.449  16.336  1.1087  1.3565  0.3109
15036TIP3   OH266522   6.437   5.459  16.329 -0.2369  0.3953 -0.8067
15036TIP3    H166523   6.445   5.382  16.274 -0.8273  0.8225 -1.5085
15036TIP3    H266524   6.485   5.437  16.409 -1.4702 -1.1941 -0.4450
15037TIP3   OH266525   3.490   1.244   0.769 -0.3546  0.5121 -0.4816
15037TIP3    H166526   3.497   1.300   0.692 -1.2853  0.4738 -0.6069
15037TIP3    H266527   3.544   1.168   0.750 -1.7351 -0.1945 -1.7341
15038TIP3   OH266528   6.559   4.079   3.857 -0.4847  0.0060  0.1852
15038TIP3    H166529   6.582   4.141   3.926 -0.6153 -0.3000  0.5128
15038TIP3    H266530   6.630   4.085   3.794 -0.0070 -0.2102  0.6946
15039TIP3   OH266531   4.360   1.449   4.546 -0.2845 -0.0795 -0.0749
15039TIP3    H166532   4.453   1.448   4.524 -0.4201 -0.0622 -0.6656
15039TIP3    H266533   4.335   1.357   4.546 -0.1630 -0.1182  0.5598
15040TIP3   OH266534   3.165   1.348   4.074 -0.5734 -0.2825 -0.1686
15040TIP3    H166535   3.208   1.308   3.998 -0.5089 -0.6538  0.0623
15040TIP3    H266536   3.129   1.430   4.040 -2.1698 -1.3141 -1.0610
15041TIP3   OH266537   3.911   5.228   0.212 -0.9592  0.0744 -0.1545
15041TIP3    H166538   3.818   5.220   0.234 -0.7727 -0.1230  0.6024
15041TIP3    H266539   3.918   5.311   0.166 -1.4348  0.3217  0.2110
15042TIP3   OH266540   5.009   6.725  12.097  0.1726 -0.7687  0.2071
15042TIP3    H166541   5.096   6.755  12.070  0.2482  1.0518  2.1439
15042TIP3    H266542   4.954   6.737  12.020  1.2382 -0.0743 -0.4763
15043TIP3   OH266543   6.507   0.165   1.144 -0.4453 -0.5945  0.3374
15043TIP3    H166544   6.524   0.125   1.059  2.0962  0.9060  0.0206
15043TIP3    H266545   6.553   0.110   1.207 -2.7230 -1.9819  0.9051
15044TIP3   OH266546   2.265   4.369   0.749  0.6897  0.1664 -0.2202
15044TIP3    H166547   2.225   4.344   0.666  1.2948 -1.5636 -0.0365
15044TIP3    H266548   2.193   4.367   0.812  0.3937  0.6435 -0.5393
15045TIP3   OH266549   1.191   4.966   6.079 -0.4260  0.2192  0.4066
15045TIP3    H166550   1.147   5.042   6.043 -1.1083 -0.2550  0.2167
15045TIP3    H266551   1.217   4.992   6.168  1.3774  1.4349 -0.4232
15046TIP3   OH266552   4.156   6.648  13.221  0.2473  0.3699  0.1687
15046TIP3    H166553   4.212   6.592  13.167 -0.2330 -0.8136  0.8734
15046TIP3    H266554   4.199   6.734  13.220  0.6974  0.1507 -1.3876
15047TIP3   OH266555   1.587   4.238   6.059  0.5799  0.6867  0.2181
15047TIP3    H166556   1.658   4.176   6.072  0.0702 -0.1886 -1.0097
15047TIP3    H266557   1.588   4.292   6.138 -0.0760 -1.9983  2.2239
15048TIP3   OH266558   3.600   3.241   1.503 -0.2392  0.0542  0.9692
15048TIP3    H166559   3.545   3.253   1.425  1.8498 -0.6321 -0.6923
15048TIP3    H266560   3.607   3.328   1.541 -1.8381  0.2843  0.8233
15049TIP3   OH266561   3.445   6.285  14.312 -0.0386 -0.3046  0.1732
15049TIP3    H166562   3.379   6.329  14.366 -0.1500  0.9354 -0.9243
15049TIP3    H266563   3.406   6.279  14.225  1.2692  0.4630 -0.5016
15050TIP3   OH266564   0.983   5.343  11.126  0.4561 -0.3486  0.2433
15050TIP3    H166565   1.049   5.275  11.142 -1.2481 -2.3374 -0.8401
15050TIP3    H266566   0.932   5.346  11.207  0.8622  0.0636  0.4923
15051TIP3   OH266567   5.783   3.720   0.889  0.0606 -0.2205 -0.1454
15051TIP3    H166568   5.736   3.661   0.948 -0.6599  0.6210  0.1554
15051TIP3    H266569   5.787   3.803   0.936  3.2952 -0.6508  0.5111
15052TIP3   OH266570   4.561   4.919  14.588  0.7920 -0.3860  0.2831
15052TIP3    H166571   4.470   4.945  14.573  1.1177  0.8944  0.4613
15052TIP3    H266572   4.581   4.861  14.514  0.6801  1.5384 -1.3308
15053TIP3   OH266573   6.708   3.338  14.638 -0.4630 -0.0403 -0.5373
15053TIP3    H166574   6.677   3.382  14.559  0.3203 -0.7384 -1.2620
15053TIP3    H266575   6.629   3.303  14.679 -1.2708  2.8702  0.6645
15054TIP3   OH266576   0.706   3.934   1.423  0.4098  0.3270 -0.6759
15054TIP3    H166577   0.780   3.884   1.389  1.6543  1.3906  0.3897
15054TIP3    H266578   0.674   3.982   1.347  1.1401  0.2583 -1.0398
15055TIP3   OH266579   5.492   1.343  17.054  0.4303  0.0832  0.0599
15055TIP3    H166580   5.506   1.254  17.022 -0.9528 -0.3810  0.6789
15055TIP3    H266581   5.546   1.348  17.133  0.5288 -0.1875  0.0110
15056TIP3   OH266582   2.026   5.547  13.460 -0.0893 -0.5956 -0.2953
15056TIP3    H166583   1.980   5.621  13.498 -0.5328 -1.5600  1.1481
15056TIP3    H266584   2.105   5.538  13.513 -0.5203 -1.7212  0.2053
15057TIP3   OH266585   4.627   3.718  14.381  0.1030 -0.0281  0.0710
15057TIP3    H166586   4.673   3.636  14.362 -2.4198 -1.5295  0.0635
15057TIP3    H266587   4.589   3.743  14.297  1.1971  1.4434 -0.0220
15058TIP3   OH266588   3.935   0.325  15.281 -0.7149  0.0819 -0.8216
15058TIP3    H166589   3.852   0.337  15.327 -0.0992 -0.1191  0.3704
15058TIP3    H266590   3.953   0.232  15.287 -1.0344 -0.0924 -2.2283
15059TIP3   OH266591   4.376   0.322   1.059 -0.3201 -0.1284  0.2059
15059TIP3    H166592   4.449   0.317   1.121  0.8592  0.7492 -1.0460
15059TIP3    H266593   4.358   0.230   1.036  1.7757 -0.3118 -0.9683
15060TIP3   OH266594   2.359   2.039  13.808 -0.0503 -0.8291  0.1397
15060TIP3    H166595   2.337   1.970  13.872  0.4368 -0.7441  0.4076
15060TIP3    H266596   2.296   2.109  13.825  1.6137  0.2827  2.2876
15061TIP3   OH266597   6.519   4.833   0.217 -0.1803 -0.0469 -0.8397
15061TIP3    H166598   6.559   4.913   0.183  2.1734 -1.0944 -0.7526
15061TIP3    H266599   6.491   4.856   0.306  0.8770  0.5811 -0.6484
15062TIP3   OH266600   4.631   6.620   5.765 -0.1993 -0.3901 -0.4178
15062TIP3    H166601   4.622   6.671   5.845  1.3088 -2.6432  1.3234
15062TIP3    H266602   4.679   6.677   5.705 -1.2796  1.3091  0.2571
15063TIP3   OH266603   0.236   5.284  13.538 -0.1136 -0.5743  0.1311
15063TIP3    H166604   0.187   5.237  13.471 -0.6263 -0.6158  0.5255
15063TIP3    H266605   0.286   5.349  13.490  1.4190 -2.1691 -0.5456
15064TIP3   OH266606   3.544   0.131  14.560 -0.0525 -0.2277 -0.1232
15064TIP3    H166607   3.452   0.103  14.562 -0.7563  1.8335 -0.7075
15064TIP3    H266608   3.562   0.158  14.650 -1.1109  2.3471 -0.5800
15065TIP3   OH266609   5.365   6.195  12.540 -0.1105  0.2327  0.1307
15065TIP3    H166610   5.423   6.180  12.615  0.2026  0.8621  0.0147
15065TIP3    H266611   5.374   6.288  12.520 -1.1650  0.3405  0.1061
15066TIP3   OH266612   3.484   5.420  12.394 -0.1108  0.1139 -0.0509
15066TIP3    H166613   3.510   5.454  12.308 -0.6303  1.2140  0.2039
15066TIP3    H266614   3.533   5.339  12.404  0.5929  0.4012 -1.0348
15067TIP3   OH266615   4.257   0.074   3.119 -0.0411  0.4139  0.2336
15067TIP3    H166616   4.234   0.073   3.212 -0.4898  1.5093  0.1487
15067TIP3    H266617   4.270   0.166   3.098 -1.6678  0.3696 -1.1852
15068TIP3   OH266618   6.477   4.443   1.277  0.1075 -0.7733  0.1474
15068TIP3    H166619   6.450   4.458   1.368 -0.7217  0.9780 -0.3280
15068TIP3    H266620   6.394   4.430   1.230  0.5881 -2.7573 -0.2170
15069TIP3   OH266621   3.159   6.639  16.660 -0.2743  0.5525 -0.0596
15069TIP3    H166622   3.171   6.640  16.755 -3.1271  3.1131  0.4388
15069TIP3    H266623   3.216   6.710  16.628  0.6748 -0.2990 -0.3164
15070TIP3   OH266624   0.935   1.703  16.834 -0.2169 -0.1462  0.5196
15070TIP3    H166625   1.005   1.733  16.776  0.9149  2.1988  2.8541
15070TIP3    H266626   0.861   1.762  16.816 -0.5748 -0.7186  0.0873
15071TIP3   OH266627   4.886   5.115  13.208  0.4725  0.2819  0.0364
15071TIP3    H166628   4.832   5.178  13.256  1.5747  0.2339  1.3982
15071TIP3    H266629   4.948   5.169  13.159 -0.4516  0.3189 -1.1485
15072TIP3   OH266630   0.524   5.538  15.302 -0.3870 -0.0360 -0.3930
15072TIP3    H166631   0.519   5.575  15.390  1.4865 -0.5940 -0.0137
15072TIP3    H266632   0.595   5.585  15.260 -1.5496  0.5257 -1.7943
15073TIP3   OH266633   5.895   2.482  16.538  0.5729  0.4266  1.1919
15073TIP3    H166634   5.891   2.390  16.565  1.0391 -1.1673 -3.1898
15073TIP3    H266635   5.803   2.508  16.530  0.3601 -0.4963  0.3376
15074TIP3   OH266636   6.090   6.346  15.158  1.0088  0.0237 -0.4159
15074TIP3    H166637   6.087   6.287  15.233  0.7133  0.3476 -0.1697
15074TIP3    H266638   6.177   6.333  15.120  1.3986  0.3056  0.3525
15075TIP3   OH266639   2.226   4.754   4.571  0.5520  0.0030  0.0487
15075TIP3    H166640   2.318   4.741   4.592  0.0108  0.7407  3.4426
15075TIP3    H266641   2.224   4.833   4.517  1.8844 -0.0058 -0.0372
15076TIP3   OH266642   1.858   5.150   3.360  0.4471  0.1238 -0.1688
15076TIP3    H166643   1.903   5.110   3.285  1.1995 -0.1646  0.4342
15076TIP3    H266644   1.917   5.219   3.390  0.6172 -0.4166  0.7801
15077TIP3   OH266645   3.538   5.180   4.774 -0.2997 -0.0498 -0.0015
15077TIP3    H166646   3.540   5.200   4.867  0.5423  1.6769 -0.3550
15077TIP3    H266647   3.611   5.231   4.737 -0.6840 -0.6165 -1.6175
15078TIP3   OH266648   4.954   4.360  16.503 -0.4283  0.0503  0.0993
15078TIP3    H166649   4.890   4.339  16.571  0.2704 -2.3095  0.0865
15078TIP3    H266650   5.018   4.290  16.507  1.1225  1.3025 -1.2188
15079TIP3   OH266651   2.465   1.834   4.498  0.2509 -0.3364  0.0436
15079TIP3    H166652   2.502   1.858   4.583  0.4279 -2.2263  0.5568
15079TIP3    H266653   2.541   1.812   4.444  0.0633 -0.6906 -0.0795
15080TIP3   OH266654   3.506   1.355   0.530 -0.2356  0.4070 -0.2720
15080TIP3    H166655   3.582   1.301   0.508 -0.4227 -0.3887  0.9746
15080TIP3    H266656   3.502   1.420   0.459  0.0254 -1.1596 -1.7891
15081TIP3   OH266657   3.587   3.650  12.256  0.0266  0.2943  0.4110
15081TIP3    H166658   3.635   3.666  12.337  0.2111  1.5132  0.0911
15081TIP3    H266659   3.649   3.605  12.199  0.4217  0.8122  0.4185
15082TIP3   OH266660   6.656   4.743   6.305 -0.0040  0.3025  0.2256
15082TIP3    H166661   6.617   4.822   6.270  0.6628  0.4694 -0.1548
15082TIP3    H266662   6.604   4.723   6.384  0.4044  1.6437  0.8613
15083TIP3   OH266663   5.667   5.088   0.693 -0.0798  0.4294 -0.1970
15083TIP3    H166664   5.755   5.107   0.660  0.0682  0.4700  0.2129
15083TIP3    H266665   5.623   5.172   0.694  0.0264  0.4831  0.0273
15084TIP3   OH266666   3.427   4.422   4.725  0.4893  0.4081 -0.5528
15084TIP3    H166667   3.474   4.446   4.805 -1.1902  2.2428 -0.0359
15084TIP3    H266668   3.489   4.438   4.655  1.5690 -0.0049  0.2823
15085TIP3   OH266669   3.019   4.462   3.803  0.6525  0.1118 -0.3182
15085TIP3    H166670   2.985   4.536   3.854  0.0008 -1.2532  1.2824
15085TIP3    H266671   2.975   4.469   3.719  1.5177  2.2353 -0.6813
15086TIP3   OH266672   2.470   0.446   0.871 -0.3168  0.1677  0.0266
15086TIP3    H166673   2.405   0.436   0.940  0.9629  2.4614  1.6937
15086TIP3    H266674   2.521   0.366   0.874 -2.0760 -1.0166 -0.3002
15087TIP3   OH266675   6.414   6.078  17.195  0.3056 -0.2469 -0.3401
15087TIP3    H166676   6.481   6.140  17.169  0.2362 -0.7541 -1.8760
15087TIP3    H266677   6.462   6.001  17.225  0.4468 -0.6238 -1.4717
15088TIP3   OH266678   3.826   1.054  13.368  0.3481 -0.5547 -0.2805
15088TIP3    H166679   3.740   1.066  13.409  0.3718  0.0061 -0.3800
15088TIP3    H266680   3.888   1.066  13.440  0.4705  2.1832 -0.7419
15089TIP3   OH266681   6.148   1.132   4.744 -0.2088 -0.0331 -0.1993
15089TIP3    H166682   6.195   1.052   4.722  0.0838  0.1495 -0.2413
15089TIP3    H266683   6.099   1.110   4.824  2.0594  0.5637  1.4652
15090TIP3   OH266684   5.749   0.470   3.426  0.1708 -0.0566 -0.2027
15090TIP3    H166685   5.676   0.517   3.467 -0.1289 -1.8943  1.5460
15090TIP3    H266686   5.806   0.447   3.499  1.5638 -0.2969 -1.3203
15091TIP3   OH266687   4.948   5.451   0.674 -0.3887 -0.2569  0.4322
15091TIP3    H166688   4.857   5.426   0.663 -1.0514  2.3298 -0.6854
15091TIP3    H266689   4.950   5.501   0.756 -0.0057 -0.1863  0.3854
15092TIP3   OH266690   0.439   5.145  11.511 -1.0039 -0.3030 -0.0040
15092TIP3    H166691   0.464   5.237  11.498  2.8013 -1.0349  0.8033
15092TIP3    H266692   0.385   5.146  11.590  0.2519  1.1496  0.8975
15093TIP3   OH266693   2.973   4.708   3.328 -0.0207 -0.0507 -0.3253
15093TIP3    H166694   2.922   4.776   3.284 -0.3700  1.4549  2.1723
15093TIP3    H266695   2.918   4.630   3.324 -1.7359  1.0243  0.6023
15094TIP3   OH266696   4.229   5.724   4.428 -0.1018  0.2873 -0.0602
15094TIP3    H166697   4.308   5.758   4.470 -0.2898 -0.6014  1.0480
15094TIP3    H266698   4.255   5.711   4.337  0.7264  0.9308  0.0661
15095TIP3   OH266699   2.710   1.978  12.550  0.2291 -0.2736  1.0850
15095TIP3    H166700   2.638   2.035  12.579  0.2270 -0.1906  0.9158
15095TIP3    H266701   2.766   1.970  12.627 -0.2025 -0.7164  1.3578
15096TIP3   OH266702   4.023   0.023   3.542  0.2802  0.0846 -0.1721
15096TIP3    H166703   4.112  -0.004   3.562 -0.1439 -1.3049 -0.0345
15096TIP3    H266704   3.993   0.069   3.621  1.2909  1.7687 -0.7170
15097TIP3   OH266705   5.188   3.755  13.329 -0.0224  0.3800  0.3997
15097TIP3    H166706   5.180   3.695  13.403 -1.3132  1.9143  1.6134
15097TIP3    H266707   5.239   3.829  13.364 -0.6992  1.1509 -0.1982
15098TIP3   OH266708   3.051   6.488  14.573 -0.0999 -0.1931  0.1064
15098TIP3    H166709   2.966   6.445  14.585 -0.7688  1.1819  0.4996
15098TIP3    H266710   3.050   6.517  14.482 -0.8810  1.4848  0.6202
15099TIP3   OH266711   3.743   2.345   3.766  0.3719  0.0783 -0.1825
15099TIP3    H166712   3.747   2.393   3.683 -0.2601 -2.0216 -1.5146
15099TIP3    H266713   3.817   2.284   3.762 -0.2685 -0.7505  0.3132
15100TIP3   OH266714   3.400   6.379   3.593 -0.0693  0.0959 -0.1305
15100TIP3    H166715   3.475   6.353   3.540  0.3550 -0.4927  0.7449
15100TIP3    H266716   3.429   6.368   3.683 -1.0710  0.2644  0.2252
15101TIP3   OH266717   2.547   1.046   2.015 -0.3066  0.3475  0.2145
15101TIP3    H166718   2.578   1.101   2.087 -0.7790  0.3781  0.3970
15101TIP3    H266719   2.541   1.105   1.940 -2.4616  0.9643  0.8186
15102TIP3   OH266720   1.301   5.123  14.778 -0.0732  0.1836 -0.1364
15102TIP3    H166721   1.380   5.172  14.757  1.1730 -1.2351  0.9899
15102TIP3    H266722   1.287   5.139  14.872 -0.1262 -0.8828  0.0568
15103TIP3   OH266723   3.194   0.595   0.892 -0.4795  0.4025 -0.6543
15103TIP3    H166724   3.248   0.652   0.837 -0.6783  0.9396 -0.2980
15103TIP3    H266725   3.181   0.644   0.973 -1.5535  0.3213 -0.7581
15104TIP3   OH266726   2.039   5.465  11.382  0.9466 -0.2209 -0.3703
15104TIP3    H166727   2.047   5.379  11.341 -1.6381 -0.8917  0.3248
15104TIP3    H266728   2.027   5.526  11.309 -1.0422 -1.0386 -0.7877
15105TIP3   OH266729   3.769   0.733   2.871  0.3637 -0.1667  0.5181
15105TIP3    H166730   3.805   0.819   2.893 -0.1477  0.6860 -1.7424
15105TIP3    H266731   3.844   0.683   2.838  0.3370  0.0115  0.1882
15106TIP3   OH266732   1.397   2.515  15.015  0.0448  0.4019 -0.0119
15106TIP3    H166733   1.372   2.471  14.934 -1.0043 -1.7711  1.3865
15106TIP3    H266734   1.324   2.501  15.074  0.1232  3.2273  0.9255
15107TIP3   OH266735   0.897   3.805   1.892 -0.0710  0.6051 -0.2551
15107TIP3    H166736   0.976   3.800   1.946  0.5338 -1.6364 -1.2292
15107TIP3    H266737   0.924   3.856   1.815 -0.2101  1.6449  0.3689
15108TIP3   OH266738   0.173   4.501  11.624  0.4953 -0.1288  0.4058
15108TIP3    H166739   0.096   4.557  11.632  0.0978 -0.6776  0.4740
15108TIP3    H266740   0.147   4.418  11.662  0.8229 -0.6063 -0.3740
15109TIP3   OH266741   2.076   5.749   2.944  0.2825 -0.4697 -0.4514
15109TIP3    H166742   2.008   5.808   2.913 -1.6270 -1.6605  1.2089
15109TIP3    H266743   2.106   5.703   2.865 -0.8304  0.1025 -1.2306
15110TIP3   OH266744   2.817   2.435   2.333  0.4839  0.3634  0.2582
15110TIP3    H166745   2.817   2.492   2.257  2.0665  1.8714  1.3003
15110TIP3    H266746   2.849   2.351   2.300 -2.0871 -0.1076 -1.3431
15111TIP3   OH266747   3.221   3.908  14.718  0.3379  0.1061 -0.0985
15111TIP3    H166748   3.241   3.829  14.767  1.4157  0.6247  0.3146
15111TIP3    H266749   3.151   3.882  14.657 -0.0543 -0.8766  0.7614
15112TIP3   OH266750   6.006   3.337   2.823 -0.0477  0.4514  0.0396
15112TIP3    H166751   6.035   3.320   2.733 -2.6858  0.9734 -1.0185
15112TIP3    H266752   6.080   3.381   2.864  0.6495  1.8589 -2.4672
15113TIP3   OH266753   4.499   4.626  11.001  0.2518  0.7293 -0.5629
15113TIP3    H166754   4.549   4.701  11.033 -0.2351  0.4856  0.8511
15113TIP3    H266755   4.563   4.555  10.996  0.2971  0.7250  0.0573
15114TIP3   OH266756   6.164   4.550  11.570  0.4316 -0.4666  0.6104
15114TIP3    H166757   6.111   4.555  11.649  0.5345 -2.1421  0.8161
15114TIP3    H266758   6.249   4.585  11.595  0.4441 -0.9342  1.2457
15115TIP3   OH266759   6.262   4.809   0.593  0.1674  0.4044  0.1488
15115TIP3    H166760   6.277   4.737   0.654 -0.6141  1.7028  1.9599
15115TIP3    H266761   6.180   4.848   0.623 -0.0282  1.3392 -1.5166
15116TIP3   OH266762   3.805   5.738  13.386  0.2391 -0.1467 -0.7797
15116TIP3    H166763   3.850   5.701  13.462  0.8841  0.4669 -0.8495
15116TIP3    H266764   3.860   5.811  13.358 -0.3031  0.0183 -1.4716
15117TIP3   OH266765   1.599   2.435  11.954  0.1895 -0.1018 -0.4989
15117TIP3    H166766   1.512   2.472  11.944  0.1382  0.5799  1.8256
15117TIP3    H266767   1.584   2.347  11.989  0.4127 -1.0289 -2.6027
15118TIP3   OH266768   4.814   2.192   1.185 -0.0042  0.4427 -0.4370
15118TIP3    H166769   4.904   2.222   1.196  0.3656 -1.0984  1.0797
15118TIP3    H266770   4.790   2.222   1.097  2.1836  0.3876 -1.1201
15119TIP3   OH266771   5.313   6.642  12.894 -0.4803  0.4486  0.0835
15119TIP3    H166772   5.312   6.731  12.930 -0.0657  0.7778 -0.6821
15119TIP3    H266773   5.394   6.637  12.844  0.0937 -0.7797  1.0802
15120TIP3   OH266774   4.601   4.651   5.274 -0.1323  0.0898  0.0048
15120TIP3    H166775   4.671   4.712   5.297 -1.3432  1.6313 -0.2061
15120TIP3    H266776   4.599   4.588   5.346  0.4902  0.8964  0.7423
15121TIP3   OH266777   2.368   3.218   3.926  0.6530 -0.6480  0.5622
15121TIP3    H166778   2.316   3.283   3.972  0.5694  0.1688 -0.6487
15121TIP3    H266779   2.458   3.249   3.934  0.6002 -0.3009 -0.1214
15122TIP3   OH266780   2.588   0.234   1.011  0.0375 -0.3762 -0.3576
15122TIP3    H166781   2.586   0.238   1.106 -1.9981 -1.0623 -0.3273
15122TIP3    H266782   2.616   0.145   0.991 -1.5764 -0.9175 -0.3361
15123TIP3   OH266783   6.097   5.575  16.755 -0.1931  0.5710  0.1247
15123TIP3    H166784   6.183   5.548  16.786 -0.2943  0.5304  0.3707
15123TIP3    H266785   6.099   5.557  16.661 -1.0709 -2.5654  0.5684
15124TIP3   OH266786   4.215   6.620  14.216 -0.0035 -0.4104 -0.0984
15124TIP3    H166787   4.302   6.584  14.237  0.3181 -0.5029 -1.5202
15124TIP3    H266788   4.232   6.713  14.198 -0.9008  0.8181  4.1000
15125TIP3   OH266789   4.342   6.185  13.035  0.0493  0.1239 -0.1589
15125TIP3    H166790   4.329   6.200  12.941 -1.5149  3.6023  0.4450
15125TIP3    H266791   4.433   6.211  13.052 -0.0835  0.8208 -0.5066
15126TIP3   OH266792   5.644   6.458   0.193  0.1253  0.6601  0.6634
15126TIP3    H166793   5.679   6.414   0.116  2.8348  2.8881  0.4567
15126TIP3    H266794   5.555   6.483   0.168  0.4673  0.1484 -1.2264
15127TIP3   OH266795   0.204   2.171   1.129 -0.5178  0.2722 -0.4393
15127TIP3    H166796   0.111   2.158   1.113 -0.2688 -0.2778 -1.5365
15127TIP3    H266797   0.215   2.154   1.223 -1.5551  0.5876 -0.2523
15128TIP3   OH266798   1.354   0.864   1.397 -0.2168  0.0561 -0.3573
15128TIP3    H166799   1.311   0.785   1.366  2.3932 -0.4332 -3.2691
15128TIP3    H266800   1.298   0.936   1.367 -2.4805 -0.5136  2.1118
15129TIP3   OH266801   5.979   4.263  12.308  0.1218 -0.1899 -0.3030
15129TIP3    H166802   5.961   4.182  12.261  1.7724  0.4583 -2.1866
15129TIP3    H266803   5.996   4.328  12.239  0.2242  1.4199  1.1576
15130TIP3   OH266804   5.462   4.958  17.085  0.1777  0.2548  0.3615
15130TIP3    H166805   5.519   4.965  17.008 -1.5759  0.4755 -0.9940
15130TIP3    H266806   5.423   4.871  17.077 -0.4757  0.5186  0.6727
15131TIP3   OH266807   2.118   0.449  14.707  0.6171  0.5290  0.0892
15131TIP3    H166808   2.142   0.356  14.711  2.0248  0.8700  0.3712
15131TIP3    H266809   2.081   0.461  14.620  0.9837 -0.1847 -0.1731
15132TIP3   OH266810   1.045   6.536  16.218 -0.4364  0.0098 -0.0626
15132TIP3    H166811   1.069   6.493  16.135 -1.0817  0.8920 -0.7274
15132TIP3    H266812   0.998   6.615  16.191 -0.3926  0.4670  1.1569
15133TIP3   OH266813   6.149   5.270  16.357  0.1500 -0.2186  0.0887
15133TIP3    H166814   6.193   5.265  16.272  3.6257  0.0321  1.6975
15133TIP3    H266815   6.122   5.180  16.375 -0.6075 -0.2800 -1.2078
15134TIP3   OH266816   2.763   3.538   3.635 -0.5574  0.1842  0.2333
15134TIP3    H166817   2.674   3.555   3.603  0.1716  1.2446 -1.4124
15134TIP3    H266818   2.774   3.598   3.709 -1.3748 -0.3345  0.7863
15135TIP3   OH266819   4.067   1.575  11.879 -0.0605  0.0583  0.3565
15135TIP3    H166820   4.015   1.654  11.887 -1.1249 -0.5084 -0.7939
15135TIP3    H266821   4.112   1.583  11.795  1.3673  0.3046  1.0971
15136TIP3   OH266822   2.537   1.299   5.545  0.7446 -0.5084  0.4459
15136TIP3    H166823   2.461   1.252   5.512  0.0264  1.0930 -0.3019
15136TIP3    H266824   2.504   1.352   5.617  0.4965  2.1666 -1.4946
15137TIP3   OH266825   4.660   0.919  15.175  0.5198 -0.5590 -0.2389
15137TIP3    H166826   4.623   0.980  15.111 -0.7699 -0.6519  0.4052
15137TIP3    H266827   4.755   0.929  15.165  0.3294  0.6601 -0.9846
15138TIP3   OH266828   6.063   3.598   0.949 -0.7546  0.6951 -0.1550
15138TIP3    H166829   5.969   3.615   0.959 -0.9040 -0.0156 -0.3099
15138TIP3    H266830   6.077   3.515   0.994  0.0430  1.4166  0.9744
15139TIP3   OH266831   2.534   3.024  16.132  0.5927 -0.1200  0.0825
15139TIP3    H166832   2.480   3.095  16.098  1.1653 -0.2284 -1.1071
15139TIP3    H266833   2.547   3.046  16.224 -0.9141  0.2453  0.2504
15140TIP3   OH266834   4.359   4.010   4.508  0.0198  0.7594 -0.7503
15140TIP3    H166835   4.447   3.987   4.539 -1.3711  1.2099  4.5123
15140TIP3    H266836   4.323   3.927   4.476  1.8960  0.2905 -1.7535
15141TIP3   OH266837   0.424   5.692  15.738 -0.2731  0.1060 -0.4634
15141TIP3    H166838   0.486   5.680  15.810 -0.8700 -0.4389 -0.0205
15141TIP3    H266839   0.354   5.747  15.775 -0.3472  0.2218 -0.7715
15142TIP3   OH266840   3.260   5.224   3.464  0.1964  0.5215 -0.0914
15142TIP3    H166841   3.176   5.255   3.429  0.5951  1.7798  0.0286
15142TIP3    H266842   3.283   5.288   3.531 -0.1992 -1.4404  2.0529
15143TIP3   OH266843   6.536   6.270   0.184  0.2284 -0.4913  0.0453
15143TIP3    H166844   6.447   6.235   0.180  0.0903 -0.0833 -2.8763
15143TIP3    H266845   6.592   6.193   0.193 -0.3797 -0.8209  1.0567
15144TIP3   OH266846   5.147   6.272  12.762 -0.0396  0.0041  0.1179
15144TIP3    H166847   5.193   6.306  12.685  0.2262  0.0409  0.2891
15144TIP3    H266848   5.214   6.224  12.810 -0.4454 -0.8830 -0.1909
15145TIP3   OH266849   1.733   0.300  10.741  0.5624 -0.3387  0.1302
15145TIP3    H166850   1.652   0.315  10.791 -0.5300  0.6763 -1.8089
15145TIP3    H266851   1.736   0.205  10.728 -0.3177 -0.3969  0.2757
15146TIP3   OH266852   3.923   6.379  16.534  0.3169  0.4440 -0.2162
15146TIP3    H166853   3.938   6.394  16.627 -0.8359  2.4051 -0.2834
15146TIP3    H266854   3.841   6.331  16.530 -0.5344  1.8443 -0.2264
15147TIP3   OH266855   1.574   3.126   2.346 -0.0198 -0.0201 -0.1651
15147TIP3    H166856   1.510   3.192   2.374  0.9709  0.2730  1.5419
15147TIP3    H266857   1.599   3.081   2.426  0.9810 -0.9854 -0.9833
15148TIP3   OH266858   0.463   2.346   4.767 -0.2666 -0.2332  0.0189
15148TIP3    H166859   0.370   2.363   4.778 -0.4280 -1.0146 -0.0627
15148TIP3    H266860   0.469   2.296   4.685  0.1935 -0.3863  0.1384
15149TIP3   OH266861   5.604   1.651  15.356 -0.0977 -0.0911  0.1927
15149TIP3    H166862   5.597   1.564  15.316 -0.5914 -0.4459  1.0329
15149TIP3    H266863   5.676   1.643  15.418 -0.7170 -0.1645  0.9140
15150TIP3   OH266864   3.746   5.967   3.943  0.5310  0.3384 -0.6005
15150TIP3    H166865   3.828   5.922   3.920 -0.6408 -1.8541 -0.7749
15150TIP3    H266866   3.762   6.001   4.031  2.1671  1.4385 -1.2773
15151TIP3   OH266867   4.754   3.328   0.822 -0.0886 -0.1581 -0.7337
15151TIP3    H166868   4.833   3.277   0.804 -0.0847  0.1652 -1.6669
15151TIP3    H266869   4.759   3.402   0.762 -0.8606  0.1222 -0.4590
15152TIP3   OH266870   1.643   6.140   0.418 -0.6223 -0.4001  0.0810
15152TIP3    H166871   1.555   6.104   0.428 -0.1443 -1.5637  0.1887
15152TIP3    H266872   1.661   6.136   0.324 -0.8625  0.2948 -0.0009
15153TIP3   OH266873   2.795   2.945   0.291  0.1801  0.1608  0.1498
15153TIP3    H166874   2.739   2.954   0.368  0.9346 -0.6245  0.8095
15153TIP3    H266875   2.755   2.875   0.240 -1.1749  1.6778 -0.9690
15154TIP3   OH266876   1.619   4.016  13.954 -0.9508 -0.5482 -0.6242
15154TIP3    H166877   1.714   4.017  13.969 -1.2033  1.5221  1.2138
15154TIP3    H266878   1.587   3.943  14.007 -0.3915 -1.4886 -1.5338
15155TIP3   OH266879   6.373   3.568  13.145 -0.2389 -0.1430  0.4590
15155TIP3    H166880   6.431   3.637  13.113 -1.7571  0.9577 -0.0466
15155TIP3    H266881   6.374   3.578  13.240  2.2302 -1.7160  0.6741
15156TIP3   OH266882   1.934   4.557  15.001 -0.2786 -0.1899  0.2481
15156TIP3    H166883   1.995   4.497  14.958 -1.3666 -1.2949  0.2034
15156TIP3    H266884   1.915   4.517  15.086 -1.4583 -0.2409 -0.0147
15157TIP3   OH266885   6.502   1.580  17.183  0.0515 -0.0479 -0.1963
15157TIP3    H166886   6.576   1.638  17.200  0.6315 -1.0041  0.6576
15157TIP3    H266887   6.469   1.608  17.098  0.9778  0.8316 -0.2867
15158TIP3   OH266888   0.584   0.561  12.584 -0.1741 -0.1963  0.1053
15158TIP3    H166889   0.640   0.485  12.568  0.1187  0.2487 -1.0867
15158TIP3    H266890   0.645   0.634  12.595 -0.4636 -0.0598  0.8657
15159TIP3   OH266891   0.645   2.323   5.983 -0.3150 -0.4508  0.3248
15159TIP3    H166892   0.707   2.290   6.048  0.5673 -0.4077 -0.4807
15159TIP3    H266893   0.617   2.408   6.017  1.1042  0.1522  0.0583
15160TIP3   OH266894   1.265   6.037  14.239  0.2335  0.3967  0.4808
15160TIP3    H166895   1.233   6.124  14.263  3.0625  1.2292  1.6001
15160TIP3    H266896   1.258   5.986  14.320  1.6331  0.5921  0.7398
15161TIP3   OH266897   6.762   6.474  14.424  0.4840  0.4142 -0.1173
15161TIP3    H166898   6.819   6.550  14.416 -0.4586  1.1265 -0.2804
15161TIP3    H266899   6.751   6.443  14.334 -1.3490  1.8078 -0.4543
15162TIP3   OH266900   2.391   0.657   2.080  0.1943  0.3638  0.5037
15162TIP3    H166901   2.366   0.749   2.084  0.1901  0.3129  2.0102
15162TIP3    H266902   2.391   0.628   2.171  0.8788 -0.9480  0.1051
15163TIP3   OH266903   1.123   4.657  15.563  0.0859  0.7497 -0.0497
15163TIP3    H166904   1.066   4.733  15.576 -0.0589  0.7116 -0.4450
15163TIP3    H266905   1.130   4.649  15.468  0.1701  0.3184 -0.0061
15164TIP3   OH266906   2.392   5.820   3.054  0.0002  0.0447  0.1803
15164TIP3    H166907   2.370   5.845   2.964 -1.5783 -1.0014  0.2325
15164TIP3    H266908   2.340   5.878   3.109 -1.3886 -1.2765  0.3349
15165TIP3   OH266909   5.996   6.273  11.953  0.5282 -0.2761 -0.5199
15165TIP3    H166910   6.061   6.263  12.023 -2.6031 -0.9652  2.5402
15165TIP3    H266911   6.005   6.194  11.900  0.1016 -1.9812  1.8059
15166TIP3   OH266912   3.575   0.116   2.402  0.2357  0.3798 -0.5026
15166TIP3    H166913   3.488   0.152   2.419  0.5916  0.7409  0.5953
15166TIP3    H266914   3.601   0.076   2.485  1.6424  1.3771 -0.4343
15167TIP3   OH266915   3.025   4.593   1.189  0.5448 -0.1360 -0.4255
15167TIP3    H166916   2.957   4.638   1.138 -0.8986 -0.3747  1.1971
15167TIP3    H266917   3.034   4.508   1.147  0.0800  0.0273 -0.8648
15168TIP3   OH266918   0.723   5.415   1.811 -0.4091  0.2534 -0.0353
15168TIP3    H166919   0.781   5.342   1.790 -0.9110  0.1315 -1.0765
15168TIP3    H266920   0.688   5.443   1.726 -1.8069  0.3691  0.5507
15169TIP3   OH266921   2.167   1.687   3.733  0.8001  0.5542  0.0992
15169TIP3    H166922   2.159   1.782   3.722  0.8945  0.5300 -0.1788
15169TIP3    H266923   2.241   1.662   3.677 -0.0591  0.1314 -0.8698
15170TIP3   OH266924   5.087   4.655  15.628  0.1019 -0.6298  0.6605
15170TIP3    H166925   5.173   4.696  15.615 -0.6092  0.1877 -2.6743
15170TIP3    H266926   5.106   4.569  15.665  2.1589  0.2531  1.8441
15171TIP3   OH266927   4.541   4.285   0.250 -0.2673 -0.0548  0.9053
15171TIP3    H166928   4.518   4.205   0.202  2.7882 -0.1066 -0.7284
15171TIP3    H266929   4.507   4.356   0.195  0.0870 -0.1692  0.5396
15172TIP3   OH266930   5.884   5.617   1.180  0.0597 -0.4281  0.0313
15172TIP3    H166931   5.869   5.706   1.210 -0.5628 -0.4069 -0.3160
15172TIP3    H266932   5.913   5.626   1.089  0.3261 -0.5650  0.1012
15173TIP3   OH266933   4.819   4.954   3.834  0.0091  0.2230 -0.3621
15173TIP3    H166934   4.896   4.917   3.877  0.1208  0.8485 -0.0058
15173TIP3    H266935   4.748   4.895   3.855  0.6709 -1.2454 -1.9944
15174TIP3   OH266936   1.690   5.045   0.498  0.0758 -0.0868  0.5541
15174TIP3    H166937   1.631   5.112   0.533  0.3531 -0.8719  2.6730
15174TIP3    H266938   1.744   5.091   0.434 -1.3704  1.1332  0.1765
15175TIP3   OH266939   0.150   3.645  14.592 -0.2004 -0.2460  0.4147
15175TIP3    H166940   0.116   3.618  14.506  1.2128 -1.4487  0.1880
15175TIP3    H266941   0.115   3.733  14.605 -0.4681 -0.0419 -1.3960
15176TIP3   OH266942   6.222   2.667   2.922  0.2801  0.0501  0.6839
15176TIP3    H166943   6.292   2.716   2.965 -0.2243  0.4061  1.1075
15176TIP3    H266944   6.173   2.733   2.873  0.3968 -0.2368  0.1727
15177TIP3   OH266945   2.699   6.708   5.567 -0.3334 -0.0800  0.2129
15177TIP3    H166946   2.731   6.731   5.654 -0.5906  0.1200  0.2539
15177TIP3    H266947   2.609   6.678   5.581 -0.5522  0.4443 -0.0489
15178TIP3   OH266948   4.929   1.638   5.382  0.0020  0.3016  0.3470
15178TIP3    H166949   4.962   1.635   5.471  0.9979 -2.1972 -0.0331
15178TIP3    H266950   4.857   1.701   5.385 -0.2319  0.0028  2.9955
15179TIP3   OH266951   6.538   5.051  11.562  0.1845  0.5614 -0.0279
15179TIP3    H166952   6.591   5.097  11.497 -1.4423  1.5217 -0.7376
15179TIP3    H266953   6.573   5.080  11.646  0.8264  1.1284 -0.4771
15180TIP3   OH266954   6.062   6.480  12.833 -0.1810  0.2943  0.0096
15180TIP3    H166955   6.143   6.457  12.789 -0.0479  1.2266 -0.2487
15180TIP3    H266956   6.020   6.543  12.775  0.1038  1.7257  1.3034
15181TIP3   OH266957   1.881   0.040  11.876 -0.3039 -0.9192 -0.6275
15181TIP3    H166958   1.909   0.053  11.967 -1.3684  0.3459 -0.4517
15181TIP3    H266959   1.936  -0.032  11.844  0.1072 -1.3756  1.0061
15182TIP3   OH266960   0.995   3.568  16.274  0.3857  0.0702  0.2348
15182TIP3    H166961   0.907   3.605  16.281 -0.8825 -2.3694 -1.4082
15182TIP3    H266962   0.991   3.486  16.323  0.8191 -1.4939 -2.1879
15183TIP3   OH266963   4.162   1.792  12.650 -0.3761  0.1079  0.6804
15183TIP3    H166964   4.187   1.831  12.733 -1.9215  0.4572  1.0141
15183TIP3    H266965   4.215   1.712  12.643  0.6245  0.6903  1.4134
15184TIP3   OH266966   1.900   4.601   1.929 -0.4272  0.0463  0.0759
15184TIP3    H166967   1.927   4.547   1.855  1.4083  0.8671  0.0895
15184TIP3    H266968   1.805   4.589   1.934 -0.6204  0.0359 -2.4502
15185TIP3   OH266969   6.757   4.545   0.065  0.6809 -0.5394 -0.0858
15185TIP3    H166970   6.744   4.625   0.013  0.9601 -1.2517 -1.2938
15185TIP3    H266971   6.804   4.486   0.006  0.0389 -1.7808  0.6130
15186TIP3   OH266972   0.907   1.390  15.614 -0.2978  0.2278  0.0240
15186TIP3    H166973   0.889   1.337  15.692  0.1482  0.2919  0.1734
15186TIP3    H266974   0.843   1.361  15.549 -0.0648 -0.4835  0.1092
15187TIP3   OH266975   0.030   0.550  13.494  0.0475 -0.4401 -0.3175
15187TIP3    H166976  -0.030   0.539  13.421  1.0818  0.3354 -1.3260
15187TIP3    H266977   0.082   0.627  13.472 -0.5545  0.7006  1.9163
15188TIP3   OH266978   6.433   3.250  16.202  0.5611  0.0244  0.3908
15188TIP3    H166979   6.362   3.313  16.188  0.9054  0.0208 -1.7162
15188TIP3    H266980   6.398   3.188  16.266 -1.0949  0.3863 -0.1123
15189TIP3   OH266981   1.040   3.475  14.703  0.0387  0.1661  0.0056
15189TIP3    H166982   1.101   3.538  14.665  0.4437  0.4668  1.1025
15189TIP3    H266983   1.005   3.520  14.780 -2.4337  0.4375 -1.1805
15190TIP3   OH266984   6.261   6.571  12.072  0.1248  0.4871  0.3924
15190TIP3    H166985   6.185   6.614  12.034  0.8123  1.5501  0.1907
15190TIP3    H266986   6.287   6.505  12.007 -0.7547 -0.0576  0.5746
15191TIP3   OH266987   3.122   2.025   0.816 -0.1302  0.0364  0.1205
15191TIP3    H166988   3.154   2.080   0.745 -0.3361  1.2260  0.9254
15191TIP3    H266989   3.193   2.025   0.880 -0.5779  0.3052  0.6265
15192TIP3   OH266990   2.984   6.449   6.021 -0.1398  0.2108 -0.0016
15192TIP3    H166991   2.904   6.501   6.020  0.4565  1.1768  0.5157
15192TIP3    H266992   2.976   6.391   5.945 -1.1360  0.5857 -0.1947
15193TIP3   OH266993   3.168   4.798  16.171 -0.2981 -0.4086 -0.0769
15193TIP3    H166994   3.227   4.855  16.122  0.8954 -0.5898  1.1108
15193TIP3    H266995   3.181   4.823  16.263 -2.3186 -0.2274  0.2143
15194TIP3   OH266996   0.500   5.612   5.411  0.4734  0.4651  0.1253
15194TIP3    H166997   0.513   5.520   5.431 -2.4060  0.2925  1.9095
15194TIP3    H266998   0.481   5.652   5.497 -0.5463  2.2433 -0.8684
15195TIP3   OH266999   3.267   1.489  15.250 -0.3371  0.6984 -0.4975
15195TIP3    H167000   3.271   1.458  15.160  0.4594  0.5331 -0.4126
15195TIP3    H267001   3.306   1.419  15.302  1.6428  1.8511 -0.3218
15196TIP3   OH267002   1.111   6.237  17.228 -0.3895 -0.5775  0.3615
15196TIP3    H167003   1.164   6.314  17.208  0.5586 -1.0313  1.0608
15196TIP3    H267004   1.076   6.254  17.315 -2.0671  0.0591 -0.3816
15197TIP3   OH267005   0.919   0.761   2.871  0.3574 -0.1372  0.3000
15197TIP3    H167006   0.876   0.677   2.851  0.7111 -0.8559  2.3397
15197TIP3    H267007   1.004   0.736   2.906  0.0355  0.9875  2.0094
15198TIP3   OH267008   6.522   0.555  11.342 -0.5038  0.1979  0.9311
15198TIP3    H167009   6.480   0.546  11.256 -3.4637 -0.7451  2.3344
15198TIP3    H267010   6.571   0.474  11.353  2.3301  1.5075 -0.9282
15199TIP3   OH267011   6.270   3.212  11.640 -0.1932  0.1299  0.6624
15199TIP3    H167012   6.228   3.131  11.612 -0.6786  0.2784  0.9396
15199TIP3    H267013   6.237   3.279  11.579 -1.0864  0.4130  1.4194
15200TIP3   OH267014   4.247   2.130  17.210  0.0467  0.4096 -0.4390
15200TIP3    H167015   4.173   2.142  17.150  0.2920 -0.7477 -1.0092
15200TIP3    H267016   4.228   2.047  17.253 -0.4179  1.5022  1.5458
15201TIP3   OH267017   0.616   5.375   3.237  0.7794 -0.1422  0.2719
15201TIP3    H167018   0.524   5.358   3.255  0.7397  0.3107  0.5091
15201TIP3    H267019   0.629   5.342   3.148  0.5252 -0.6966  0.4330
15202TIP3   OH267020   0.388   2.517   2.736  0.3367 -0.5087 -0.5043
15202TIP3    H167021   0.436   2.548   2.812  0.7587 -0.1955 -0.8880
15202TIP3    H267022   0.428   2.433   2.713 -0.6640 -1.2598  0.4049
15203TIP3   OH267023   2.476   2.938   1.034 -0.3012 -0.1342 -0.0456
15203TIP3    H167024   2.529   2.878   0.982  0.7319 -1.5823  2.4484
15203TIP3    H267025   2.537   2.972   1.100 -1.5995  1.2924  0.4794
15204TIP3   OH267026   0.391   1.387  12.349 -0.0235 -0.6764 -0.2470
15204TIP3    H167027   0.380   1.481  12.362  1.9742 -0.4457  0.0610
15204TIP3    H267028   0.303   1.351  12.361 -0.7501  1.0975  0.0504
15205TIP3   OH267029   4.448   0.665   1.830  0.2708 -0.2676 -0.4488
15205TIP3    H167030   4.531   0.617   1.839  0.1864 -0.2510  0.5109
15205TIP3    H267031   4.393   0.607   1.778  0.2783 -1.0912  0.4325
15206TIP3   OH267032   0.382   6.221   4.648 -0.0788 -0.3354  0.1768
15206TIP3    H167033   0.447   6.234   4.578 -2.5951  1.0224 -2.1273
15206TIP3    H267034   0.355   6.130   4.638 -0.3247 -0.1902 -0.5707
15207TIP3   OH267035   0.389   2.557   2.231 -0.0443 -0.7125 -0.1031
15207TIP3    H167036   0.397   2.541   2.137 -0.5990 -0.8650 -0.1294
15207TIP3    H267037   0.465   2.514   2.270  0.4127 -0.2922 -0.5206
15208TIP3   OH267038   5.197   0.228  12.771 -0.2583 -0.5040  0.0514
15208TIP3    H167039   5.228   0.160  12.831  0.6544  1.0472  1.4170
15208TIP3    H267040   5.132   0.277  12.822 -1.3246 -0.6467 -1.1073
15209TIP3   OH267041   0.690   0.685   1.607  0.4471  0.4637 -0.0974
15209TIP3    H167042   0.768   0.681   1.552  1.7034  1.5527  1.5295
15209TIP3    H267043   0.630   0.741   1.558  1.2564  0.8496 -0.6738
15210TIP3   OH267044   0.795   1.207  13.555  0.3355 -0.4193 -0.0811
15210TIP3    H167045   0.785   1.138  13.489 -1.1219 -0.3445  0.0390
15210TIP3    H267046   0.711   1.252  13.556  1.5196  2.0044 -0.8361
15211TIP3   OH267047   0.138   5.538   1.883  0.0900  0.0534 -0.7591
15211TIP3    H167048   0.132   5.446   1.907  0.9254  0.0755 -0.4128
15211TIP3    H267049   0.060   5.555   1.831 -0.4799 -0.6456 -0.1540
15212TIP3   OH267050   2.898   3.488  15.160  0.3971 -0.2523  0.3488
15212TIP3    H167051   2.869   3.536  15.237  1.0349 -0.5569  0.7913
15212TIP3    H267052   2.854   3.403  15.166  0.8613 -0.4765  0.6765
15213TIP3   OH267053   1.188   2.109   2.314  0.6018  0.0459 -0.1564
15213TIP3    H167054   1.150   2.156   2.240 -0.5241 -0.2334  0.2239
15213TIP3    H267055   1.215   2.178   2.375  2.0193  0.3012 -1.0139
15214TIP3   OH267056   0.712   1.515  17.130 -0.4902  0.1511 -0.2064
15214TIP3    H167057   0.629   1.560  17.145 -0.1041  0.8526 -0.1505
15214TIP3    H267058   0.766   1.578  17.081 -0.0074 -0.3121 -0.2823
15215TIP3   OH267059   1.000   6.368  14.113 -0.1630  0.2690 -0.1686
15215TIP3    H167060   0.939   6.294  14.115 -0.0754  0.1718 -0.8473
15215TIP3    H267061   1.079   6.332  14.071 -1.2392  1.5507 -3.6499
15216TIP3   OH267062   6.204   5.162  16.098 -0.5602  0.1540 -0.4433
15216TIP3    H167063   6.297   5.182  16.107 -0.7675  1.9965 -1.8159
15216TIP3    H267064   6.165   5.242  16.062 -2.8866 -0.1605  1.0906
15217TIP3   OH267065   0.548   1.151   6.230  0.0186 -0.1769 -0.5104
15217TIP3    H167066   0.456   1.127   6.232  0.1438 -0.6804 -0.5219
15217TIP3    H267067   0.591   1.077   6.187  0.7843 -1.1756  1.8237
15218TIP3   OH267068   4.499   0.648  12.182  0.4097 -0.2349 -0.6569
15218TIP3    H167069   4.577   0.677  12.134  0.1607  3.0724  0.6750
15218TIP3    H267070   4.427   0.697  12.142 -0.2287  0.3735  1.1575
15219TIP3   OH267071   6.277   0.836  12.944 -0.6665  0.5777 -0.3080
15219TIP3    H167072   6.233   0.835  12.859  0.6342  0.6504 -1.0237
15219TIP3    H267073   6.363   0.874  12.925 -0.7867  1.7206  1.2804
15220TIP3   OH267074   0.872   2.382  11.828  0.3845  0.2385 -0.1491
15220TIP3    H167075   0.915   2.340  11.754  1.5731  2.3921 -0.7816
15220TIP3    H267076   0.874   2.476  11.807 -2.5457  0.6343  0.9478
15221TIP3   OH267077   2.062   2.908  12.924  0.0322 -0.2525 -0.0527
15221TIP3    H167078   2.098   2.830  12.966  0.5728 -0.8930 -1.6341
15221TIP3    H267079   2.015   2.874  12.847 -0.6676  0.8905 -0.1469
15222TIP3   OH267080   5.780   5.300   5.276  0.2481  0.1239 -0.4678
15222TIP3    H167081   5.684   5.310   5.279  0.0698 -1.4777  0.3241
15222TIP3    H267082   5.813   5.378   5.319 -0.8936 -1.0236  2.7985
15223TIP3   OH267083   2.650   4.136   6.726  0.1205  0.0098 -0.1980
15223TIP3    H167084   2.565   4.156   6.687  1.9300  2.6372 -3.2567
15223TIP3    H267085   2.679   4.218   6.765  0.9563 -1.0652  1.5996
15224TIP3   OH267086   3.353   1.846  11.181 -0.1629  0.5431  0.0764
15224TIP3    H167087   3.306   1.843  11.097  0.7970 -2.0659 -0.4838
15224TIP3    H267088   3.443   1.868  11.158 -0.2464  1.5176  0.6492
15225TIP3   OH267089   6.770   3.477   0.686 -0.7449 -0.3180  0.2731
15225TIP3    H167090   6.774   3.523   0.770 -1.8729  0.6280 -0.1592
15225TIP3    H267091   6.681   3.441   0.682 -0.7612 -0.1991 -0.5831
15226TIP3   OH267092   5.757   5.216   5.973  0.0035  0.1736  0.3364
15226TIP3    H167093   5.742   5.186   5.883 -0.6894  0.2608  0.4191
15226TIP3    H267094   5.690   5.282   5.988  0.6929  0.8232  0.6108
15227TIP3   OH267095   1.281   3.843  15.730 -0.0454  0.1357  0.0492
15227TIP3    H167096   1.373   3.823  15.712 -0.2583 -0.8775  0.0751
15227TIP3    H267097   1.255   3.780  15.797 -0.5569  0.8994  0.5910
15228TIP3   OH267098   3.286   0.991  13.035 -0.8689 -0.1831  0.5397
15228TIP3    H167099   3.208   0.938  13.018 -0.6543 -0.3648  0.1133
15228TIP3    H267100   3.312   0.966  13.124 -0.6876 -0.9102  0.2904
15229TIP3   OH267101   3.328   3.219   3.242  0.2604 -0.6872 -0.4252
15229TIP3    H167102   3.245   3.267   3.239  1.0438  0.6941 -1.1415
15229TIP3    H267103   3.384   3.273   3.297  1.0357 -0.9911 -0.9069
15230TIP3   OH267104   4.413   0.809  15.021  0.4214 -0.3863 -0.4200
15230TIP3    H167105   4.356   0.794  15.096  0.7079  0.3516 -0.0373
15230TIP3    H267106   4.471   0.880  15.049 -1.5227  2.2077 -2.4216
15231TIP3   OH267107   2.547   1.562  14.484  0.1595  0.0007 -0.2010
15231TIP3    H167108   2.491   1.535  14.557 -0.6495  0.6121 -0.5855
15231TIP3    H267109   2.520   1.508  14.411  1.8565 -1.5410  0.2347
15232TIP3   OH267110   3.492   4.113   2.146 -0.8189  0.3098  0.4265
15232TIP3    H167111   3.465   4.078   2.231  0.6143 -0.5210  0.5668
15232TIP3    H267112   3.564   4.056   2.119  1.0088  2.6220  0.2145
15233TIP3   OH267113   0.753   4.147   1.560  0.2474  0.7909 -0.7555
15233TIP3    H167114   0.748   4.053   1.546  1.2116  0.8399 -1.5530
15233TIP3    H267115   0.839   4.162   1.598 -0.2550  1.2694  0.2441
15234TIP3   OH267116   2.715   6.490   4.784  0.1510  0.1334 -0.1767
15234TIP3    H167117   2.727   6.580   4.815 -0.9518  0.3376 -0.2832
15234TIP3    H267118   2.646   6.455   4.841  1.9893 -1.3459  1.2425
15235TIP3   OH267119   6.741   1.625   1.999 -0.3451 -0.4744  0.1581
15235TIP3    H167120   6.694   1.672   2.067 -1.7182 -1.8496  0.2300
15235TIP3    H267121   6.833   1.649   2.011 -0.8208  1.0297  1.0545
15236TIP3   OH267122   6.553   0.983   3.276 -0.4681  0.2175 -0.1614
15236TIP3    H167123   6.472   0.944   3.310 -0.2967 -0.1051 -0.1196
15236TIP3    H267124   6.617   0.968   3.346 -0.8107  2.1008  0.6144
15237TIP3   OH267125   5.983   3.763  13.526 -0.1355  0.9337 -0.0812
15237TIP3    H167126   5.951   3.741  13.438 -1.5934  1.1614  0.3724
15237TIP3    H267127   5.958   3.689  13.580  1.5352  0.3977  0.0006
15238TIP3   OH267128   6.208   3.300  16.785 -0.0780  0.1178 -0.0401
15238TIP3    H167129   6.239   3.391  16.783 -1.1335  0.5036 -1.7090
15238TIP3    H267130   6.132   3.300  16.726  1.0983 -2.2811 -1.7225
15239TIP3   OH267131   2.552   2.441  12.577  0.0943  0.2107 -0.1335
15239TIP3    H167132   2.478   2.472  12.630 -0.0626 -0.1035 -0.1632
15239TIP3    H267133   2.545   2.489  12.495 -1.0837 -1.0155 -0.8093
15240TIP3   OH267134   5.706   0.982  11.524 -0.4065 -0.5297 -0.0679
15240TIP3    H167135   5.747   0.900  11.554 -0.1595 -0.1051  0.7758
15240TIP3    H267136   5.709   0.975  11.428 -0.6965 -1.6579 -0.0162
15241TIP3   OH267137   2.642   6.193   4.568 -0.3811  0.1388 -0.3299
15241TIP3    H167138   2.551   6.169   4.585 -0.0061 -1.4092 -0.4201
15241TIP3    H267139   2.636   6.281   4.529 -1.7129  0.7810  1.1953
15242TIP3   OH267140   2.054   6.455   0.399  0.0497 -0.2252 -0.2507
15242TIP3    H167141   2.030   6.364   0.384  1.8642 -1.0258  1.2301
15242TIP3    H267142   2.052   6.465   0.494  0.7601  1.0290 -0.3418
15243TIP3   OH267143   4.597   1.464   5.276 -0.1719  0.0212 -0.4230
15243TIP3    H167144   4.522   1.474   5.217 -0.1962  0.2907 -0.3485
15243TIP3    H267145   4.665   1.425   5.222 -0.8081 -1.5243 -0.1441
15244TIP3   OH267146   3.966   2.552  12.589 -0.1133  0.6775  0.5750
15244TIP3    H167147   3.951   2.497  12.512 -0.5563  1.5874 -0.0040
15244TIP3    H267148   4.037   2.508  12.636 -0.0489 -0.0604 -0.1871
15245TIP3   OH267149   6.761   4.881   5.000 -0.2356  1.0588 -0.4923
15245TIP3    H167150   6.683   4.847   5.045  1.1548  0.1115  1.3756
15245TIP3    H267151   6.792   4.808   4.946  0.2881  0.8224  0.1087
15246TIP3   OH267152   6.381   1.187   5.912  0.1619  0.5118 -0.5778
15246TIP3    H167153   6.453   1.250   5.917  0.3751  0.2314 -0.0444
15246TIP3    H267154   6.341   1.203   5.826  0.9937  0.5223 -0.9751
15247TIP3   OH267155   4.630   4.580  11.712  0.3893  0.4038 -0.3637
15247TIP3    H167156   4.593   4.492  11.706  1.6149 -0.2585  1.0246
15247TIP3    H267157   4.614   4.619  11.626 -1.6794 -0.5383 -0.4518
15248TIP3   OH267158   2.058   5.298   3.966 -0.0185 -0.7337  0.5248
15248TIP3    H167159   2.120   5.340   4.027  0.3089 -0.4608  0.0106
15248TIP3    H267160   2.065   5.350   3.886  2.0324 -3.0246 -0.9146
15249TIP3   OH267161   0.555   4.041  12.659 -0.2459  0.0173  0.5321
15249TIP3    H167162   0.504   4.002  12.588 -1.5251 -0.1953  1.5190
15249TIP3    H267163   0.562   3.971  12.725  0.8950  0.2127  0.6363
15250TIP3   OH267164   3.779   5.581   4.049 -0.3092  0.0298  0.5879
15250TIP3    H167165   3.694   5.577   4.093 -0.7027 -1.6944 -0.2401
15250TIP3    H267166   3.765   5.538   3.965  0.4271  3.1485 -1.3213
15251TIP3   OH267167   5.781   0.175  13.922 -0.7228  0.0441 -0.4323
15251TIP3    H167168   5.806   0.248  13.979 -1.0731  0.5677 -0.9374
15251TIP3    H267169   5.845   0.178  13.851 -1.6203  0.8201 -1.2498
15252TIP3   OH267170   1.845   1.638  13.309 -0.5253  0.1810 -0.4357
15252TIP3    H167171   1.761   1.601  13.335 -0.8476 -0.1865 -1.9171
15252TIP3    H267172   1.822   1.714  13.256  0.1204  1.4557  1.0656
15253TIP3   OH267173   5.851   0.413  15.470 -0.5311 -0.1185  0.0004
15253TIP3    H167174   5.923   0.409  15.408 -0.0957 -0.9216  0.5373
15253TIP3    H267175   5.889   0.453  15.548 -0.7979 -0.0936  0.1193
15254TIP3   OH267176   6.424   6.133  16.469  0.0575  0.5391 -0.7191
15254TIP3    H167177   6.434   6.208  16.411 -2.0835  1.4370 -0.0310
15254TIP3    H267178   6.406   6.059  16.411 -1.5493  1.3225 -1.2508
15255TIP3   OH267179   6.412   6.122  11.607  0.1518 -0.2414  0.7115
15255TIP3    H167180   6.369   6.103  11.524  0.6270 -1.1315  0.6546
15255TIP3    H267181   6.452   6.208  11.594 -1.0240  0.2951  0.5400
15256TIP3   OH267182   2.018   3.075  14.831  0.5467 -0.1486 -0.1258
15256TIP3    H167183   2.004   3.167  14.853  2.9303  0.2953 -0.1491
15256TIP3    H267184   2.012   3.072  14.735 -0.0702 -0.1538 -0.0936
15257TIP3   OH267185   3.946   0.547   3.057  0.5711  0.2273  0.4300
15257TIP3    H167186   3.997   0.470   3.080 -0.6876 -1.8087 -2.9448
15257TIP3    H267187   4.008   0.620   3.064  2.2621 -1.2597  2.0549
15258TIP3   OH267188   3.511   6.351  15.252  0.3687 -0.2345  0.0008
15258TIP3    H167189   3.487   6.360  15.159  2.9867  1.2591 -0.6114
15258TIP3    H267190   3.605   6.364  15.254  0.7621 -2.5808  2.6426
15259TIP3   OH267191   1.130   1.511   5.351 -0.3069 -0.3834 -0.2424
15259TIP3    H167192   1.181   1.560   5.416  2.1266 -0.9345 -1.6375
15259TIP3    H267193   1.102   1.432   5.398 -1.0908  0.5623  0.9391
15260TIP3   OH267194   0.786   0.103   5.124  0.1396 -0.1200 -0.5941
15260TIP3    H167195   0.824   0.138   5.044  0.1757  0.8575 -0.1582
15260TIP3    H267196   0.696   0.134   5.124  0.3328  0.4900  0.0752
15261TIP3   OH267197   4.743   2.794  16.791  0.0827 -0.5903  0.0044
15261TIP3    H167198   4.740   2.874  16.844 -2.1920 -1.0696  0.7260
15261TIP3    H267199   4.823   2.749  16.819  0.1742  0.3210  1.3063
15262TIP3   OH267200   1.088   0.343  11.178  0.0802  0.6253 -0.9653
15262TIP3    H167201   1.145   0.405  11.133  1.2112  0.1151 -0.2669
15262TIP3    H267202   1.062   0.281  11.110  2.5919 -0.7375 -0.8139
15263TIP3   OH267203   0.069   5.136  15.072 -0.3965  0.3770 -0.2191
15263TIP3    H167204  -0.018   5.158  15.036 -0.6879  0.3352  0.4541
15263TIP3    H267205   0.071   5.177  15.158  0.8536  1.6873 -0.8387
15264TIP3   OH267206   4.691   5.180  13.781  0.3760 -0.1981 -0.3432
15264TIP3    H167207   4.617   5.236  13.802 -1.1819 -1.7332 -1.4892
15264TIP3    H267208   4.768   5.238  13.790 -0.9014  1.4047  0.9494
15265TIP3   OH267209   5.381   1.397   1.132 -0.0117  0.1811 -0.1450
15265TIP3    H167210   5.396   1.318   1.184  0.1537 -0.4480 -1.1278
15265TIP3    H267211   5.342   1.365   1.050 -1.8994  1.3029  0.2560
15266TIP3   OH267212   4.747   0.024   0.307  0.2548  0.0831  0.1046
15266TIP3    H167213   4.769   0.104   0.259 -0.9691  1.5129  1.7701
15266TIP3    H267214   4.832  -0.017   0.325  0.9078  0.9221 -0.9110
15267TIP3   OH267215   1.057   0.337   3.695  0.3058  0.1960  0.4646
15267TIP3    H167216   1.017   0.424   3.691 -0.5684 -0.1310  1.4831
15267TIP3    H267217   1.078   0.325   3.788 -0.0472 -0.8738  0.4206
15268TIP3   OH267218   0.948   6.740  13.265 -0.5256  0.5665  0.1139
15268TIP3    H167219   1.030   6.746  13.217 -0.4110  0.7594  0.3306
15268TIP3    H267220   0.963   6.791  13.345 -0.9718  0.8958 -0.0089
15269TIP3   OH267221   6.648   4.720  16.277 -0.1685 -0.1573  0.3251
15269TIP3    H167222   6.603   4.789  16.228 -1.2237  0.3376  1.8988
15269TIP3    H267223   6.625   4.640  16.230  0.6096  0.4567 -1.1987
15270TIP3   OH267224   0.086   4.639  12.115  0.4120 -0.3119  0.3245
15270TIP3    H167225   0.082   4.696  12.038  0.2342 -0.4045  0.2660
15270TIP3    H267226   0.008   4.662  12.166 -1.2555 -2.4934 -1.0875
15271TIP3   OH267227   6.108   6.317   3.842  0.3348  0.4273  0.4627
15271TIP3    H167228   6.084   6.355   3.926 -0.4485 -1.4962  1.1835
15271TIP3    H267229   6.156   6.385   3.797  0.6954  1.5460  2.4390
15272TIP3   OH267230   0.583   0.541   3.624 -0.1286 -0.7630  0.1361
15272TIP3    H167231   0.632   0.619   3.650 -1.5762  0.1303  0.3511
15272TIP3    H267232   0.526   0.523   3.699 -1.6085 -0.4843 -0.8753
15273TIP3   OH267233   1.618   4.316   1.419 -0.0751  0.2293 -0.1387
15273TIP3    H167234   1.633   4.248   1.353  1.9945  0.8239 -0.3507
15273TIP3    H267235   1.525   4.308   1.441 -0.7997 -0.1389 -2.9207
15274TIP3   OH267236   1.371   2.971   1.485  0.7016  0.3458  0.2460
15274TIP3    H167237   1.366   2.965   1.390  0.7524 -1.2670  0.3078
15274TIP3    H267238   1.459   3.005   1.502  0.6494  0.7550 -0.2751
15275TIP3   OH267239   1.098   0.676  15.450 -0.0807  0.3535 -0.5790
15275TIP3    H167240   1.174   0.724  15.482 -0.0619  1.2530 -1.8813
15275TIP3    H267241   1.090   0.701  15.358 -0.4388 -1.7028 -1.1701
15276TIP3   OH267242   3.236   1.566  11.880  0.1659 -0.4499  0.4150
15276TIP3    H167243   3.203   1.593  11.966  1.5693 -0.5549  1.0163
15276TIP3    H267244   3.226   1.471  11.879  0.9679 -0.5468  0.8404
15277TIP3   OH267245   6.524   3.259   2.939  0.0554 -0.7193  0.0544
15277TIP3    H167246   6.559   3.326   2.879 -0.8061  0.3903  0.7479
15277TIP3    H267247   6.596   3.197   2.950  1.3368  0.7595  0.3501
15278TIP3   OH267248   1.558   2.978  15.448  0.6536 -0.4847 -0.4230
15278TIP3    H167249   1.576   3.071  15.462  0.2843 -0.7159  1.8989
15278TIP3    H267250   1.645   2.937  15.443  0.8152 -0.0514 -1.3802
15279TIP3   OH267251   3.000   4.724   4.627 -0.6778  0.1454  0.7098
15279TIP3    H167252   3.005   4.655   4.692  2.1587 -1.0481 -0.6304
15279TIP3    H267253   3.066   4.788   4.654  0.5677 -0.3836 -0.8931
15280TIP3   OH267254   2.399   0.360   5.938  0.3942  0.0632  0.1207
15280TIP3    H167255   2.415   0.453   5.919  1.9767 -0.0303  0.8132
15280TIP3    H267256   2.347   0.360   6.018 -2.6493  0.3694 -1.7047
15281TIP3   OH267257   6.523   0.948  12.853  0.5219  0.1068  0.1578
15281TIP3    H167258   6.593   0.941  12.918 -0.1049  0.0391  0.8365
15281TIP3    H267259   6.467   1.019  12.886 -0.8475 -1.1801  0.7207
15282TIP3   OH267260   2.732   0.783   3.988  0.1507 -0.9945 -0.3629
15282TIP3    H167261   2.782   0.759   4.067  0.3962  2.6078  0.8071
15282TIP3    H267262   2.796   0.781   3.917  1.3924  0.8544  0.6140
15283TIP3   OH267263   1.684   1.376   1.141 -0.2895  0.1020 -0.1437
15283TIP3    H167264   1.764   1.410   1.181 -0.6949 -0.3901  1.1391
15283TIP3    H267265   1.666   1.295   1.188 -2.0317  0.6606  0.2376
15284TIP3   OH267266   5.165   2.447  13.541 -0.2497 -0.1141 -0.4749
15284TIP3    H167267   5.175   2.464  13.635 -1.6500 -1.5575 -0.0063
15284TIP3    H267268   5.104   2.514  13.511  1.9788  1.8369 -0.9423
15285TIP3   OH267269   6.196   0.750  16.602 -0.2224 -0.4455  0.2319
15285TIP3    H167270   6.113   0.738  16.648 -0.2844 -1.1566 -0.0411
15285TIP3    H267271   6.171   0.764  16.511 -0.0933  0.8012  0.3690
15286TIP3   OH267272   5.183   4.570  16.540 -0.4021  0.0374  0.0365
15286TIP3    H167273   5.137   4.645  16.503 -1.6068 -1.5096 -1.7884
15286TIP3    H267274   5.117   4.501  16.545  1.1074 -1.4958 -0.2490
15287TIP3   OH267275   5.515   6.029   2.211 -0.5030 -0.1781 -0.0886
15287TIP3    H167276   5.482   6.052   2.124 -1.3784  1.7448  0.6880
15287TIP3    H267277   5.559   5.945   2.199 -1.5531 -0.4982 -2.1555
15288TIP3   OH267278   3.362   6.170   4.982 -0.1084 -0.4435  0.3537
15288TIP3    H167279   3.289   6.205   4.931  0.0575  1.4484  1.3219
15288TIP3    H267280   3.384   6.087   4.939 -0.9915  0.2946 -1.6589
15289TIP3   OH267281   4.348   5.901   1.236  0.4115 -0.3913  0.1180
15289TIP3    H167282   4.349   5.954   1.316  1.0669  0.5468 -0.4844
15289TIP3    H267283   4.259   5.911   1.202  0.6762  0.8073 -0.2764
15290TIP3   OH267284   3.803   5.445  12.494  0.1786 -0.0290  0.3380
15290TIP3    H167285   3.828   5.518  12.438  0.4907  1.6379  2.4749
15290TIP3    H267286   3.709   5.455  12.506  0.3914  0.7650  1.5320
15291TIP3   OH267287   4.621   0.330   2.137  0.1799 -0.1761  0.2842
15291TIP3    H167288   4.697   0.276   2.161  0.6144  0.8155  1.2134
15291TIP3    H267289   4.546   0.276   2.162  0.4601 -2.0222 -2.4660
15292TIP3   OH267290   4.446   4.028  17.067 -0.1370  0.2159  0.2575
15292TIP3    H167291   4.399   4.104  17.102 -0.0609  1.1799 -1.6459
15292TIP3    H267292   4.527   4.064  17.032  0.4970 -0.9484  0.4739
15293TIP3   OH267293   4.857   1.232   5.719  0.0659 -0.7423  0.2580
15293TIP3    H167294   4.784   1.293   5.717 -0.0677 -0.7786  2.1199
15293TIP3    H267295   4.873   1.211   5.628  1.5308  3.6788 -0.7246
15294TIP3   OH267296   1.150   3.534  14.997  0.0766  0.7859 -0.0772
15294TIP3    H167297   1.067   3.553  15.041  1.1689  1.7378  1.6729
15294TIP3    H267298   1.216   3.574  15.053  1.8004 -0.6765 -0.9914
15295TIP3   OH267299   2.689   5.936  15.140  0.0034  0.1317  0.1971
15295TIP3    H167300   2.704   6.016  15.190  0.2308 -0.3394  0.9011
15295TIP3    H267301   2.605   5.903  15.172  0.3571 -0.4021  0.6078
15296TIP3   OH267302   0.803   5.866   1.451 -0.0460 -0.4548 -0.7219
15296TIP3    H167303   0.710   5.842   1.451 -0.2748  0.3764 -0.5882
15296TIP3    H267304   0.849   5.783   1.459 -0.8086 -0.8060  0.3023
15297TIP3   OH267305   6.667   4.618  11.588 -0.1112 -0.3840 -0.3026
15297TIP3    H167306   6.639   4.549  11.648 -0.5158  0.1336  0.1133
15297TIP3    H267307   6.628   4.596  11.504 -0.2745 -0.6340 -0.1597
15298TIP3   OH267308   1.060   3.239  12.996  0.0504 -0.2659 -0.7850
15298TIP3    H167309   1.033   3.331  12.997 -0.1341 -0.3208 -0.2425
15298TIP3    H267310   1.116   3.230  13.073 -1.8156 -1.1584  0.5405
15299TIP3   OH267311   2.024   6.144   3.287  0.2950 -0.2814  0.4215
15299TIP3    H167312   1.946   6.195   3.267 -0.1265  0.6912  3.8397
15299TIP3    H267313   1.992   6.067   3.333  1.1909 -1.6281 -1.1345
15300TIP3   OH267314   6.586   0.250   5.786 -0.1033  0.1392 -0.1168
15300TIP3    H167315   6.579   0.335   5.830 -1.8538 -0.4916  0.9456
15300TIP3    H267316   6.644   0.198   5.841 -0.0568  0.2525 -0.0598
15301TIP3   OH267317   6.206   4.304   1.222  0.5591 -0.4600  0.1411
15301TIP3    H167318   6.147   4.300   1.146  1.3446  0.5853 -0.5486
15301TIP3    H267319   6.152   4.341   1.291  0.9443  2.7978 -1.1249
15302TIP3   OH267320   6.498   0.348  15.460 -0.0043 -0.0533 -0.8381
15302TIP3    H167321   6.587   0.314  15.463  0.5732  1.4272  0.9149
15302TIP3    H267322   6.444   0.278  15.497  0.5459 -0.6748 -1.2131
15303TIP3   OH267323   2.938   5.795  15.141 -0.0232 -0.4546 -0.5840
15303TIP3    H167324   2.922   5.701  15.135 -2.4091 -0.1505  0.0535
15303TIP3    H267325   2.857   5.835  15.111  1.1284  1.4515 -1.3791
15304TIP3   OH267326   2.496   2.368  17.260  0.4644  0.5932 -0.0673
15304TIP3    H167327   2.413   2.415  17.265 -0.3237 -0.7812  0.4218
15304TIP3    H267328   2.521   2.371  17.168 -0.8827 -0.1942 -0.4765
15305TIP3   OH267329   1.154   5.593  11.377 -0.2568 -0.0612  0.7385
15305TIP3    H167330   1.117   5.515  11.418 -0.6951  0.5647  1.5507
15305TIP3    H267331   1.079   5.644  11.348 -0.0171  0.7511  1.5214
15306TIP3   OH267332   0.312   6.009  13.906  0.4994  0.1232 -0.7315
15306TIP3    H167333   0.384   6.052  13.952  0.2616  0.0824 -0.3226
15306TIP3    H267334   0.302   6.060  13.825  1.0677  0.0501 -0.8524
15307TIP3   OH267335   2.920   4.992  15.257 -0.3557  0.0515 -0.4703
15307TIP3    H167336   2.949   4.902  15.243 -1.2727 -0.0205 -2.1017
15307TIP3    H267337   2.827   4.992  15.234 -0.8122  1.0605  1.1777
15308TIP3   OH267338   1.821   1.054   1.134  0.5996  1.0023 -0.0761
15308TIP3    H167339   1.750   1.091   1.187 -1.1535 -0.8994 -0.9942
15308TIP3    H267340   1.812   0.959   1.145  0.9840  0.6020 -2.7157
15309TIP3   OH267341   4.296   6.079   2.053 -0.0404 -0.1354 -0.0421
15309TIP3    H167342   4.215   6.109   2.012  0.5024  0.2736 -0.8492
15309TIP3    H267343   4.364   6.103   1.991  0.6517 -0.9656  0.3759
15310TIP3   OH267344   2.571   0.555  13.401  0.0605 -0.1986  0.5249
15310TIP3    H167345   2.569   0.463  13.374  0.8143 -0.0631 -0.0488
15310TIP3    H267346   2.609   0.601  13.325 -1.0984  0.7088  0.4659
15311TIP3   OH267347   2.444   3.020   1.882 -0.2913  0.6010  0.5176
15311TIP3    H167348   2.500   3.091   1.851 -1.5710  1.6287  0.4765
15311TIP3    H267349   2.477   2.999   1.969  2.2478 -1.1396 -0.7391
15312TIP3   OH267350   1.046   6.054  15.968 -0.4489 -0.0042  0.1262
15312TIP3    H167351   1.134   6.088  15.986 -0.1089 -0.3775 -0.7747
15312TIP3    H267352   1.053   5.960  15.985 -0.0351 -0.4311 -2.0853
15313TIP3   OH267353   5.740   4.794   4.040 -0.2191 -0.3092  0.3297
15313TIP3    H167354   5.666   4.743   4.074 -1.7015  1.0298 -0.7124
15313TIP3    H267355   5.771   4.744   3.965 -0.9201 -0.2809  0.0065
15314TIP3   OH267356   1.079   4.276  11.098  0.1348  0.0954  0.2602
15314TIP3    H167357   1.138   4.351  11.085  2.9518 -1.9649  0.0987
15314TIP3    H267358   1.051   4.283  11.189  1.2003  0.8141  0.5529
15315TIP3   OH267359   0.688   5.612  11.407 -0.1369  0.0924 -0.0323
15315TIP3    H167360   0.778   5.597  11.381 -0.3612 -0.4397 -0.5411
15315TIP3    H267361   0.693   5.677  11.477  0.4404  2.1426 -1.8806
15316TIP3   OH267362   0.818   1.946  15.284 -0.4091  0.4127 -0.1230
15316TIP3    H167363   0.894   1.995  15.254 -1.5374  2.0830 -0.3880
15316TIP3    H267364   0.855   1.870  15.329  1.3811  0.4490 -1.4057
15317TIP3   OH267365   3.174   1.671  14.065 -0.1435  0.1052  0.1739
15317TIP3    H167366   3.212   1.644  14.148  0.5169  0.8975  0.1379
15317TIP3    H267367   3.119   1.746  14.086  3.2094  3.0670 -0.5639
15318TIP3   OH267368   2.754   2.489   2.647  0.6822  0.0235 -0.4885
15318TIP3    H167369   2.812   2.413   2.658  1.4212  0.6138 -0.2698
15318TIP3    H267370   2.777   2.548   2.719 -0.7051 -0.0422  0.0416
15319TIP3   OH267371   3.338   3.855  12.459 -0.0455 -0.5285 -0.0085
15319TIP3    H167372   3.294   3.887  12.537  0.9521 -0.2412  0.4501
15319TIP3    H267373   3.298   3.904  12.387 -0.1104  0.0987  0.4517
15320TIP3   OH267374   3.182   3.681   5.623  0.5691 -0.3940  0.7502
15320TIP3    H167375   3.196   3.775   5.614 -1.1058 -0.2479 -0.8971
15320TIP3    H267376   3.261   3.642   5.585  0.0030  0.3890 -1.4257
15321TIP3   OH267377   3.406   0.746   5.887 -0.5374  0.1521 -0.0961
15321TIP3    H167378   3.491   0.755   5.845 -0.4227 -1.2459 -0.2288
15321TIP3    H267379   3.399   0.822   5.945  0.6549  0.4544 -0.3198
15322TIP3   OH267380   3.728   6.703   1.733 -0.4403 -0.0604  0.2040
15322TIP3    H167381   3.638   6.735   1.723 -0.1831  0.5262 -0.3949
15322TIP3    H267382   3.778   6.757   1.671  0.1903 -0.9200 -0.0447
15323TIP3   OH267383   2.783   6.611  15.503 -0.1953  0.0385 -0.0756
15323TIP3    H167384   2.808   6.532  15.456 -2.3015  1.0488 -3.2526
15323TIP3    H267385   2.861   6.666  15.500 -0.0204 -0.2418 -1.8605
15324TIP3   OH267386   3.367   2.560   5.288  0.3454  0.0745 -0.5799
15324TIP3    H167387   3.288   2.602   5.255 -1.0750 -2.5136 -0.7473
15324TIP3    H267388   3.411   2.525   5.210  0.1551 -0.8757 -0.2822
15325TIP3   OH267389   4.570   2.466   2.304 -0.1026 -0.3205 -0.5254
15325TIP3    H167390   4.501   2.511   2.353  1.7380  0.1585  1.8341
15325TIP3    H267391   4.640   2.531   2.296  1.6708 -1.9377  0.8261
15326TIP3   OH267392   2.254   5.755   5.422  0.0260  0.8691  0.5022
15326TIP3    H167393   2.257   5.806   5.502  1.7578  0.8327  0.5073
15326TIP3    H267394   2.200   5.679   5.443  0.4933  0.8405  1.6637
15327TIP3   OH267395   2.590   2.600  16.991 -0.6828 -0.5786 -0.3754
15327TIP3    H167396   2.540   2.613  17.071  0.3271 -1.7043  0.4920
15327TIP3    H267397   2.560   2.515  16.958 -0.9246 -0.2297 -1.0834
15328TIP3   OH267398   4.103   6.189   2.578  0.8018 -0.0999 -0.1990
15328TIP3    H167399   4.085   6.202   2.485 -3.2110 -0.9821  0.2800
15328TIP3    H267400   4.129   6.276   2.609  0.0707  0.7172 -1.7538
15329TIP3   OH267401   3.625   3.897  16.071 -0.4217 -0.5568 -0.7927
15329TIP3    H167402   3.535   3.874  16.095 -0.2809 -0.9035 -0.5907
15329TIP3    H267403   3.658   3.946  16.147 -0.4802 -0.3209 -0.9203
15330TIP3   OH267404   3.104   2.952   2.491  0.2451  0.3024 -0.0594
15330TIP3    H167405   3.148   3.029   2.526  0.4895  0.1268  0.0211
15330TIP3    H267406   3.035   2.987   2.435  1.5860  0.5819 -1.5972
15331TIP3   OH267407   6.322   2.148  13.988 -0.3720  0.5417 -0.6342
15331TIP3    H167408   6.392   2.157  14.054  0.3798  0.0153 -1.3403
15331TIP3    H267409   6.363   2.178  13.906 -0.8457 -0.1749 -1.1382
15332TIP3   OH267410   4.952   5.701   5.992 -0.0969  0.3195  0.4662
15332TIP3    H167411   4.933   5.792   6.015  0.5092  0.3304  0.9398
15332TIP3    H267412   5.044   5.689   6.015 -0.0500 -0.2833 -0.0192
15333TIP3   OH267413   1.577   1.410  11.809 -0.3469  0.0432 -0.3593
15333TIP3    H167414   1.524   1.478  11.852 -2.1075 -0.4182 -1.6773
15333TIP3    H267415   1.668   1.438  11.823 -0.8985  0.7950  2.1179
15334TIP3   OH267416   6.374   0.957  16.357  0.2575  0.6586 -0.2013
15334TIP3    H167417   6.455   0.998  16.388  0.5851  1.2733 -1.7854
15334TIP3    H267418   6.305   0.999  16.409  0.8792  0.6592  0.6452
15335TIP3   OH267419   6.428   4.203   5.023  0.3046  0.0064 -0.0481
15335TIP3    H167420   6.365   4.248   4.966 -0.4045 -0.6125  0.2260
15335TIP3    H267421   6.437   4.261   5.098  1.7217  1.1348 -1.0285
15336TIP3   OH267422   6.534   1.419   2.299 -0.6827 -0.1641  0.3035
15336TIP3    H167423   6.608   1.359   2.290 -0.8860 -0.1819 -1.6026
15336TIP3    H267424   6.523   1.456   2.211 -0.4810  2.7726  1.4087
15337TIP3   OH267425   0.159   2.013   2.195 -0.1397 -0.1066 -0.0732
15337TIP3    H167426   0.192   2.093   2.155  1.1086  0.7705  2.5046
15337TIP3    H267427   0.066   2.011   2.173 -0.5709  2.9137  1.0722
15338TIP3   OH267428   1.653   2.913  16.042  0.1752 -0.4124 -0.0991
15338TIP3    H167429   1.686   2.852  16.108  0.9132 -0.5369 -0.5701
15338TIP3    H267430   1.658   2.865  15.960  0.9270  0.3177 -0.5060
15339TIP3   OH267431   6.124   1.343  11.174 -0.0829 -0.6372 -0.0896
15339TIP3    H167432   6.044   1.368  11.220  1.2264 -0.1598  2.0841
15339TIP3    H267433   6.188   1.330  11.244  1.7858 -0.8305 -1.7621
15340TIP3   OH267434   0.355   0.263   3.742  0.0794 -0.3021  0.2815
15340TIP3    H167435   0.409   0.231   3.814  1.0377  0.3799 -0.1166
15340TIP3    H267436   0.324   0.183   3.699 -0.8634 -0.7252  1.6724
15341TIP3   OH267437   5.410   1.420   4.260 -0.7869 -0.1041  0.0725
15341TIP3    H167438   5.439   1.496   4.311 -0.4049  0.8168 -1.4489
15341TIP3    H267439   5.322   1.401   4.293 -1.2709  1.5981 -0.1243
15342TIP3   OH267440   3.405   6.071  12.058  0.0381 -0.2556 -0.0972
15342TIP3    H167441   3.436   6.091  12.146  0.0143  2.2695 -0.5882
15342TIP3    H267442   3.479   6.092  12.001 -0.3603 -0.6624 -0.7791
15343TIP3   OH267443   2.829   3.116  12.048  0.0451 -0.4947  0.4593
15343TIP3    H167444   2.741   3.084  12.026  1.1628 -2.4499 -1.4803
15343TIP3    H267445   2.842   3.191  11.989  0.3344 -1.3374 -0.5785
15344TIP3   OH267446   4.733   3.537   5.634  0.8151 -0.4745 -1.3067
15344TIP3    H167447   4.782   3.609   5.673  0.5815 -0.1276 -1.6408
15344TIP3    H267448   4.792   3.461   5.640  2.1903  0.3375 -3.4214
15345TIP3   OH267449   1.712   3.384  15.994  0.0410 -0.0221  0.1140
15345TIP3    H167450   1.705   3.298  16.034 -0.9651 -0.3275 -0.6690
15345TIP3    H267451   1.805   3.394  15.973  0.3660 -0.3906  1.3142
15346TIP3   OH267452   0.825   3.193  11.418  0.3273 -0.2158 -0.4909
15346TIP3    H167453   0.865   3.129  11.360  0.0042 -1.4272  0.5863
15346TIP3    H267454   0.855   3.278  11.385  3.5929 -1.0212  0.1285
15347TIP3   OH267455   0.759   2.462  14.564  0.5920 -0.1627  0.3379
15347TIP3    H167456   0.840   2.443  14.611  0.4779  1.4549  1.2732
15347TIP3    H267457   0.691   2.415  14.612  0.9686 -1.7215 -0.5918
15348TIP3   OH267458   2.704   3.229  15.042  0.2208 -0.1297 -0.3784
15348TIP3    H167459   2.705   3.142  15.083 -0.7414  0.2761  0.5602
15348TIP3    H267460   2.644   3.280  15.096  1.0038  1.2203 -0.7321
15349TIP3   OH267461   2.881   3.804  12.474 -0.0984 -0.5743  0.0336
15349TIP3    H167462   2.940   3.877  12.495 -0.1525  0.3936 -2.7645
15349TIP3    H267463   2.810   3.844  12.424 -0.2144 -2.4688 -1.4513
15350TIP3   OH267464   6.578   3.085  13.020  0.0678  0.0030 -0.1261
15350TIP3    H167465   6.494   3.040  13.010 -0.1256  0.5045 -0.8202
15350TIP3    H267466   6.553   3.176  13.038  0.3674  1.1252 -4.3607
15351TIP3   OH267467   5.673   2.839   0.840  0.1885  0.0002  0.3229
15351TIP3    H167468   5.748   2.887   0.875  0.9291 -0.5138 -0.4948
15351TIP3    H267469   5.712   2.771   0.785 -0.8758 -0.5228  0.1794
15352TIP3   OH267470   5.822   1.672   5.949 -0.1569  0.2182 -0.0171
15352TIP3    H167471   5.818   1.751   6.003 -0.5035  0.9420 -1.0838
15352TIP3    H267472   5.772   1.694   5.870 -1.1190 -1.4048  0.0953
15353TIP3   OH267473   0.220   1.609   2.339  0.4280  0.8871 -0.2281
15353TIP3    H167474   0.241   1.528   2.294 -0.5707 -0.0748  0.9607
15353TIP3    H267475   0.206   1.673   2.269  0.8091 -0.0647 -1.1939
15354TIP3   OH267476   2.100   1.827  16.031  0.0439 -0.3621  0.1586
15354TIP3    H167477   2.035   1.767  16.068  1.1320 -1.3733  0.5147
15354TIP3    H267478   2.057   1.865  15.955 -1.8433  0.8847  1.7252
15355TIP3   OH267479   1.032   1.869  12.623 -0.0439  0.1724 -0.0084
15355TIP3    H167480   1.034   1.787  12.672  0.4206  1.2763  1.9531
15355TIP3    H267481   0.939   1.886  12.608 -0.2694  0.1286  1.1777
15356TIP3   OH267482   3.853   6.545   3.172 -0.2483 -0.7420 -0.4132
15356TIP3    H167483   3.837   6.598   3.250 -0.2558 -1.6421  0.2210
15356TIP3    H267484   3.813   6.594   3.101 -1.3816 -0.5052  0.3527
15357TIP3   OH267485   6.013   4.127  13.327  0.4468 -0.4946  0.1450
15357TIP3    H167486   5.989   4.081  13.408 -1.6517  0.6737  0.2695
15357TIP3    H267487   6.101   4.096  13.307  1.0247 -0.8699  2.8496
15358TIP3   OH267488   0.441   6.146   0.160 -0.1731  0.0340  0.2264
15358TIP3    H167489   0.454   6.144   0.066  0.6085  1.9205  0.2556
15358TIP3    H267490   0.397   6.063   0.180 -0.5365 -0.3104 -1.8026
15359TIP3   OH267491   4.079   0.572   1.458 -0.4669 -0.0723 -0.2263
15359TIP3    H167492   4.063   0.524   1.377  0.2539  0.1902 -0.5321
15359TIP3    H267493   3.996   0.567   1.505 -0.5680 -1.1730 -0.4772
15360TIP3   OH267494   0.973   0.436  14.045 -0.4636 -0.1248  0.1266
15360TIP3    H167495   1.025   0.413  14.122 -0.6323  0.4573  0.4262
15360TIP3    H267496   0.961   0.531  14.052  1.0145  0.2408 -1.5650
15361TIP3   OH267497   2.610   4.531   4.812 -0.3432 -0.7335  0.4510
15361TIP3    H167498   2.587   4.438   4.811 -1.5326 -0.4511 -0.3477
15361TIP3    H267499   2.626   4.550   4.904  0.3283 -1.8239  0.5767
15362TIP3   OH267500   2.550   1.250  17.219 -0.0792  0.0314 -0.0383
15362TIP3    H167501   2.586   1.170  17.255 -0.9062  0.2117  1.2533
15362TIP3    H267502   2.604   1.320  17.257 -0.3307  0.1691  0.0677
15363TIP3   OH267503   5.574   2.447  12.198  0.9205 -0.1246 -0.4176
15363TIP3    H167504   5.493   2.429  12.151 -0.4043  0.8963  1.3350
15363TIP3    H267505   5.622   2.364  12.198 -1.3534 -1.5233  0.7383
15364TIP3   OH267506   0.303   5.252   2.724 -0.0215  0.2289 -0.0856
15364TIP3    H167507   0.232   5.204   2.681  0.0974 -0.0679  0.0517
15364TIP3    H267508   0.320   5.326   2.666  1.3465 -1.1208 -1.4800
15365TIP3   OH267509   1.427   5.789  12.913 -0.1774  0.1272 -0.2426
15365TIP3    H167510   1.419   5.744  12.829  0.2127  0.1703 -0.3047
15365TIP3    H267511   1.341   5.780  12.953 -0.4039  0.2228 -0.7042
15366TIP3   OH267512   0.879   6.515   3.448 -0.1794  0.2227 -0.4344
15366TIP3    H167513   0.867   6.608   3.428  0.0257  0.7685  1.6982
15366TIP3    H267514   0.879   6.472   3.363 -0.4812  2.1473 -1.4710
15367TIP3   OH267515   5.220   6.377   3.444  0.0246 -0.2378 -0.3818
15367TIP3    H167516   5.169   6.298   3.428  0.6655 -0.7206 -0.0701
15367TIP3    H267517   5.157   6.439   3.481 -1.1345  0.3550 -3.1352
15368TIP3   OH267518   6.149   1.135  15.632  0.4579 -0.1074  0.0600
15368TIP3    H167519   6.059   1.166  15.646  0.6363  0.0981  0.7907
15368TIP3    H267520   6.152   1.112  15.539  0.0656  1.2261 -0.3092
15369TIP3   OH267521   1.051   3.139   5.288  0.9338 -0.5870 -0.1008
15369TIP3    H167522   0.998   3.064   5.263 -0.2614  0.0795  0.3825
15369TIP3    H267523   1.084   3.174   5.204  1.1992 -1.4132 -0.3490
15370TIP3   OH267524   2.657   3.457   3.097 -0.1815 -0.4096  0.3891
15370TIP3    H167525   2.696   3.539   3.125  0.2944 -0.1899 -0.8610
15370TIP3    H267526   2.569   3.458   3.135  0.3355 -0.0318  1.6244
15371TIP3   OH267527   4.085   6.275  15.100 -0.0115 -0.1294  0.2048
15371TIP3    H167528   4.165   6.287  15.049  0.4649 -0.2748  0.9087
15371TIP3    H267529   4.042   6.199  15.061  0.3305 -0.2159 -0.0047
15372TIP3   OH267530   1.995   6.102   0.883  0.1482  0.1799  0.1610
15372TIP3    H167531   1.993   6.046   0.961 -0.0827  0.4001  0.3158
15372TIP3    H267532   1.945   6.053   0.817 -1.8858  1.1006  0.9209
15373TIP3   OH267533   2.367   1.316  11.067  0.3293  0.2283  0.1216
15373TIP3    H167534   2.370   1.222  11.051 -1.4108  0.1070  0.2568
15373TIP3    H267535   2.340   1.325  11.158 -0.5889  0.8176 -0.1815
15374TIP3   OH267536   5.536   1.212   3.223  0.5199 -0.1240 -0.5336
15374TIP3    H167537   5.611   1.162   3.254  1.5457  1.3952 -0.4277
15374TIP3    H267538   5.531   1.193   3.129  0.1468 -1.2989 -0.2953
15375TIP3   OH267539   1.067   0.632  12.109 -0.2035  0.2044  0.5227
15375TIP3    H167540   1.129   0.559  12.116  1.8972  1.8606  0.1986
15375TIP3    H267541   1.071   0.658  12.017 -2.0146 -0.1323  0.3210
15376TIP3   OH267542   2.014   6.700   0.251  0.1004 -0.0068  0.3850
15376TIP3    H167543   2.026   6.621   0.303 -2.7752 -0.2099  0.9219
15376TIP3    H267544   2.049   6.678   0.165 -1.0623 -2.0836  0.3777
15377TIP3   OH267545   3.273   3.389   4.428 -0.4646 -0.4956  0.0961
15377TIP3    H167546   3.194   3.412   4.477 -0.8895  0.7215 -1.0782
15377TIP3    H267547   3.263   3.296   4.409 -0.3391 -0.9659  2.1501
15378TIP3   OH267548   5.399   5.256   6.097  0.1541 -0.1857 -0.0046
15378TIP3    H167549   5.327   5.298   6.144  0.3184  0.5353 -0.3793
15378TIP3    H267550   5.437   5.195   6.160  0.4656  0.8587  0.8406
15379TIP3   OH267551   5.852   0.674   6.137  0.5369  0.3866 -0.1037
15379TIP3    H167552   5.914   0.608   6.107 -0.8025 -1.6925  1.4105
15379TIP3    H267553   5.900   0.724   6.203  1.6050  1.0799 -1.3546
15380TIP3   OH267554   6.643   4.139  14.394  0.4786 -0.0520  0.4519
15380TIP3    H167555   6.693   4.213  14.430 -0.0251  1.6698 -2.1174
15380TIP3    H267556   6.552   4.164  14.405  0.3113  0.1673 -1.2326
15381TIP3   OH267557   0.576   2.732  15.665  0.0624  0.7553  0.2426
15381TIP3    H167558   0.646   2.721  15.729  0.2694  0.5521 -0.0113
15381TIP3    H267559   0.520   2.656  15.677  0.9282 -0.0871 -0.8205
15382TIP3   OH267560   1.452   4.012  16.346  0.2193  0.1514 -0.0682
15382TIP3    H167561   1.472   4.049  16.260 -1.8610  0.6377 -0.4003
15382TIP3    H267562   1.361   4.037  16.362 -0.1541 -1.8319  1.2821
15383TIP3   OH267563   1.269   5.163   4.759  0.5270 -0.1158  0.1435
15383TIP3    H167564   1.358   5.168   4.724  0.3599  2.2270 -0.1080
15383TIP3    H267565   1.247   5.070   4.756  3.2889 -0.9007  1.0615
15384TIP3   OH267566   0.522   4.284   3.425 -0.6357 -0.1642  0.0143
15384TIP3    H167567   0.533   4.350   3.493  0.2313  1.0858 -1.2756
15384TIP3    H267568   0.457   4.321   3.366  0.4125 -0.0735 -1.1263
15385TIP3   OH267569   0.080   4.177   4.076  0.5622  0.1971  0.0768
15385TIP3    H167570   0.140   4.212   4.142  0.3507  1.0125 -0.1572
15385TIP3    H267571   0.138   4.138   4.010  0.7613 -2.6915  1.7931
15386TIP3   OH267572   4.336   0.548   4.602  0.0312  0.6509  0.1025
15386TIP3    H167573   4.341   0.536   4.697  0.3681  0.1881  0.0306
15386TIP3    H267574   4.297   0.635   4.591  0.2704  0.8368  0.6664
15387TIP3   OH267575   1.059   2.014   1.981  0.4414 -0.7355 -0.4809
15387TIP3    H167576   1.124   2.081   2.001  0.5328 -1.1401  0.6358
15387TIP3    H267577   0.979   2.062   1.962  0.9663 -0.2456 -1.5564
15388TIP3   OH267578   6.531   2.319  16.133 -1.0769 -0.1091 -0.6718
15388TIP3    H167579   6.600   2.253  16.142 -0.9654  0.2498  1.7040
15388TIP3    H267580   6.578   2.400  16.113 -0.9770 -0.2485 -0.9982
15389TIP3   OH267581   0.706   3.395  15.916 -0.0736 -0.1949  0.1028
15389TIP3    H167582   0.764   3.463  15.950  0.9545 -0.3546 -1.2614
15389TIP3    H267583   0.683   3.343  15.993  0.8037  0.4678  0.8381
15390TIP3   OH267584   5.263   6.658  17.053  0.4005 -0.0958  0.2742
15390TIP3    H167585   5.249   6.639  16.961 -1.3377 -2.2541  0.9067
15390TIP3    H267586   5.355   6.684  17.059  0.3649  0.7722 -2.1255
15391TIP3   OH267587   3.869   1.777   3.927 -0.2186  0.6433  0.3475
15391TIP3    H167588   3.885   1.699   3.873 -2.3540  0.3962 -0.0160
15391TIP3    H267589   3.953   1.824   3.926  0.5681 -0.6731 -0.9990
15392TIP3   OH267590   6.192   0.170  14.803  0.2782  0.1595  0.4257
15392TIP3    H167591   6.220   0.209  14.887 -0.6601 -0.2841  0.9538
15392TIP3    H267592   6.099   0.191  14.796 -0.0410 -1.2270  0.2991
15393TIP3   OH267593   5.894   1.474   0.189  0.7623 -0.5153 -0.6163
15393TIP3    H167594   5.969   1.416   0.180  1.0026 -0.5677  1.2506
15393TIP3    H267595   5.917   1.551   0.136  1.2889 -1.3070 -1.5616
15394TIP3   OH267596   0.607   6.338   3.582  0.7698  0.0485 -0.4028
15394TIP3    H167597   0.678   6.339   3.518 -1.2622 -0.8496 -2.8379
15394TIP3    H267598   0.636   6.275   3.648  2.8502  0.8298 -0.4817
15395TIP3   OH267599   0.691   2.158  11.404  0.2886 -0.0427 -0.2549
15395TIP3    H167600   0.665   2.078  11.358 -0.2637 -0.7778  1.2702
15395TIP3    H267601   0.666   2.142  11.495  1.9434  1.0929  0.4401
15396TIP3   OH267602   6.282   4.053   3.061  0.7106 -0.3827  0.6259
15396TIP3    H167603   6.236   4.102   2.992  0.9610 -1.2884 -0.2167
15396TIP3    H267604   6.289   4.114   3.134 -1.2463  0.0032  0.5453
15397TIP3   OH267605   6.623   6.333  11.628 -0.1913 -0.5607  0.6221
15397TIP3    H167606   6.616   6.374  11.542 -0.1366 -0.8791  0.4668
15397TIP3    H267607   6.659   6.246  11.611 -0.4486 -0.7301  0.9410
15398TIP3   OH267608   4.121   3.799  16.987 -0.5618  0.2540 -0.0754
15398TIP3    H167609   4.190   3.767  16.930  0.0083  2.8604 -0.9693
15398TIP3    H267610   4.147   3.771  17.075  0.5297 -0.5883 -0.6543
15399TIP3   OH267611   0.617   4.430  13.846  0.1934 -0.1880 -0.1220
15399TIP3    H167612   0.710   4.445  13.831  0.3824 -0.2191  0.9195
15399TIP3    H267613   0.575   4.514  13.829  0.4155 -0.1746 -0.5929
15400TIP3   OH267614   0.033   1.244  11.171  0.2685 -0.0506 -0.3030
15400TIP3    H167615  -0.024   1.171  11.148  0.4130 -0.5260  0.7591
15400TIP3    H267616  -0.019   1.296  11.233  1.1940 -0.9041  1.2790
15401TIP3   OH267617   0.953   0.811   2.580 -0.6925  0.2428  0.0615
15401TIP3    H167618   1.007   0.846   2.652  0.6148 -1.3364 -0.1116
15401TIP3    H267619   0.966   0.717   2.584 -1.5807  0.0284 -1.5024
15402TIP3   OH267620   2.751   6.574   2.268 -0.2724 -0.0439 -0.0912
15402TIP3    H167621   2.795   6.490   2.257 -0.5010  0.0058 -1.5491
15402TIP3    H267622   2.815   6.639   2.239 -0.1966  0.2824  0.7704
15403TIP3   OH267623   6.440   0.424  13.110 -0.4023 -0.2334 -0.3318
15403TIP3    H167624   6.347   0.440  13.096 -0.9868 -0.7815  2.3346
15403TIP3    H267625   6.484   0.481  13.047 -2.5246  0.8740 -0.8992
15404TIP3   OH267626   5.659   1.216   5.295  0.0619  0.3709  1.0911
15404TIP3    H167627   5.573   1.258   5.288 -0.0231 -0.0699 -1.0583
15404TIP3    H267628   5.717   1.286   5.324 -1.1098  0.4911  3.3612
15405TIP3   OH267629   3.946   4.125  13.009 -0.1622  0.7977  0.0009
15405TIP3    H167630   3.970   4.047  12.959  0.2955  1.0726 -0.2251
15405TIP3    H267631   3.999   4.195  12.969 -2.4689  1.7697 -1.5748
15406TIP3   OH267632   5.949   2.722  16.109 -0.2772 -0.2799 -0.3709
15406TIP3    H167633   5.981   2.733  16.020  0.6367  1.0645  0.0869
15406TIP3    H267634   5.874   2.663  16.101 -0.5796  0.2929 -2.0914
15407TIP3   OH267635   4.132   1.126   1.913 -0.4628  0.2282  0.3193
15407TIP3    H167636   4.189   1.096   1.842  0.0458  0.6126  0.5575
15407TIP3    H267637   4.150   1.065   1.985 -1.2183 -0.3612  0.0219
15408TIP3   OH267638   0.367   2.569   3.501 -0.0265 -0.6157  0.5321
15408TIP3    H167639   0.339   2.649   3.543 -0.3937 -0.3473 -0.2046
15408TIP3    H267640   0.286   2.527   3.472  0.2644  0.1266 -1.5394
15409TIP3   OH267641   0.827   5.802  15.237  0.3280  0.3088 -0.6655
15409TIP3    H167642   0.911   5.829  15.199  0.6914 -0.5442 -0.4941
15409TIP3    H267643   0.835   5.707  15.247 -0.8340  0.1507 -1.0720
15410TIP3   OH267644   0.031   2.243   3.356  0.0233 -0.4406 -0.0844
15410TIP3    H167645  -0.051   2.208   3.390 -0.2442  1.4997  1.4083
15410TIP3    H267646   0.055   2.183   3.285 -1.3005 -2.5699  1.1502
15411TIP3   OH267647   4.338   2.394  12.381 -0.5303  0.4213  0.1605
15411TIP3    H167648   4.266   2.351  12.426 -1.3019  0.6829 -0.7964
15411TIP3    H267649   4.417   2.357  12.421 -1.1408 -2.0890 -0.8015
15412TIP3   OH267650   6.427   3.593   6.432  0.0903  0.6049 -0.2466
15412TIP3    H167651   6.461   3.600   6.521 -0.1238 -1.3307  0.0181
15412TIP3    H267652   6.493   3.543   6.385 -0.6218  0.0814 -0.7083
15413TIP3   OH267653   0.997   1.625   5.019 -0.0446  0.1261  0.0224
15413TIP3    H167654   0.916   1.675   5.012 -1.2810 -1.9309 -1.2629
15413TIP3    H267655   1.066   1.688   4.997 -1.3519  1.6602  0.1345
15414TIP3   OH267656   0.723   2.143  15.536 -0.6427  0.3936 -0.0627
15414TIP3    H167657   0.637   2.169  15.504 -1.0234  1.3325  1.6023
15414TIP3    H267658   0.705   2.079  15.605 -0.0041  0.4670  0.1815
15415TIP3   OH267659   2.105   5.084  13.922  0.1236 -0.5871  0.5554
15415TIP3    H167660   2.017   5.096  13.885  0.3877 -2.0544 -0.6229
15415TIP3    H267661   2.091   5.073  14.016 -0.9194 -0.4348  0.4235
15416TIP3   OH267662   3.466   2.095   2.023 -0.0758  0.2678 -0.6029
15416TIP3    H167663   3.486   2.150   2.099 -0.4422  0.9019 -0.9552
15416TIP3    H267664   3.509   2.139   1.950  0.0125 -0.1697 -0.8162
15417TIP3   OH267665   4.071   4.059   6.224  0.8250 -0.0118 -0.1464
15417TIP3    H167666   3.991   4.088   6.180 -0.4700  0.1713  2.2150
15417TIP3    H267667   4.080   3.967   6.199 -0.0648 -0.0094 -0.5008
15418TIP3   OH267668   3.471   2.899  11.993 -0.4290  0.3188  0.0242
15418TIP3    H167669   3.516   2.840  11.933 -0.3192 -0.1941  0.6009
15418TIP3    H267670   3.526   2.977  11.997  1.4437 -0.9891  2.1360
15419TIP3   OH267671   4.332   3.498  14.168 -0.1040  0.2470 -0.0370
15419TIP3    H167672   4.390   3.422  14.174 -0.5706 -0.0092  1.8950
15419TIP3    H267673   4.322   3.513  14.074  0.5169 -1.6864 -0.4561
15420TIP3   OH267674   6.623   4.318   0.183  0.2733  0.0444 -0.1964
15420TIP3    H167675   6.540   4.307   0.136  0.7805 -1.9691 -0.7158
15420TIP3    H267676   6.652   4.406   0.160 -0.8182  0.0969 -1.5080
15421TIP3   OH267677   1.575   2.078  16.715  0.3455  0.1216 -0.3927
15421TIP3    H167678   1.664   2.109  16.731  0.6015 -1.1948  0.9433
15421TIP3    H267679   1.520   2.156  16.729  1.2055  0.7511 -0.4274
15422TIP3   OH267680   6.680   2.307   2.317  0.2420  0.1283 -0.0018
15422TIP3    H167681   6.636   2.318   2.402  1.7764 -2.0015  1.1687
15422TIP3    H267682   6.744   2.378   2.313 -0.9237  1.2028 -0.1571
15423TIP3   OH267683   5.455   1.604   3.012  0.2237 -0.7634 -0.1789
15423TIP3    H167684   5.535   1.581   3.060  0.8158 -1.5702 -1.4728
15423TIP3    H267685   5.431   1.690   3.046  0.8521 -1.0976  1.2240
15424TIP3   OH267686   2.879   6.758   4.041  0.0520 -0.1703  0.1378
15424TIP3    H167687   2.887   6.852   4.029 -0.1937 -0.2945 -1.2045
15424TIP3    H267688   2.948   6.721   3.985 -1.5231 -0.8407 -1.4628
15425TIP3   OH267689   1.534   3.658   2.133  0.2797  0.1480 -0.2099
15425TIP3    H167690   1.562   3.608   2.210 -0.8276 -1.7646 -0.9583
15425TIP3    H267691   1.615   3.681   2.089  0.8613 -1.0414  0.1782
15426TIP3   OH267692   4.231   0.476  14.991  0.6615  0.3142 -0.2050
15426TIP3    H167693   4.147   0.509  15.023  0.1440  1.7498 -2.7260
15426TIP3    H267694   4.297   0.522  15.044 -0.0775 -0.7790  1.7546
15427TIP3   OH267695   0.171   6.457  16.653 -0.2594  0.0164 -0.1568
15427TIP3    H167696   0.219   6.381  16.619  0.4482 -0.4318  1.7363
15427TIP3    H267697   0.094   6.463  16.596  0.3631 -1.2811 -1.2046
15428TIP3   OH267698   4.890   1.243  11.285  0.1125 -0.6086 -0.5986
15428TIP3    H167699   4.984   1.246  11.303  0.1479 -0.7954 -0.7466
15428TIP3    H267700   4.856   1.327  11.316  0.2500 -0.7367 -0.0942
15429TIP3   OH267701   3.913   1.521  16.133 -0.1355  0.1697 -0.1989
15429TIP3    H167702   3.952   1.511  16.046  0.5483 -1.3252  0.2458
15429TIP3    H267703   3.842   1.457  16.135 -0.3777  0.4462  0.2254
15430TIP3   OH267704   2.080   6.004  11.561  0.0813 -0.2035  0.5948
15430TIP3    H167705   2.001   5.954  11.580 -1.1698  1.2991 -0.4591
15430TIP3    H267706   2.068   6.087  11.607  1.2321 -0.0989  0.7344
15431TIP3   OH267707   0.889   4.704  15.903  0.0932 -0.0131  0.2320
15431TIP3    H167708   0.907   4.796  15.885  1.8550 -0.3321  0.1525
15431TIP3    H267709   0.960   4.656  15.860 -1.0640 -1.4601 -0.1596
15432TIP3   OH267710   5.838   1.899  12.037 -0.0242  0.3578 -0.2704
15432TIP3    H167711   5.865   1.808  12.047 -0.1598  0.3132 -0.3082
15432TIP3    H267712   5.826   1.931  12.127  0.7210  0.5498 -0.2331
15433TIP3   OH267713   6.075   1.636   2.756 -0.7918 -0.6487 -0.6229
15433TIP3    H167714   6.009   1.705   2.751 -1.3388 -1.2094 -1.4723
15433TIP3    H267715   6.155   1.681   2.780 -1.8524 -0.1947  2.6218
15434TIP3   OH267716   2.221   6.058  16.497 -0.7696 -0.5221 -0.0001
15434TIP3    H167717   2.149   6.121  16.491 -0.5193 -0.1858  0.4705
15434TIP3    H267718   2.259   6.074  16.584  0.9144  0.4279 -0.8746
15435TIP3   OH267719   1.565   0.728  12.833 -0.2014  0.0625 -0.6513
15435TIP3    H167720   1.600   0.638  12.834  0.5434  0.2289 -3.5663
15435TIP3    H267721   1.473   0.718  12.811 -0.1567 -0.0099 -0.8086
15436TIP3   OH267722   3.701   2.711   0.816  0.2922 -0.4697 -0.0173
15436TIP3    H167723   3.649   2.782   0.780  1.2254 -1.4303 -3.7724
15436TIP3    H267724   3.782   2.753   0.845  0.4618  0.1581 -1.3190
15437TIP3   OH267725   1.945   2.817   1.688  0.0005 -0.6470 -0.3772
15437TIP3    H167726   1.970   2.727   1.665 -0.0481 -1.1356  1.3281
15437TIP3    H267727   1.864   2.833   1.639  2.4475  0.3153 -4.6035
15438TIP3   OH267728   1.983   3.484   5.934 -0.0759 -0.5104  0.3221
15438TIP3    H167729   1.952   3.409   5.885  1.6735 -0.0478 -1.6289
15438TIP3    H267730   2.062   3.453   5.978 -1.2809 -0.7431  2.4720
15439TIP3   OH267731   0.979   5.643  12.680 -0.3982  0.3992 -0.2287
15439TIP3    H167732   1.030   5.614  12.604 -2.5809 -1.7400 -1.0315
15439TIP3    H267733   0.903   5.687  12.643 -0.6149  0.9198  0.7929
15440TIP3   OH267734   0.797   4.979   2.395 -0.3306 -0.3237 -0.2119
15440TIP3    H167735   0.704   4.960   2.412 -0.3419  0.4905  0.6793
15440TIP3    H267736   0.827   5.025   2.473  0.4174  0.8346 -1.1496
15441TIP3   OH267737   0.078   1.033   4.977  0.5532 -0.8454  0.6348
15441TIP3    H167738   0.056   0.953   5.025 -0.1949 -0.5378  0.8224
15441TIP3    H267739   0.049   1.015   4.887 -2.5525  0.3090  1.2812
15442TIP3   OH267740   3.285   0.950  11.722  0.1678  0.2004  0.2410
15442TIP3    H167741   3.266   0.902  11.642 -1.3867 -0.8025  1.1723
15442TIP3    H267742   3.345   0.894  11.771  0.4584  0.4432  0.1740
15443TIP3   OH267743   4.413   0.749   1.110  0.3374 -0.8092 -0.0009
15443TIP3    H167744   4.498   0.767   1.070  0.1162 -0.0987 -0.1521
15443TIP3    H267745   4.392   0.660   1.082  2.4512 -2.2758  2.5229
15444TIP3   OH267746   0.236   6.494   6.754 -0.1335 -0.0035 -0.8104
15444TIP3    H167747   0.173   6.437   6.798 -0.0152  0.6158  0.1851
15444TIP3    H267748   0.300   6.517   6.822 -0.4882  1.7609 -1.0284
15445TIP3   OH267749   2.938   0.419   5.318 -0.0477  0.1819 -0.4160
15445TIP3    H167750   2.875   0.378   5.259 -1.2116  2.3356 -0.7826
15445TIP3    H267751   2.898   0.411   5.405 -0.1742  0.3489 -0.4582
15446TIP3   OH267752   6.768   4.203  13.403 -0.1474  0.0692 -0.7250
15446TIP3    H167753   6.696   4.180  13.462  0.9234 -0.2074  0.5002
15446TIP3    H267754   6.841   4.148  13.431  1.0616  1.5434 -0.8480
15447TIP3   OH267755   2.793   6.716  14.588 -0.1185  0.1126  0.0266
15447TIP3    H167756   2.807   6.727  14.682  0.9452  0.8224 -0.1917
15447TIP3    H267757   2.881   6.711  14.551 -0.5214 -0.0606 -0.9487
15448TIP3   OH267758   0.233   6.453  11.203 -0.3881  0.1773 -0.1639
15448TIP3    H167759   0.305   6.508  11.232  0.5751 -1.0492 -0.1314
15448TIP3    H267760   0.254   6.431  11.112  0.1694 -1.5057  0.3361
15449TIP3   OH267761   3.414   6.467   0.287  0.0355  0.3485 -0.0176
15449TIP3    H167762   3.489   6.477   0.346  1.2462 -0.2913 -1.4096
15449TIP3    H267763   3.339   6.459   0.346  1.1325  0.3035  1.4310
15450TIP3   OH267764   6.135   1.957   1.350  0.3570 -0.0576 -0.2765
15450TIP3    H167765   6.169   2.045   1.369 -0.3831  0.0616  0.5247
15450TIP3    H267766   6.212   1.901   1.351  0.6607  0.3578  0.6022
15451TIP3   OH267767   4.825   5.675   3.417 -0.2126  0.0462 -0.0581
15451TIP3    H167768   4.819   5.650   3.509 -1.2393 -0.3590 -0.2249
15451TIP3    H267769   4.796   5.597   3.370 -0.7391  0.6119 -0.6858
15452TIP3   OH267770   2.015   1.354   1.599 -0.2401  0.3145 -0.2212
15452TIP3    H167771   2.104   1.350   1.634 -0.5809 -2.4898  0.6127
15452TIP3    H267772   1.960   1.374   1.674 -0.6456 -2.2410  0.2426
15453TIP3   OH267773   5.382   2.348   5.038 -0.3272 -0.7198  0.3233
15453TIP3    H167774   5.343   2.435   5.039  1.0212 -0.0666  2.1564
15453TIP3    H267775   5.404   2.331   5.130 -1.2294 -3.3227  0.1308
15454TIP3   OH267776   4.327   1.438   4.847 -0.2200  0.4271 -0.6321
15454TIP3    H167777   4.250   1.389   4.818 -0.1994 -0.2639  0.4352
15454TIP3    H267778   4.396   1.410   4.788 -0.3554 -0.3696 -0.4220
15455TIP3   OH267779   3.507   2.457  16.071  0.8282 -0.3486  0.4752
15455TIP3    H167780   3.421   2.491  16.097  0.0565 -0.6904 -1.4483
15455TIP3    H267781   3.499   2.362  16.076  1.9045 -0.3857  2.5789
15456TIP3   OH267782   5.048   3.738  17.256  0.3922 -0.3432 -0.0689
15456TIP3    H167783   5.133   3.711  17.221  0.6027 -0.7542  0.7081
15456TIP3    H267784   4.984   3.688  17.206  0.5666  0.3593 -1.0153
15457TIP3   OH267785   5.627   1.850   3.551  0.3303  0.2602 -0.2165
15457TIP3    H167786   5.616   1.882   3.462  1.8867 -0.3217 -0.6519
15457TIP3    H267787   5.597   1.922   3.607 -0.1968  0.8175 -1.1951
15458TIP3   OH267788   4.215   5.383  16.143  0.4110 -0.2000  0.4023
15458TIP3    H167789   4.206   5.299  16.189 -0.0293  0.1892  1.0468
15458TIP3    H267790   4.200   5.449  16.211  0.3522  0.3946 -0.1817
15459TIP3   OH267791   5.378   2.752   2.340  0.4546  0.4458 -0.2975
15459TIP3    H167792   5.464   2.726   2.374 -0.0694 -0.5575  0.3099
15459TIP3    H267793   5.383   2.848   2.336  1.6302  0.4043 -0.3673
15460TIP3   OH267794   0.155   0.732  15.763  0.0949 -0.3947  0.7509
15460TIP3    H167795   0.149   0.639  15.785 -0.2161 -0.5901 -0.1038
15460TIP3    H267796   0.191   0.733  15.674 -2.3660  0.1652 -0.3172
15461TIP3   OH267797   6.721   2.886   5.200 -0.1189 -0.2474 -0.1595
15461TIP3    H167798   6.713   2.796   5.169  1.6251 -0.6239  0.3399
15461TIP3    H267799   6.797   2.885   5.258 -0.1521  1.5200 -0.0076
15462TIP3   OH267800   0.016   6.652  16.954  0.2711 -0.2944  0.2427
15462TIP3    H167801   0.012   6.734  16.906 -0.3417 -0.9779 -0.9169
15462TIP3    H267802  -0.073   6.639  16.987  0.1231 -0.9481 -0.3870
15463TIP3   OH267803   1.485   3.444  10.659 -0.1835 -0.1946 -0.0686
15463TIP3    H167804   1.466   3.421  10.750  0.5016  0.5388  0.2757
15463TIP3    H267805   1.402   3.435  10.613 -0.7365  0.2915  0.8168
15464TIP3   OH267806   6.029   0.505   0.144 -0.0485 -0.0698  0.0784
15464TIP3    H167807   6.014   0.599   0.156  0.5224 -0.0802  1.0036
15464TIP3    H267808   6.030   0.493   0.050  0.3571  0.9461 -0.0630
15465TIP3   OH267809   4.811   5.656  17.171 -0.4681  0.0945 -0.0361
15465TIP3    H167810   4.838   5.573  17.210  0.3491  1.0906  1.6435
15465TIP3    H267811   4.731   5.635  17.123  0.2000 -1.8163 -0.3871
15466TIP3   OH267812   3.135   1.000  16.057  0.4094 -0.1095  1.1354
15466TIP3    H167813   3.119   1.064  15.987  2.1099 -0.5948  0.2559
15466TIP3    H267814   3.092   1.037  16.134 -2.6508 -0.1536 -0.3894
15467TIP3   OH267815   1.728   1.854  14.805 -0.3103 -0.5989 -0.2398
15467TIP3    H167816   1.672   1.799  14.750 -1.0430  0.0321 -0.1493
15467TIP3    H267817   1.667   1.911  14.852  0.2751 -1.3220  1.4727
15468TIP3   OH267818   3.783   0.262   3.390  0.2824  0.3239 -0.0591
15468TIP3    H167819   3.789   0.276   3.296  0.2035 -1.4390 -0.3616
15468TIP3    H267820   3.836   0.333   3.428 -0.1433  1.3928 -1.3719
15469TIP3   OH267821   3.715   1.258   1.007 -0.5692 -0.3697  0.6728
15469TIP3    H167822   3.668   1.269   0.925 -0.5067 -1.1283  0.5324
15469TIP3    H267823   3.669   1.187   1.052  0.8605 -1.6496  0.2060
15470TIP3   OH267824   1.038   2.873  14.659 -0.1134 -0.1563  0.3770
15470TIP3    H167825   0.943   2.857  14.655  0.0512 -1.2712  0.5945
15470TIP3    H267826   1.077   2.786  14.650  0.9257  0.3948 -0.6795
15471TIP3   OH267827   2.749   3.422  12.464  0.4805 -0.5826  0.1611
15471TIP3    H167828   2.782   3.394  12.550  0.3405 -0.6471  0.1939
15471TIP3    H267829   2.811   3.490  12.436  0.9320 -1.0523 -0.0014
15472TIP3   OH267830   4.814   0.081  13.018  0.1634  0.0753 -0.5881
15472TIP3    H167831   4.826   0.067  13.112  0.7943 -0.7536 -0.7796
15472TIP3    H267832   4.870   0.155  12.997  0.0481  0.2396 -0.3159
15473TIP3   OH267833   1.266   3.641   4.393  0.0051  0.1624 -0.2629
15473TIP3    H167834   1.300   3.667   4.479  1.1355 -0.6986 -0.4157
15473TIP3    H267835   1.171   3.650   4.400  0.0595 -0.1430  1.1639
15474TIP3   OH267836   6.214   4.061   4.793 -0.7260  0.1423 -0.3993
15474TIP3    H167837   6.188   4.073   4.701  1.0729 -2.1206 -1.2877
15474TIP3    H267838   6.308   4.048   4.790 -0.8993 -2.1286  1.5087
15475TIP3   OH267839   4.489   1.890   3.959 -0.0010  0.0587  0.4954
15475TIP3    H167840   4.544   1.812   3.970  1.8307  0.8806 -2.0919
15475TIP3    H267841   4.435   1.871   3.883 -1.6584  0.2446  1.5680
15476TIP3   OH267842   2.727   2.841   0.921  0.1192  0.0334  0.2354
15476TIP3    H167843   2.784   2.764   0.928  0.9931  0.3752 -2.1911
15476TIP3    H267844   2.787   2.916   0.927 -0.6610  0.5652  2.0155
15477TIP3   OH267845   3.850   5.664  12.069  0.0022 -0.0421 -0.2009
15477TIP3    H167846   3.938   5.651  12.106 -0.2259 -3.3435 -0.5211
15477TIP3    H267847   3.860   5.644  11.976 -1.0233 -0.2322 -0.2804
15478TIP3   OH267848   3.726   0.943  16.206 -0.5996  0.4898 -0.9126
15478TIP3    H167849   3.713   0.851  16.227  2.8353  0.0493 -0.2060
15478TIP3    H267850   3.668   0.990  16.266 -1.6903 -1.1435 -0.6273
15479TIP3   OH267851   6.663   4.117  11.774  0.1881 -0.3228  0.0070
15479TIP3    H167852   6.638   4.075  11.856 -0.4245 -0.5130 -0.2692
15479TIP3    H267853   6.634   4.056  11.706 -1.0987  0.7005 -0.4124
15480TIP3   OH267854   3.099   6.765  15.916  0.0891  0.0279  0.0271
15480TIP3    H167855   3.051   6.846  15.935  2.1524  0.6824  3.0532
15480TIP3    H267856   3.067   6.702  15.980  0.4971 -0.7472 -0.5119
15481TIP3   OH267857   3.275   0.072  15.478  0.1852  0.5443 -0.0446
15481TIP3    H167858   3.255   0.159  15.512  0.2085  0.0219  1.3458
15481TIP3    H267859   3.301   0.088  15.387 -1.2904  1.8245 -0.2912
15482TIP3   OH267860   3.581   6.602   1.974  0.4166  0.6048  0.1791
15482TIP3    H167861   3.605   6.509   1.971 -0.2556  0.4224  0.3751
15482TIP3    H267862   3.643   6.644   1.914  1.7168  0.2636  1.2497
15483TIP3   OH267863   0.445   5.773  13.722  0.2133 -0.8949 -0.5268
15483TIP3    H167864   0.497   5.819  13.788 -0.1589 -0.9715 -0.1708
15483TIP3    H267865   0.501   5.769  13.645  0.7660 -1.0616 -0.1201
15484TIP3   OH267866   3.999   2.093  15.104 -0.2070 -0.3462  0.2840
15484TIP3    H167867   3.917   2.143  15.114 -0.8844 -1.4210  0.3091
15484TIP3    H267868   4.050   2.115  15.182 -0.2291  0.7496  0.0080
15485TIP3   OH267869   6.499   2.298  13.091  0.0428 -0.2167 -0.8139
15485TIP3    H167870   6.570   2.314  13.153 -0.6256 -0.4469  0.0131
15485TIP3    H267871   6.428   2.356  13.119 -0.6243 -1.0462 -0.7536
15486TIP3   OH267872   5.734   4.416  14.690  0.5741 -0.0669 -0.1205
15486TIP3    H167873   5.828   4.405  14.685  0.6237  0.6346 -1.0437
15486TIP3    H267874   5.698   4.331  14.664  0.9545  0.2145 -1.6741
15487TIP3   OH267875   3.783   6.621  13.465  0.2753 -0.2702  0.2077
15487TIP3    H167876   3.841   6.553  13.429 -1.8654 -0.8874 -2.4147
15487TIP3    H267877   3.753   6.669  13.388  1.8578  3.9716  1.9736
15488TIP3   OH267878   1.529   5.985   6.141 -0.0082  0.0185 -0.4848
15488TIP3    H167879   1.540   5.900   6.097  1.0115 -0.0781 -0.0737
15488TIP3    H267880   1.470   5.967   6.214  1.0733 -0.6017  0.2691
15489TIP3   OH267881   1.227   4.805  12.631  0.6739  0.3261  0.3124
15489TIP3    H167882   1.302   4.838  12.582 -0.2219  0.0965 -1.2571
15489TIP3    H267883   1.152   4.826  12.577 -0.2984 -0.5736  1.2674
15490TIP3   OH267884   6.391   6.019  13.191 -0.6479  0.0695  0.1830
15490TIP3    H167885   6.414   5.986  13.104 -2.4111 -1.1006  0.1039
15490TIP3    H267886   6.458   6.085  13.211  2.7216 -2.9939  0.0261
15491TIP3   OH267887   5.036   2.035  15.115  0.3536 -0.1378 -0.7043
15491TIP3    H167888   4.966   2.081  15.068  0.3536 -0.1376 -0.7044
15491TIP3    H267889   4.995   1.955  15.147  0.1774  0.1776 -0.1326
15492TIP3   OH267890   5.515   3.520   3.578 -0.4117 -0.0526  0.0935
15492TIP3    H167891   5.532   3.600   3.628 -1.3882  0.4174 -0.3113
15492TIP3    H267892   5.592   3.465   3.595  0.3308  1.0081  0.2877
15493TIP3   OH267893   0.822   3.171  13.419  0.1498 -0.0478  0.2682
15493TIP3    H167894   0.805   3.166  13.325  1.8917 -2.8504 -0.0153
15493TIP3    H267895   0.761   3.108  13.458  0.3364  0.1283  0.8639
15494TIP3   OH267896   3.699   6.171  14.279 -0.3312 -0.2273  0.2565
15494TIP3    H167897   3.699   6.075  14.283  0.1787 -0.2606 -0.3450
15494TIP3    H267898   3.609   6.196  14.297 -0.3082 -0.7822  1.1784
15495TIP3   OH267899   5.504   1.036   0.216 -0.1099  0.4107 -0.8738
15495TIP3    H167900   5.509   1.100   0.287 -0.1723 -2.0636  1.5516
15495TIP3    H267901   5.410   1.027   0.199 -0.0430  1.8686 -2.1891
15496TIP3   OH267902   3.990   3.938  11.275 -0.0396  0.6396  0.1010
15496TIP3    H167903   4.039   3.856  11.275 -2.1919 -0.7102  0.8593
15496TIP3    H267904   4.012   3.978  11.190 -0.1231 -1.4762 -0.9974
15497TIP3   OH267905   1.631   4.744   0.564  0.4036 -0.4955  0.2227
15497TIP3    H167906   1.702   4.717   0.506 -1.0075 -0.9605 -1.3458
15497TIP3    H267907   1.577   4.666   0.574 -1.5313  0.5863 -1.1267
15498TIP3   OH267908   3.133   3.188  12.057  0.4101 -0.4532  0.1567
15498TIP3    H167909   3.163   3.246  12.126 -1.0497  0.2368  0.2624
15498TIP3    H267910   3.055   3.146  12.093 -2.6293  2.5795 -2.1057
15499TIP3   OH267911   0.791   4.530  12.771  0.3684 -0.2207 -0.1541
15499TIP3    H167912   0.817   4.440  12.749 -0.8475 -0.3336 -1.2795
15499TIP3    H267913   0.736   4.520  12.849  0.7825 -0.3741  0.1209
15500TIP3   OH267914   5.791   1.318  16.580  0.1486 -0.1221  0.2765
15500TIP3    H167915   5.744   1.295  16.661  0.2955 -0.5194  0.2477
15500TIP3    H267916   5.867   1.367  16.610 -1.2492  2.2378  0.2424
15501TIP3   OH267917   2.993   1.758   5.623 -0.1863  0.0251  0.4877
15501TIP3    H167918   2.926   1.825   5.633 -0.4741 -0.3305  0.9987
15501TIP3    H267919   3.039   1.757   5.708 -0.2506 -0.4846  0.5224
15502TIP3   OH267920   3.611   1.426  12.375  0.3459  0.5050  0.1011
15502TIP3    H167921   3.551   1.398  12.444  1.1677 -0.6057  0.4142
15502TIP3    H267922   3.600   1.360  12.306  1.9111 -0.3556  0.6052
15503TIP3   OH267923   4.310   3.758  12.481 -0.0548 -0.3729 -0.2899
15503TIP3    H167924   4.306   3.663  12.493  0.2313 -0.2060  1.3656
15503TIP3    H267925   4.400   3.775  12.453  0.0589 -0.5476 -0.0406
15504TIP3   OH267926   0.118   5.676   5.303  0.2533 -0.8045  0.0714
15504TIP3    H167927   0.153   5.763   5.325 -1.0052 -0.4789  0.8324
15504TIP3    H267928   0.081   5.688   5.215  1.9076 -1.1348 -0.7191
15505TIP3   OH267929   4.142   6.640   0.851  0.1116 -0.3510  0.3243
15505TIP3    H167930   4.060   6.688   0.863  0.0258 -0.8448  1.8303
15505TIP3    H267931   4.115   6.549   0.839  0.4552 -0.6314  1.5683
15506TIP3   OH267932   2.563   4.356  14.667  0.4476 -0.4031 -0.4467
15506TIP3    H167933   2.545   4.332  14.576 -2.6897 -1.2342  0.2675
15506TIP3    H267934   2.611   4.438  14.661  2.9270 -1.8848 -2.8430
15507TIP3   OH267935   3.761   4.610   4.725  0.0901  0.1484 -0.2447
15507TIP3    H167936   3.695   4.679   4.718  0.4942  0.9122  2.5410
15507TIP3    H267937   3.823   4.630   4.655 -2.6632 -0.8215 -3.2336
15508TIP3   OH267938   4.211   2.169   2.205  0.0053 -0.9953 -0.1284
15508TIP3    H167939   4.147   2.142   2.271 -0.0915 -0.4721  0.0035
15508TIP3    H267940   4.292   2.127   2.232  0.0582 -0.4841  0.5536
15509TIP3   OH267941   3.501   1.306  15.599  0.0348  0.1836  0.3572
15509TIP3    H167942   3.484   1.256  15.519  0.7248 -2.2217  1.6000
15509TIP3    H267943   3.596   1.315  15.602 -0.0299  0.8196  0.5903
15510TIP3   OH267944   4.832   0.704   0.484 -0.0600  0.1612 -0.4414
15510TIP3    H167945   4.742   0.674   0.488  0.0833 -0.2374 -0.2010
15510TIP3    H267946   4.841   0.765   0.557 -0.2497  0.5233 -0.7164
15511TIP3   OH267947   2.762   0.424   5.103  0.2878 -0.6111 -0.0026
15511TIP3    H167948   2.676   0.442   5.143  1.7086  1.6653  2.3256
15511TIP3    H267949   2.789   0.508   5.066  2.3034 -0.7854  0.9573
15512TIP3   OH267950   4.915   4.240  11.149  0.1494 -0.1080 -0.5887
15512TIP3    H167951   4.863   4.318  11.164  0.0363 -0.3054  0.0604
15512TIP3    H267952   4.861   4.185  11.092 -0.0640 -0.0197 -0.4691
15513TIP3   OH267953   5.654   3.447   1.759 -1.0820  0.0531  0.5817
15513TIP3    H167954   5.655   3.516   1.826  0.4507  2.8260 -2.0335
15513TIP3    H267955   5.739   3.404   1.767  0.0064  1.8115 -0.7987
15514TIP3   OH267956   5.598   0.122  12.312  0.0376 -0.4662 -0.0214
15514TIP3    H167957   5.515   0.154  12.277  1.0803  0.9311 -1.3581
15514TIP3    H267958   5.628   0.057  12.249  0.1678 -0.6663  0.2429
15515TIP3   OH267959   5.054   1.386   5.800  0.5030 -0.2909 -0.4732
15515TIP3    H167960   4.975   1.345   5.763 -0.3976  1.6412 -0.8098
15515TIP3    H267961   5.124   1.360   5.740 -0.3203 -0.0990 -1.5610
15516TIP3   OH267962   4.327   5.558   5.851 -0.4528  0.3754 -0.2938
15516TIP3    H167963   4.270   5.611   5.794  1.7022  1.7312 -1.2972
15516TIP3    H267964   4.275   5.545   5.930 -2.4213  0.9438 -1.4002
15517TIP3   OH267965   0.817   6.261   5.138 -0.0155  0.4047  0.0130
15517TIP3    H167966   0.729   6.270   5.174 -0.0147 -0.9824  0.3918
15517TIP3    H267967   0.804   6.232   5.048  0.0429 -0.5817  0.3069
15518TIP3   OH267968   5.710   3.876   6.645  0.3519 -0.0339  0.0207
15518TIP3    H167969   5.639   3.814   6.630  0.2569  0.0580  0.0883
15518TIP3    H267970   5.700   3.942   6.577 -0.0335  0.3410  0.4312
15519TIP3   OH267971   5.251   2.739  12.939 -0.2884  0.1815 -0.6857
15519TIP3    H167972   5.237   2.784  13.022  0.0926  0.5861 -0.8396
15519TIP3    H267973   5.164   2.731  12.901 -0.7839 -1.8268  0.6808
15520TIP3   OH267974   6.492   3.778  14.287 -0.7010 -0.1852 -0.0189
15520TIP3    H167975   6.532   3.757  14.203 -1.5195  0.3027 -0.5494
15520TIP3    H267976   6.447   3.861  14.271 -1.8924 -0.7061  0.5571
15521TIP3   OH267977   5.722   5.613  14.136  0.5224  0.1566 -0.4101
15521TIP3    H167978   5.774   5.647  14.209 -1.9373  1.9311  0.6900
15521TIP3    H267979   5.721   5.683  14.071 -0.8792  0.4178 -0.1506
15522TIP3   OH267980   0.841   5.798  13.126  0.4404 -0.4363  0.6938
15522TIP3    H167981   0.865   5.873  13.179  0.1830 -0.5369  0.9578
15522TIP3    H267982   0.845   5.830  13.036 -0.7374  0.2103  0.8535
15523TIP3   OH267983   1.214   5.945  13.925  0.1794  0.3654  0.0699
15523TIP3    H167984   1.147   6.006  13.894 -1.5696 -1.4588  0.0692
15523TIP3    H267985   1.169   5.861  13.934  2.5464 -1.0427 -0.2093
15524TIP3   OH267986   2.310   6.030   0.060 -0.3702 -0.3420 -0.2792
15524TIP3    H167987   2.277   5.940   0.062 -1.1117 -0.0835 -0.5147
15524TIP3    H267988   2.262   6.071  -0.013  0.7613 -0.0604 -0.8875
15525TIP3   OH267989   4.581   3.892  16.597 -0.4064  0.0464 -0.1344
15525TIP3    H167990   4.559   3.953  16.667 -1.2265 -0.4347  0.0413
15525TIP3    H267991   4.603   3.811  16.642  0.6548  0.2012 -0.3677
15526TIP3   OH267992   2.236   5.974  15.042  0.5754 -0.0240  0.0094
15526TIP3    H167993   2.301   6.044  15.033  1.1442 -0.5133  0.2094
15526TIP3    H267994   2.216   5.948  14.952 -0.6089  1.2442 -0.1352
15527TIP3   OH267995   5.416   2.700   1.360 -0.4001 -0.3429  0.6381
15527TIP3    H167996   5.471   2.650   1.420  0.5205  0.1392  0.2180
15527TIP3    H267997   5.369   2.634   1.309  1.3171 -0.8208 -0.3909
15528TIP3   OH267998   5.342   2.026   2.980 -0.2626 -0.0634  0.3486
15528TIP3    H167999   5.434   2.008   2.958 -0.7572 -1.4421 -0.6998
15528TIP3    H268000   5.323   1.967   3.053 -0.4358 -0.1064  0.2695
15529TIP3   OH268001   1.707   1.141  16.817 -0.0404 -0.1214 -0.0715
15529TIP3    H168002   1.798   1.117  16.801  0.2054  1.0978 -0.6234
15529TIP3    H268003   1.703   1.234  16.795 -1.5541 -0.2888 -0.5862
15530TIP3   OH268004   4.621   1.138   1.880  0.4434 -0.1706 -0.2654
15530TIP3    H168005   4.561   1.171   1.947 -0.5100  0.8603 -1.5751
15530TIP3    H268006   4.568   1.077   1.828  1.2462 -1.1693  0.0471
15531TIP3   OH268007   4.512   4.647   2.588 -0.2027 -0.2621 -0.6606
15531TIP3    H168008   4.483   4.573   2.642 -1.8571  0.1125 -0.9590
15531TIP3    H268009   4.514   4.612   2.499 -0.9731  0.0108 -0.8005
15532TIP3   OH268010   4.091   5.301   1.605 -0.1061  0.0525 -0.5493
15532TIP3    H168011   4.144   5.312   1.684  0.8737  0.2556 -1.2151
15532TIP3    H268012   4.034   5.227   1.624 -0.1868  0.3759  0.5091
15533TIP3   OH268013   1.814   1.781   3.635 -0.0423  0.1731  0.4276
15533TIP3    H168014   1.836   1.717   3.702  2.0995 -0.5126 -0.8357
15533TIP3    H268015   1.765   1.732   3.569  0.3680  0.1451  0.1365
15534TIP3   OH268016   1.407   1.801  12.660  0.3842 -0.1879 -0.2098
15534TIP3    H168017   1.338   1.835  12.717  0.6400 -0.1826  0.1036
15534TIP3    H268018   1.366   1.794  12.574  0.0574  0.0251 -0.0752
15535TIP3   OH268019   6.662   0.650  13.029 -0.9062 -0.4858  0.5647
15535TIP3    H168020   6.680   0.741  13.055  0.8053 -0.2026 -1.3078
15535TIP3    H268021   6.728   0.599  13.075  0.5574 -0.2663 -1.1590
15536TIP3   OH268022   6.417   0.099   5.170  0.1739  0.3861  0.9615
15536TIP3    H168023   6.406   0.141   5.256 -0.8126  0.2897  0.8851
15536TIP3    H268024   6.331   0.066   5.148  0.4992  0.1078  0.0737
15537TIP3   OH268025   4.564   2.629   4.360  0.4162 -0.1769 -0.0259
15537TIP3    H168026   4.523   2.713   4.338  0.0998  0.1802  1.7631
15537TIP3    H268027   4.620   2.609   4.285  0.0405  1.3291 -0.7468
15538TIP3   OH268028   3.516   1.933   6.494  0.0435  0.0783  0.8333
15538TIP3    H168029   3.532   1.840   6.505  0.4725  0.1447  0.7875
15538TIP3    H268030   3.423   1.940   6.473  0.1239 -0.3721  0.3454
15539TIP3   OH268031   6.191   1.622   0.228  0.2053  0.2216 -0.3480
15539TIP3    H168032   6.206   1.561   0.157  1.5495  0.5411 -0.3759
15539TIP3    H268033   6.104   1.601   0.261 -2.0136  2.2589 -4.2376
15540TIP3   OH268034   0.114   2.306   1.834 -0.4712  0.1367 -0.4505
15540TIP3    H168035   0.120   2.373   1.903  0.2244  1.4784 -1.7520
15540TIP3    H268036   0.205   2.285   1.814 -0.6782 -1.9812  0.6099
15541TIP3   OH268037   0.680   2.025   0.290 -0.4123 -0.4812  0.1916
15541TIP3    H168038   0.652   1.955   0.350  0.7302 -1.1961 -0.0716
15541TIP3    H268039   0.727   1.980   0.221  0.9937  0.5999  0.3919
15542TIP3   OH268040   6.494   4.627   5.844  0.2636 -0.3765  0.0246
15542TIP3    H168041   6.490   4.714   5.804 -0.1666 -0.0531  0.7480
15542TIP3    H268042   6.563   4.633   5.910 -0.9926 -0.0062  1.3607
15543TIP3   OH268043   2.886   1.354  11.388 -0.1473  0.5892 -0.4547
15543TIP3    H168044   2.867   1.290  11.320  0.2720 -0.6895  0.5875
15543TIP3    H268045   2.969   1.324  11.427  0.2429  1.9573 -0.1526
15544TIP3   OH268046   6.703   5.404   2.087 -0.7353 -0.2836  0.4604
15544TIP3    H168047   6.668   5.363   2.008  1.8389 -0.2947 -0.7762
15544TIP3    H268048   6.765   5.340   2.122 -1.0400  0.1775  1.9168
15545TIP3   OH268049   6.763   5.217  16.344  0.2289  0.1732 -0.0702
15545TIP3    H168050   6.838   5.262  16.306 -0.5493  1.1207 -0.5029
15545TIP3    H268051   6.695   5.221  16.277 -0.5486  0.2114  0.7011
15546TIP3   OH268052   5.042   2.020   1.235 -0.3172  0.1418  0.3041
15546TIP3    H168053   5.117   1.964   1.254  0.9154  0.9853 -1.7845
15546TIP3    H268054   5.037   2.079   1.311  1.6427  0.5867  0.1449
15547TIP3   OH268055   1.427   6.556  13.763  0.2180 -0.0528  0.1956
15547TIP3    H168056   1.516   6.589  13.774  0.6611 -0.5343 -1.6655
15547TIP3    H268057   1.404   6.578  13.673 -1.5292 -0.0280  0.6132
15548TIP3   OH268058   2.727   6.092   1.010 -0.4677 -0.2880 -0.1758
15548TIP3    H168059   2.756   6.032   1.079  0.0176 -0.5753 -0.6156
15548TIP3    H268060   2.642   6.124   1.039 -0.4799 -0.7718  0.3294
15549TIP3   OH268061   2.143   5.894   5.202  0.1017 -0.1432  0.4743
15549TIP3    H168062   2.077   5.825   5.191  1.2841 -1.2133 -0.2767
15549TIP3    H268063   2.193   5.867   5.279  2.3107 -1.7249 -1.3623
15550TIP3   OH268064   6.533   6.447   1.600 -0.5897 -0.1968  0.3639
15550TIP3    H168065   6.482   6.406   1.531 -0.4375  0.5312 -0.1992
15550TIP3    H268066   6.610   6.482   1.556 -0.0144 -0.5473  1.0666
15551TIP3   OH268067   3.597   1.957   0.297  0.1054  0.1270  0.6367
15551TIP3    H168068   3.535   1.951   0.224  1.2986  0.1075 -0.4068
15551TIP3    H268069   3.565   1.894   0.362 -0.8254 -0.0469  0.0187
15552TIP3   OH268070   0.695   1.103   3.677  0.3969  0.2009 -0.1502
15552TIP3    H168071   0.686   1.198   3.676 -2.5582  0.0376 -1.1309
15552TIP3    H268072   0.676   1.078   3.767  4.2768  0.6046  0.9259
15553TIP3   OH268073   3.400   1.390   5.596  0.5439  0.2877 -0.1870
15553TIP3    H168074   3.325   1.449   5.589  0.1297 -0.3181 -1.0727
15553TIP3    H268075   3.365   1.304   5.571  1.1967 -0.2916  0.8295
15554TIP3   OH268076   3.506   0.066   1.656 -0.3275 -0.4070  0.0782
15554TIP3    H168077   3.432   0.114   1.693  0.3069 -0.0563  0.9398
15554TIP3    H268078   3.510   0.094   1.565  0.9432  2.4050  0.9006
15555TIP3   OH268079   1.149   3.382   3.374 -0.0883 -0.0410  0.4878
15555TIP3    H168080   1.078   3.444   3.359 -0.2383 -0.4320 -0.4918
15555TIP3    H268081   1.118   3.325   3.444 -1.2632 -0.9571 -0.7288
15556TIP3   OH268082   1.419   2.953  13.550  0.0644 -0.2221 -0.1197
15556TIP3    H168083   1.481   2.980  13.481 -1.1914  0.7215 -0.9211
15556TIP3    H268084   1.350   2.907  13.503 -0.3909 -0.3095  0.6294
15557TIP3   OH268085   0.930   5.720  11.292 -0.8321 -0.0244 -0.1932
15557TIP3    H168086   0.996   5.710  11.224 -1.8754 -0.6568 -1.1433
15557TIP3    H268087   0.876   5.793  11.262 -1.7640 -0.8049 -0.4479
15558TIP3   OH268088   2.427   5.333   2.735 -0.1142 -0.0490 -0.4198
15558TIP3    H168089   2.398   5.408   2.684  0.1212 -0.0358 -0.5331
15558TIP3    H268090   2.519   5.321   2.711 -0.1875 -0.4524 -0.4975
15559TIP3   OH268091   2.746   0.809  14.735  0.9652  0.2394  0.3748
15559TIP3    H168092   2.723   0.764  14.817  1.4441 -0.5372  0.0973
15559TIP3    H268093   2.701   0.759  14.667 -1.1138  2.0744  0.2801
15560TIP3   OH268094   4.677   0.526   3.902  0.2828  0.1514 -0.2519
15560TIP3    H168095   4.619   0.595   3.870  0.7883  0.6664 -0.0629
15560TIP3    H268096   4.672   0.533   3.998 -1.8674 -1.9054 -0.1039
15561TIP3   OH268097   4.536   0.292  13.794  0.0916  0.2795  0.2715
15561TIP3    H168098   4.542   0.375  13.842  0.7681  0.4668 -0.1314
15561TIP3    H268099   4.498   0.316  13.710 -0.4269  0.0565  0.4369
15562TIP3   OH268100   3.387   1.706   4.555  0.0949 -0.1306  0.0684
15562TIP3    H168101   3.339   1.696   4.473 -0.8414  0.1969  0.5641
15562TIP3    H268102   3.479   1.704   4.529 -0.1869  0.3996 -1.0348
15563TIP3   OH268103   4.528   3.695  15.770  1.0409 -0.4767  0.0168
15563TIP3    H168104   4.571   3.716  15.687  1.7969  1.2584  0.7796
15563TIP3    H268105   4.519   3.780  15.814  0.0821 -1.2740  1.4402
15564TIP3   OH268106   2.445   1.933   5.680  0.6403 -0.7410 -0.6066
15564TIP3    H168107   2.441   1.845   5.644 -1.0062 -0.6457 -0.7412
15564TIP3    H268108   2.417   1.923   5.771  1.8997 -0.5575 -0.1858
15565TIP3   OH268109   3.465   6.414  15.899 -0.0663 -0.0866 -0.4280
15565TIP3    H168110   3.473   6.333  15.848  0.1245 -0.5395  0.3116
15565TIP3    H268111   3.549   6.423  15.944 -0.8421 -0.6724  1.2131
15566TIP3   OH268112   0.916   5.397  17.231  0.1025  0.1568 -0.1995
15566TIP3    H168113   0.897   5.315  17.277  0.4325  0.1695 -0.0371
15566TIP3    H268114   0.839   5.412  17.177 -0.2751  0.1161  0.3168
15567TIP3   OH268115   0.687   1.975  15.745 -0.1598 -0.0677  0.5428
15567TIP3    H168116   0.610   1.927  15.715 -1.3262  0.5591  2.3782
15567TIP3    H268117   0.663   2.008  15.831  1.2629  2.3256  0.1058
15568TIP3   OH268118   5.877   6.011   0.424 -0.8490 -0.2963 -0.1786
15568TIP3    H168119   5.828   5.986   0.503  0.5026  0.9249  1.0983
15568TIP3    H268120   5.966   6.025   0.455 -0.0254 -0.8485 -2.1548
15569TIP3   OH268121   1.298   1.631   1.700  0.0659 -0.4020 -0.3474
15569TIP3    H168122   1.352   1.577   1.642  1.0993 -1.3401  1.4263
15569TIP3    H268123   1.356   1.657   1.771 -1.1877  0.6447  0.3486
15570TIP3   OH268124   1.586   1.639  10.739  0.5535 -0.1608  0.5374
15570TIP3    H168125   1.540   1.612  10.818  0.7979  0.3273  0.8496
15570TIP3    H268126   1.580   1.735  10.739  0.4560 -0.1604 -0.0945
15571TIP3   OH268127   6.273   2.036  13.196  0.0480  0.2642 -0.0050
15571TIP3    H168128   6.313   2.034  13.284 -0.8489 -0.6362  0.4011
15571TIP3    H268129   6.336   1.990  13.141 -0.2190 -0.8324  0.5630
15572TIP3   OH268130   2.655   0.478   3.553 -0.1544  0.8407  1.1410
15572TIP3    H168131   2.560   0.468   3.545  0.0470 -1.2630  0.8736
15572TIP3    H268132   2.670   0.480   3.648 -0.4834  1.4084  1.1845
15573TIP3   OH268133   0.590   1.860   2.747  0.0288 -0.2478  0.2617
15573TIP3    H168134   0.641   1.933   2.712  0.3777 -0.7221 -0.2405
15573TIP3    H268135   0.656   1.793   2.767 -0.2919 -0.4512  0.6583
15574TIP3   OH268136   3.405   3.248  12.716 -0.1588  0.0556 -0.0782
15574TIP3    H168137   3.342   3.211  12.654 -0.3173 -0.0395  0.1346
15574TIP3    H268138   3.472   3.289  12.662  0.2166 -0.8743 -0.3241
15575TIP3   OH268139   4.793   1.653   6.078  0.4352  0.1858 -0.0557
15575TIP3    H168140   4.775   1.733   6.127 -0.9906  0.0547 -0.3296
15575TIP3    H268141   4.886   1.660   6.055  0.7057  1.0550  1.1712
15576TIP3   OH268142   6.552   0.221  14.924  0.8891  0.7191  0.0887
15576TIP3    H168143   6.591   0.160  14.987 -0.1707  0.4537  0.5119
15576TIP3    H268144   6.612   0.296  14.923  1.2882  0.4210  0.8789
15577TIP3   OH268145   0.290   1.963  13.399  0.4879 -0.1509  0.2390
15577TIP3    H168146   0.319   2.026  13.332  0.5965 -1.5282 -1.0794
15577TIP3    H268147   0.367   1.908  13.414  0.2584 -0.2630  1.0193
15578TIP3   OH268148   6.743   2.455  12.192  0.4112  0.7258  0.5080
15578TIP3    H168149   6.831   2.488  12.177  0.4228  0.7114  0.5461
15578TIP3    H268150   6.688   2.506  12.133  0.3987  0.9696  0.7304
15579TIP3   OH268151   5.049   2.837   3.965 -0.3870  0.1838  0.0994
15579TIP3    H168152   5.014   2.784   4.037 -2.2760  0.7299 -0.3536
15579TIP3    H268153   5.057   2.925   4.003 -1.9821  0.6082 -0.4979
15580TIP3   OH268154   0.613   4.187  16.415 -0.1491  0.6544  0.6577
15580TIP3    H168155   0.575   4.115  16.465  0.6665  0.3894  0.8996
15580TIP3    H268156   0.585   4.171  16.325 -0.5892  0.4526  0.8284
15581TIP3   OH268157   5.815   1.392   5.689  0.3427  0.0892 -0.0188
15581TIP3    H168158   5.819   1.487   5.677  1.2696  0.0908  0.2221
15581TIP3    H268159   5.888   1.372   5.748  0.9284 -0.9105 -1.0276
15582TIP3   OH268160   6.134   4.964  14.195 -0.0584 -0.3609 -0.3487
15582TIP3    H168161   6.177   4.879  14.195 -1.0590 -0.9008  0.6004
15582TIP3    H268162   6.076   4.962  14.119  0.0381 -0.4537 -0.4205
15583TIP3   OH268163   5.703   2.325   3.871 -0.3164 -0.7228 -0.0942
15583TIP3    H168164   5.627   2.319   3.814 -1.1467  0.4789  0.8165
15583TIP3    H268165   5.775   2.351   3.813 -1.2177  0.8408 -0.5683
15584TIP3   OH268166   3.121   6.385  14.862 -0.2710 -0.3202 -0.3888
15584TIP3    H168167   3.050   6.390  14.798 -0.7034 -1.0989  0.0131
15584TIP3    H268168   3.096   6.312  14.919  1.7655 -1.8868 -1.3616
15585TIP3   OH268169   5.815   5.196   3.860 -0.0831  0.2058  0.1632
15585TIP3    H168170   5.843   5.140   3.933  0.2152  1.1316  0.7767
15585TIP3    H268171   5.720   5.205   3.873  0.3893  3.3136  2.6522
15586TIP3   OH268172   0.182   3.568  11.681  0.8067 -0.7886  0.7701
15586TIP3    H168173   0.214   3.630  11.615 -0.8253  0.8862  1.4628
15586TIP3    H268174   0.255   3.558  11.742  1.9132 -1.4299 -0.6153
15587TIP3   OH268175   1.015   0.560   5.559 -0.6886 -0.1508  0.1066
15587TIP3    H168176   1.102   0.573   5.521 -0.4640 -0.2868  0.5674
15587TIP3    H268177   0.972   0.498   5.500  0.0408 -1.1864  0.6419
15588TIP3   OH268178   0.895   4.761   3.755 -0.1362  0.0785 -0.7049
15588TIP3    H168179   0.886   4.693   3.688  0.1812 -2.0489  1.2759
15588TIP3    H268180   0.973   4.810   3.730  1.2270 -2.0324 -0.7986
15589TIP3   OH268181   4.822   4.231  13.861  0.2953  0.5854  0.0251
15589TIP3    H168182   4.884   4.276  13.803  3.2393 -1.8341  1.0781
15589TIP3    H268183   4.797   4.152  13.813 -0.3647  0.4943  0.5018
15590TIP3   OH268184   1.925   5.234  13.158  0.2012  0.0396 -0.6844
15590TIP3    H168185   2.016   5.255  13.136  0.5086 -0.0087  0.4763
15590TIP3    H268186   1.931   5.163  13.222 -0.5717  1.0537  0.5733
15591TIP3   OH268187   3.446   1.260  17.109  0.5686 -0.3465 -0.3031
15591TIP3    H168188   3.463   1.334  17.050  1.7989 -0.3311  0.0473
15591TIP3    H268189   3.522   1.203  17.099  0.0637 -1.1008  0.1243
15592TIP3   OH268190   1.642   4.107   1.228  0.2462 -0.3510  0.2068
15592TIP3    H168191   1.685   4.057   1.298 -1.2424 -0.2102  1.2468
15592TIP3    H268192   1.639   4.046   1.154  1.2767 -0.7079  0.4389
15593TIP3   OH268193   4.678   3.417  14.458 -0.3107 -0.1529  0.0493
15593TIP3    H168194   4.595   3.390  14.417 -0.4170 -5.3184  2.8133
15593TIP3    H268195   4.732   3.445  14.384 -3.0153 -1.0880 -2.5260
15594TIP3   OH268196   3.685   5.477  12.172  0.0809 -0.2371  0.4009
15594TIP3    H168197   3.599   5.514  12.154  0.2792  0.3335  0.6317
15594TIP3    H268198   3.746   5.549  12.156  0.4270 -0.3052  1.3683
15595TIP3   OH268199   2.050   2.447  12.339 -0.3114  0.0290 -0.1684
15595TIP3    H168200   2.009   2.399  12.266  1.8875 -1.3693 -0.5572
15595TIP3    H268201   2.071   2.533  12.301 -0.8075 -0.0469 -0.6341
15596TIP3   OH268202   2.354   2.196  11.706  0.1980 -0.3845 -0.6791
15596TIP3    H168203   2.394   2.110  11.723 -0.0573 -0.6541 -1.3738
15596TIP3    H268204   2.308   2.218  11.787  0.5547 -0.7419 -0.3738
15597TIP3   OH268205   3.710   0.805  12.068  0.4810 -0.8627 -0.3196
15597TIP3    H168206   3.789   0.766  12.104  1.1506  0.8258  0.1511
15597TIP3    H268207   3.729   0.818  11.975  0.4353 -1.1995 -0.3776
15598TIP3   OH268208   2.678   0.838  12.113  0.3612 -0.6955 -0.0799
15598TIP3    H168209   2.666   0.833  12.018 -0.7762  0.7871 -0.0520
15598TIP3    H268210   2.625   0.913  12.140  1.3324 -0.5707  1.6258
15599TIP3   OH268211   0.553   5.856   6.774 -0.4746  0.1241  0.3169
15599TIP3    H168212   0.533   5.950   6.769 -1.3254 -0.1101 -1.7217
15599TIP3    H268213   0.467   5.814   6.770  0.0038 -0.7634 -1.5872
15600TIP3   OH268214   2.324   3.805  12.704 -0.6077 -0.4234  0.5167
15600TIP3    H168215   2.301   3.757  12.784  1.0649 -0.0498  1.2499
15600TIP3    H268216   2.362   3.738  12.646  1.6637 -0.0805  1.5142
15601TIP3   OH268217   5.037   2.158  14.766  0.8097 -0.4709 -0.2544
15601TIP3    H168218   4.996   2.187  14.684  0.8463 -1.0880 -0.4966
15601TIP3    H268219   4.964   2.131  14.821  0.8144 -0.4717 -0.2484
15602TIP3   OH268220   0.370   6.543  15.882 -0.5268 -0.8661  0.6459
15602TIP3    H168221   0.399   6.484  15.952 -0.5110 -2.5870 -0.7301
15602TIP3    H268222   0.395   6.498  15.801  1.9394  2.2506 -0.5576
15603TIP3   OH268223   0.335   3.486   5.541 -0.0729 -0.3840 -0.1872
15603TIP3    H168224   0.416   3.438   5.560 -0.1350  0.1471  1.6407
15603TIP3    H268225   0.333   3.555   5.607 -1.2296  0.6145 -1.2298
15604TIP3   OH268226   2.719   6.521   5.342 -0.4459 -0.2465 -0.3700
15604TIP3    H168227   2.721   6.580   5.418 -0.6548  1.4972 -1.6722
15604TIP3    H268228   2.750   6.437   5.377 -0.0549  0.6232  1.5295
15605TIP3   OH268229   5.446   5.037   5.194 -0.5446  0.4119  0.7384
15605TIP3    H168230   5.461   5.131   5.191  0.1445  0.2836 -1.8368
15605TIP3    H268231   5.352   5.028   5.179 -0.6522  0.6722  1.2195
15606TIP3   OH268232   3.945   0.412  16.836  0.1342 -0.0562  0.8222
15606TIP3    H168233   4.002   0.338  16.816  0.6571  1.0255 -2.2590
15606TIP3    H268234   4.005   0.484  16.856 -0.2324  0.2858  0.7190
15607TIP3   OH268235   5.269   1.669   4.629 -0.0800  0.0885 -0.7883
15607TIP3    H168236   5.332   1.647   4.697 -0.4040  1.1098 -0.1294
15607TIP3    H268237   5.318   1.721   4.566 -0.5848  2.4569  0.6304
15608TIP3   OH268238   3.724   1.145  15.661  0.3476 -0.2798  0.1895
15608TIP3    H168239   3.807   1.135  15.708  0.5652  1.9513  0.4231
15608TIP3    H268240   3.657   1.120  15.725  0.6823  1.8897  1.5121
15609TIP3   OH268241   3.123   4.356   4.039  0.0731  0.3870 -0.3867
15609TIP3    H168242   3.106   4.361   3.945 -0.3997 -0.5421 -0.3633
15609TIP3    H268243   3.189   4.287   4.048  0.3004  0.6469 -0.0603
15610TIP3   OH268244   5.612   3.538  11.916 -0.1472  0.3711  0.2689
15610TIP3    H168245   5.625   3.624  11.956  1.3414  0.0388  0.5348
15610TIP3    H268246   5.574   3.484  11.986 -0.2599  0.5711  0.3613
15611TIP3   OH268247   0.306   0.787  14.604  0.7126  0.2592 -0.1493
15611TIP3    H168248   0.318   0.839  14.525  1.3534  0.4326  0.0618
15611TIP3    H268249   0.285   0.851  14.672 -0.5112  0.0535 -0.3058
15612TIP3   OH268250   4.251   0.236  12.148  0.5590  0.3657  0.1197
15612TIP3    H168251   4.331   0.288  12.156  0.4839  0.6681 -0.9828
15612TIP3    H268252   4.207   0.271  12.071  0.4386 -1.2282 -0.5732
15613TIP3   OH268253   1.810   2.369  13.727 -0.3615 -0.4215 -0.0050
15613TIP3    H168254   1.739   2.331  13.676 -1.8049  1.0933  0.7644
15613TIP3    H268255   1.786   2.353  13.818  0.2141  0.2268  0.2704
15614TIP3   OH268256   1.277   6.597   2.083 -0.6670 -0.3662  0.3619
15614TIP3    H168257   1.224   6.534   2.035 -0.7249 -0.5745  0.7003
15614TIP3    H268258   1.365   6.589   2.045 -0.3778 -1.5206  1.2169
15615TIP3   OH268259   1.431   5.692   4.440  0.4605 -1.1336  0.5366
15615TIP3    H168260   1.399   5.744   4.367 -0.8534 -0.9425  1.2066
15615TIP3    H268261   1.499   5.636   4.403 -0.6305 -1.5150 -0.9679
15616TIP3   OH268262   2.019   5.605  15.771  0.2551 -0.1134 -0.4975
15616TIP3    H168263   2.021   5.515  15.804  2.5981 -0.3601 -1.1583
15616TIP3    H268264   2.041   5.659  15.847 -0.0630 -0.1796 -0.3566
15617TIP3   OH268265   4.527   4.821  12.613  0.1091  1.1291  0.4337
15617TIP3    H168266   4.495   4.795  12.527 -0.8863  2.8655  0.2335
15617TIP3    H268267   4.478   4.901  12.634 -0.1311  0.4328  2.8840
15618TIP3   OH268268   2.104   0.155  12.562 -0.0886  0.8831 -0.0356
15618TIP3    H168269   2.026   0.143  12.615  0.1931  0.2629  0.2458
15618TIP3    H268270   2.070   0.166  12.473 -0.4498 -1.7787 -0.3218
15619TIP3   OH268271   3.221   4.395   2.278 -0.5575  0.1229  0.2214
15619TIP3    H168272   3.136   4.431   2.251  0.2956  2.6531  0.5886
15619TIP3    H268273   3.227   4.416   2.371  0.6868  0.5297  0.0697
15620TIP3   OH268274   2.066   5.241  11.205  0.5907  0.1146  0.5395
15620TIP3    H168275   2.108   5.268  11.123 -0.4683  1.4805  0.4026
15620TIP3    H268276   2.137   5.240  11.269  0.9968  1.6250  0.1566
15621TIP3   OH268277   5.935   5.007  14.006  0.1464  0.3999 -0.0151
15621TIP3    H168278   5.953   4.920  13.970  1.1468  0.2985  0.6959
15621TIP3    H268279   5.841   5.020  13.991 -0.5083 -1.7094  1.7771
15622TIP3   OH268280   1.703   4.498   0.099  0.1276 -0.8114 -0.1443
15622TIP3    H168281   1.642   4.431   0.129 -1.1112 -0.1274 -1.0160
15622TIP3    H268282   1.715   4.479   0.006 -0.7943  0.5477 -0.5729
15623TIP3   OH268283   0.742   2.692   0.692  0.5674 -0.2829  0.2608
15623TIP3    H168284   0.673   2.715   0.755  0.9231 -0.0186  0.5617
15623TIP3    H268285   0.728   2.751   0.618 -1.0079 -1.8461 -0.7525
15624TIP3   OH268286   2.953   5.827   2.920 -0.5920 -0.0188 -0.5307
15624TIP3    H168287   2.880   5.883   2.948 -2.7393 -0.6427 -4.2223
15624TIP3    H268288   3.015   5.887   2.879 -0.1446  0.2320  0.4820
15625TIP3   OH268289   5.533   6.683  12.742 -0.5805 -0.2259 -0.0395
15625TIP3    H168290   5.539   6.736  12.662  0.8311 -0.8295 -0.3716
15625TIP3    H268291   5.606   6.713  12.796 -0.0886 -1.4088 -0.0015
15626TIP3   OH268292   1.863   6.124  11.273  0.1549  0.2765 -0.9829
15626TIP3    H168293   1.835   6.213  11.253 -0.1304  0.2802 -0.5742
15626TIP3    H268294   1.796   6.091  11.333  0.7811  0.1296 -0.3545
15627TIP3   OH268295   0.576   5.739  14.123 -0.6012 -0.1996 -0.0298
15627TIP3    H168296   0.604   5.650  14.102 -0.1763 -0.0384 -0.1432
15627TIP3    H268297   0.527   5.729  14.205 -2.1985 -0.8182 -1.0056
15628TIP3   OH268298   4.010   1.130   3.904  0.3438 -0.6187 -0.2253
15628TIP3    H168299   4.007   1.220   3.939  0.3458 -0.8702  0.4402
15628TIP3    H268300   3.946   1.082   3.957  0.4002 -1.0253 -0.5256
15629TIP3   OH268301   1.185   2.211   3.254 -0.5666  0.8271  0.2111
15629TIP3    H168302   1.272   2.249   3.237 -0.0290 -0.5858 -0.3254
15629TIP3    H268303   1.174   2.218   3.349 -0.6781  2.6549  0.1132
15630TIP3   OH268304   6.589   2.258  13.446  0.5094  0.0546 -0.0460
15630TIP3    H168305   6.534   2.208  13.386  1.9437 -1.5459 -0.1249
15630TIP3    H268306   6.549   2.245  13.532 -0.9793  1.5260 -0.4751
15631TIP3   OH268307   1.227   6.088  13.571  0.3283  0.0036 -0.0737
15631TIP3    H168308   1.270   6.121  13.492 -0.7968  0.3865 -0.5496
15631TIP3    H268309   1.241   6.157  13.636  1.1808 -0.2735  0.0515
15632TIP3   OH268310   4.767   1.422   2.838  0.3740  0.0198 -0.2692
15632TIP3    H168311   4.846   1.467   2.808  1.0374 -1.1285 -0.2508
15632TIP3    H268312   4.733   1.379   2.759  1.2855 -1.7463  0.2605
15633TIP3   OH268313   1.187   1.956   5.932  0.3947  0.4794 -0.0547
15633TIP3    H168314   1.183   1.865   5.961 -3.1150 -0.1681 -2.0752
15633TIP3    H268315   1.119   2.000   5.982 -0.1856  1.1912 -1.4199
15634TIP3   OH268316   5.810   2.127  17.025 -0.2112 -0.2903  0.8335
15634TIP3    H168317   5.848   2.214  17.017  0.7693 -0.7076  0.7279
15634TIP3    H268318   5.831   2.084  16.941 -1.6679 -0.2616  0.4354
15635TIP3   OH268319   4.795   6.458  12.061 -0.1554 -0.0831  0.8043
15635TIP3    H168320   4.734   6.531  12.067 -1.6605 -1.2767  0.7466
15635TIP3    H268321   4.768   6.399  12.131  0.8507 -0.7125  0.6762
15636TIP3   OH268322   0.305   5.737  17.264 -0.1709 -0.2551 -0.1456
15636TIP3    H168323   0.298   5.787  17.183 -0.7320  0.5672  0.3882
15636TIP3    H268324   0.391   5.760  17.299 -0.1413 -0.2038 -0.2522
15637TIP3   OH268325   1.907   6.149  14.553  0.3174 -0.0196  0.4595
15637TIP3    H168326   1.850   6.137  14.628 -0.2039 -0.8053 -0.0420
15637TIP3    H268327   1.864   6.101  14.482  0.9678  0.4208 -0.2490
15638TIP3   OH268328   1.615   1.017  15.030 -0.3597  0.4452 -0.0427
15638TIP3    H168329   1.611   0.925  15.057 -0.9833  0.0373 -1.4013
15638TIP3    H268330   1.525   1.048  15.036 -0.4348  0.4736 -1.1274
15639TIP3   OH268331   4.516   3.950   2.665  0.2815  0.2271  0.2849
15639TIP3    H168332   4.492   3.985   2.751  2.0623  1.0351  0.4887
15639TIP3    H268333   4.478   3.862   2.664 -2.1675  1.2024  0.7436
15640TIP3   OH268334   1.570   4.637  10.749  0.0607 -0.1392  0.4060
15640TIP3    H168335   1.510   4.594  10.810 -0.3238 -1.1719 -0.6635
15640TIP3    H268336   1.540   4.727  10.745 -0.5486 -0.3128  0.9624
15641TIP3   OH268337   1.231   1.749  16.760 -0.1847  0.0039  0.5633
15641TIP3    H168338   1.178   1.824  16.733 -0.8988  0.5488  3.1126
15641TIP3    H268339   1.316   1.786  16.784  1.2021 -0.7567 -2.7235
15642TIP3   OH268340   0.169   2.007  12.598 -0.0207  0.1336 -0.0642
15642TIP3    H168341   0.204   1.923  12.627 -0.8354 -0.3411 -0.4312
15642TIP3    H268342   0.127   2.044  12.675  0.6678  0.3885  0.1973
15643TIP3   OH268343   6.542   2.064  15.791  0.2388  0.7616 -0.2602
15643TIP3    H168344   6.472   1.998  15.793  1.1749 -0.2374  0.7831
15643TIP3    H268345   6.497   2.146  15.811 -0.3265 -0.2480  3.5065
15644TIP3   OH268346   6.325   0.292  16.748 -0.2167  0.3170 -0.4055
15644TIP3    H168347   6.297   0.328  16.663  0.2144 -1.1012 -1.1794
15644TIP3    H268348   6.350   0.202  16.729  2.6757  0.7757  0.6656
15645TIP3   OH268349   2.434   3.850   2.375 -0.3249  0.5011  0.3905
15645TIP3    H168350   2.494   3.796   2.324  0.6948  2.2576 -0.3815
15645TIP3    H268351   2.432   3.809   2.462  0.1244 -0.9335 -0.2478
15646TIP3   OH268352   0.548   3.178  13.654 -0.4212 -0.1562  0.0117
15646TIP3    H168353   0.577   3.099  13.608  1.1046  0.4513 -0.1315
15646TIP3    H268354   0.506   3.231  13.586 -1.0185 -0.6225  0.0072
15647TIP3   OH268355   6.633   0.273   2.399 -0.4182 -0.1720 -0.4901
15647TIP3    H168356   6.605   0.192   2.440 -0.5314  0.9145  1.7176
15647TIP3    H268357   6.586   0.276   2.315 -2.7777 -0.9400  0.7323
15648TIP3   OH268358   6.470   2.967  12.113  0.0323 -0.0770 -0.2205
15648TIP3    H168359   6.565   2.959  12.121 -0.0655 -0.2626  0.9143
15648TIP3    H268360   6.455   2.979  12.019  1.2525  1.0580 -0.3064
15649TIP3   OH268361   0.946   1.884   0.637  0.5377 -0.0419  0.0294
15649TIP3    H168362   0.937   1.825   0.712  0.6293  0.2673  0.2897
15649TIP3    H268363   0.988   1.831   0.570 -2.3221 -1.2603 -0.9297
15650TIP3   OH268364   3.762   2.256  12.186  0.1147 -0.0724  0.0400
15650TIP3    H168365   3.830   2.279  12.123  0.6241  0.0320  0.6172
15650TIP3    H268366   3.685   2.305  12.157  0.5425  0.5308 -0.0922
15651TIP3   OH268367   1.185   1.835  13.206  0.4885  0.0418 -0.4985
15651TIP3    H168368   1.210   1.879  13.287 -1.9415  0.5487  0.0400
15651TIP3    H268369   1.201   1.900  13.138 -2.5475  1.7325  0.2321
15652TIP3   OH268370   3.331   6.597  15.751  0.1479 -0.1693 -0.6797
15652TIP3    H168371   3.348   6.550  15.833  1.4348 -0.7630 -1.2676
15652TIP3    H268372   3.410   6.584  15.699 -0.9925 -0.5366 -2.3868
15653TIP3   OH268373   0.734   6.336   2.164  0.7565 -0.0747  0.4157
15653TIP3    H168374   0.689   6.319   2.082  1.0757  3.7283 -0.7584
15653TIP3    H268375   0.798   6.265   2.172 -1.3074 -2.2347 -0.9561
15654TIP3   OH268376   5.281   0.595   4.619 -0.0550 -0.5337 -0.8216
15654TIP3    H168377   5.365   0.619   4.580  0.2798 -0.5306 -0.0960
15654TIP3    H268378   5.299   0.584   4.712 -1.0033  0.1202 -0.5473
15655TIP3   OH268379   3.714   3.467  10.625 -0.4297 -0.2234 -0.1560
15655TIP3    H168380   3.732   3.561  10.624 -2.0914  0.1356 -0.4839
15655TIP3    H268381   3.766   3.431  10.553  0.4780  0.3816  0.1861
15656TIP3   OH268382   6.434   6.767   3.783 -0.0966  0.2108 -0.0184
15656TIP3    H168383   6.439   6.824   3.706 -2.0660  0.6355  0.1373
15656TIP3    H268384   6.383   6.816   3.847 -1.7991 -1.6551  0.1554
15657TIP3   OH268385   0.081   1.366  17.074  0.3217  0.1643  0.1812
15657TIP3    H168386   0.049   1.320  17.152  2.4478  0.8627  1.5537
15657TIP3    H268387   0.086   1.298  17.006  0.5187 -0.9598  1.2869
15658TIP3   OH268388   6.104   0.899  11.090 -0.4802  0.3400 -0.3638
15658TIP3    H168389   6.102   0.803  11.088 -1.5679  0.3426 -0.2379
15658TIP3    H268390   6.138   0.924  11.005  2.8600 -0.1749  0.6799
15659TIP3   OH268391   6.678   3.682   0.527  0.2452 -0.4500  0.2409
15659TIP3    H168392   6.615   3.687   0.599  1.4442  0.2469  1.2890
15659TIP3    H268393   6.743   3.618   0.556  1.7434  1.1842  0.6520
15660TIP3   OH268394   4.721   2.347   1.907  0.3222 -0.0019 -0.0253
15660TIP3    H168395   4.806   2.331   1.948  2.2552  2.3482 -2.7165
15660TIP3    H268396   4.703   2.440   1.924 -1.3827 -0.2811 -0.1177
15661TIP3   OH268397   2.565   5.693  15.476  0.2990 -0.7634  0.5604
15661TIP3    H168398   2.557   5.760  15.544 -0.0311 -1.3471  1.1039
15661TIP3    H268399   2.540   5.739  15.395 -0.0751 -0.2689  0.9457
15662TIP3   OH268400   5.670   0.050  15.922 -0.0226  0.1207  0.5595
15662TIP3    H168401   5.660   0.047  15.827 -0.0984 -0.7004  0.5917
15662TIP3    H268402   5.734   0.120  15.937  0.3818 -0.0973 -0.1186
15663TIP3   OH268403   0.479   0.986   3.314 -0.3729  0.0443  0.4231
15663TIP3    H168404   0.494   0.995   3.220  0.6986 -0.1031  0.5693
15663TIP3    H268405   0.383   0.982   3.323 -0.4699 -0.6048 -0.7189
15664TIP3   OH268406   0.093   1.517  13.647  0.0330  0.4121 -0.9999
15664TIP3    H168407   0.079   1.458  13.721 -0.7658  1.1622 -0.5328
15664TIP3    H268408   0.186   1.537  13.649  0.1800 -0.2604 -0.7358
15665TIP3   OH268409   5.098   2.872   6.049  0.3362 -0.0033 -0.5344
15665TIP3    H168410   5.081   2.784   6.083 -1.7002 -0.0804 -1.5991
15665TIP3    H268411   5.087   2.930   6.125  0.3613 -0.5624 -0.1015
15666TIP3   OH268412   2.551   5.659  13.721 -0.2848 -0.1688 -0.2309
15666TIP3    H168413   2.613   5.716  13.675  0.2455 -0.6736 -0.1584
15666TIP3    H268414   2.568   5.572  13.684 -0.9532 -0.3099 -0.2076
15667TIP3   OH268415   2.918   6.275  16.032  0.3173 -0.4453  0.5239
15667TIP3    H168416   2.852   6.246  16.094  0.2664 -2.5510 -0.4534
15667TIP3    H268417   2.868   6.310  15.958  0.3310 -0.6458  0.4217
15668TIP3   OH268418   0.050   2.988   4.913 -0.0006  0.0159 -0.0632
15668TIP3    H168419   0.041   3.028   4.827  0.2854 -0.5229 -0.3479
15668TIP3    H268420  -0.035   2.947   4.929  0.3638 -0.9965 -0.6640
15669TIP3   OH268421   3.235   5.040   4.938  0.5555  0.3179 -0.4336
15669TIP3    H168422   3.281   5.037   5.022 -0.2587  0.5898  0.0385
15669TIP3    H268423   3.270   5.117   4.894  0.9639  0.1916 -0.3351
15670TIP3   OH268424   4.803   4.029  12.770 -0.2760 -0.5536 -0.2661
15670TIP3    H168425   4.833   4.033  12.861  1.2404 -1.7540 -0.6668
15670TIP3    H268426   4.769   4.117  12.752  4.3286  1.5213 -0.1278
15671TIP3   OH268427   6.292   1.952  12.231 -0.0880 -0.6831  0.4505
15671TIP3    H168428   6.241   1.876  12.257 -0.5517  0.2889  2.5636
15671TIP3    H268429   6.374   1.946  12.281  0.5246 -0.5605 -0.4992
15672TIP3   OH268430   1.673   4.576   3.136 -0.8550  0.3636 -0.5719
15672TIP3    H168431   1.682   4.483   3.116 -1.8934  0.3914 -1.2525
15672TIP3    H268432   1.733   4.591   3.209 -1.5916 -1.1189  0.3792
15673TIP3   OH268433   1.648   2.606   2.247  0.2772  0.0237 -0.4846
15673TIP3    H168434   1.744   2.604   2.247  0.3590  1.9657 -0.7693
15673TIP3    H268435   1.625   2.643   2.332 -0.3620 -2.5462  0.5401
15674TIP3   OH268436   3.729   3.281   0.443  0.1715  0.4440 -0.1310
15674TIP3    H168437   3.684   3.281   0.527  0.3946  0.2280 -0.0107
15674TIP3    H268438   3.803   3.221   0.455 -0.2092 -0.1531 -0.6930
15675TIP3   OH268439   5.924   5.735   5.535  0.4488  0.0301  0.5016
15675TIP3    H168440   5.969   5.815   5.510  0.1269  0.3122  0.8196
15675TIP3    H268441   5.950   5.719   5.625  2.0249 -1.2710 -0.1306
15676TIP3   OH268442   5.782   2.707   4.587  0.6646  0.0328 -0.4724
15676TIP3    H168443   5.800   2.618   4.619 -0.0867  0.7889  2.4250
15676TIP3    H268444   5.699   2.698   4.540  0.9820 -0.9136 -0.8861
15677TIP3   OH268445   5.818   4.916  12.934 -0.5955 -1.0172 -0.0139
15677TIP3    H168446   5.888   4.954  12.986  0.6413 -3.6796  0.4488
15677TIP3    H268447   5.738   4.938  12.981 -0.2635  2.5787 -0.8615
15678TIP3   OH268448   6.064   6.424   1.063 -0.4452  0.3623  0.1699
15678TIP3    H168449   6.106   6.434   1.148 -0.0066  0.1540 -0.0200
15678TIP3    H268450   6.131   6.447   0.999 -0.5980 -0.0249 -0.1363
15679TIP3   OH268451   0.798   5.073  14.612 -0.0422 -0.4373  0.3894
15679TIP3    H168452   0.728   5.009  14.597  0.6195 -0.9641 -0.5604
15679TIP3    H268453   0.757   5.158  14.594 -0.2602 -0.7909 -0.9072
15680TIP3   OH268454   0.165   0.112   5.589  0.4397  0.1574 -0.5475
15680TIP3    H168455   0.080   0.137   5.554  0.5212  1.5779  0.2009
15680TIP3    H268456   0.228   0.164   5.540  0.7727  0.0509 -0.2402
15681TIP3   OH268457   5.459   0.127   5.964 -0.1368  0.4948  0.1078
15681TIP3    H168458   5.529   0.069   5.936 -1.5377 -0.5670 -1.3417
15681TIP3    H268459   5.462   0.125   6.060  1.3756 -0.0328  0.0610
15682TIP3   OH268460   4.518   1.468   4.068 -0.2221 -0.0297 -0.0403
15682TIP3    H168461   4.552   1.438   3.984  0.5317 -0.2810  0.3375
15682TIP3    H268462   4.529   1.392   4.126 -1.6855 -0.2060  0.0427
15683TIP3   OH268463   4.441   0.724   2.402 -0.0783 -0.0957 -0.3291
15683TIP3    H168464   4.450   0.713   2.496 -0.4413  0.0017 -0.2805
15683TIP3    H268465   4.528   0.705   2.366  0.4786  1.3661  0.1566
15684TIP3   OH268466   2.220   1.122   2.616 -0.3483 -0.1432 -0.1064
15684TIP3    H168467   2.136   1.159   2.591  0.7947  1.6926 -1.5291
15684TIP3    H268468   2.243   1.168   2.697 -1.9146 -2.7213  1.9744
15685TIP3   OH268469   2.376   1.133  13.083 -0.5655 -0.8368  0.2977
15685TIP3    H168470   2.379   1.162  13.174 -0.5879  0.0118  0.0372
15685TIP3    H268471   2.292   1.167  13.050 -0.3733 -0.7894 -0.1484
15686TIP3   OH268472   4.018   0.114  14.401  0.1156  0.2051 -0.5501
15686TIP3    H168473   4.111   0.136  14.391 -0.3473  1.8419 -1.6655
15686TIP3    H268474   4.014   0.065  14.483  1.8677  0.7750 -0.0777
15687TIP3   OH268475   2.156   3.961   4.987 -0.0871 -0.0174 -0.2396
15687TIP3    H168476   2.227   4.007   4.941  0.7671  1.6050  2.4840
15687TIP3    H268477   2.076   4.005   4.958  0.4422  1.0532 -0.1453
15688TIP3   OH268478   3.922   3.061   4.608 -0.7489  0.4190  0.0400
15688TIP3    H168479   3.982   2.986   4.616  1.4653  2.0108 -0.5569
15688TIP3    H268480   3.844   3.025   4.568 -0.8448 -2.0682  2.1677
15689TIP3   OH268481   1.010   3.942  16.657 -0.7460  0.0024  0.9742
15689TIP3    H168482   0.936   3.940  16.595  0.6347 -0.9319 -0.7451
15689TIP3    H268483   0.971   3.972  16.739 -2.7765  0.8283 -0.1994
15690TIP3   OH268484   3.140   5.069  11.198 -0.5170  0.1729 -0.1779
15690TIP3    H168485   3.174   4.980  11.199 -0.7567  0.0798 -0.4092
15690TIP3    H268486   3.170   5.106  11.115  0.4403  0.6420  0.3541
15691TIP3   OH268487   4.917   5.521  14.248  0.1249 -0.4451  0.4215
15691TIP3    H168488   4.963   5.605  14.257 -1.0770  0.2750  0.1006
15691TIP3    H268489   4.832   5.536  14.290 -0.4952 -1.1731 -0.5225
15692TIP3   OH268490   0.105   0.538   5.556 -0.1349  0.3248  0.5271
15692TIP3    H168491   0.060   0.556   5.639 -2.5368 -0.1831 -0.5756
15692TIP3    H268492   0.197   0.531   5.580 -0.8524 -0.9816  3.3518
15693TIP3   OH268493   5.075   3.613  15.683 -0.0394  0.3673  0.0930
15693TIP3    H168494   5.021   3.552  15.631 -0.3584  1.1617 -0.5268
15693TIP3    H268495   5.085   3.570  15.768 -1.9229  0.3353  0.3334
15694TIP3   OH268496   6.592   5.001  16.421  0.1744  0.0465 -0.7360
15694TIP3    H168497   6.522   5.041  16.369 -1.0591  1.6790  1.9930
15694TIP3    H268498   6.664   5.065  16.418 -0.0752  0.3642 -0.0892
15695TIP3   OH268499   6.268   0.064  11.672 -0.1110  0.6818  0.0169
15695TIP3    H168500   6.338   0.117  11.633  0.6805 -1.1704 -1.2290
15695TIP3    H268501   6.311   0.019  11.745 -0.9809  2.2800  1.5903
15696TIP3   OH268502   3.595   0.365   4.936  0.5828  0.6962  0.1060
15696TIP3    H168503   3.656   0.434   4.963  0.4980  0.3631  1.2046
15696TIP3    H268504   3.576   0.384   4.844  0.2419  2.3924  0.4898
15697TIP3   OH268505   0.334   3.188  14.862 -0.0362  0.0357  0.3830
15697TIP3    H168506   0.264   3.238  14.819  0.1846  0.2294  0.2481
15697TIP3    H268507   0.415   3.230  14.833  0.1995 -0.9022 -0.3881
15698TIP3   OH268508   4.364   1.361   5.420 -0.1111 -0.2810 -0.2082
15698TIP3    H168509   4.271   1.375   5.441 -0.5512 -3.0813  0.0899
15698TIP3    H268510   4.363   1.306   5.342  1.2887 -1.1690  0.3784
15699TIP3   OH268511   5.903   0.478  14.540  0.1963 -0.5374 -0.7135
15699TIP3    H168512   5.936   0.547  14.483 -0.6100  0.1983 -0.2920
15699TIP3    H268513   5.886   0.404  14.481 -1.2067  0.4099 -1.5301
15700TIP3   OH268514   2.038   1.584  13.531  0.1571  0.3895 -0.1395
15700TIP3    H168515   1.970   1.551  13.589  0.6444  0.0319  0.2292
15700TIP3    H268516   1.997   1.586  13.444  0.4049 -2.1734 -0.3691
15701TIP3   OH268517   0.254   2.240   4.135 -0.5855 -0.1316  0.3058
15701TIP3    H168518   0.333   2.204   4.096  0.8285  3.1814 -0.2251
15701TIP3    H268519   0.212   2.288   4.064 -0.1475  2.6163  1.7889
15702TIP3   OH268520   0.891   4.308  13.824 -0.3086  0.3774 -0.0580
15702TIP3    H168521   0.929   4.246  13.762 -1.4584  0.1102 -0.5225
15702TIP3    H268522   0.820   4.259  13.866 -0.7389  1.1424  0.1163
15703TIP3   OH268523   5.185   4.429   2.747 -0.4993 -0.1407 -0.3137
15703TIP3    H168524   5.111   4.474   2.789 -0.3440  1.2847 -1.4660
15703TIP3    H268525   5.226   4.379   2.817 -3.1827 -1.9135  0.1693
15704TIP3   OH268526   1.431   1.183  15.731 -0.8649  0.2408 -0.5371
15704TIP3    H168527   1.349   1.142  15.701 -1.4357  1.6687 -1.0176
15704TIP3    H268528   1.402   1.251  15.792  0.0486  0.0734  0.0968
15705TIP3   OH268529   1.886   4.156   6.024  0.5376 -0.1266  0.1518
15705TIP3    H168530   1.930   4.144   5.941  0.6942 -2.7773  0.5372
15705TIP3    H268531   1.955   4.148   6.090  0.0975 -0.3314  0.6012
15706TIP3   OH268532   3.820   3.908  10.946 -0.4380  0.2956 -0.9416
15706TIP3    H168533   3.897   3.941  10.993 -0.2292  0.1597 -1.1900
15706TIP3    H268534   3.754   3.977  10.957 -0.1224  0.6319 -1.1390
15707TIP3   OH268535   1.471   4.349   4.025  0.2104 -0.1931  0.2143
15707TIP3    H168536   1.392   4.335   4.077  0.7878  0.7943  1.4049
15707TIP3    H268537   1.502   4.436   4.052  2.7926 -1.3562  1.2834
15708TIP3   OH268538   1.351   0.850   3.462  0.0443 -0.7890 -0.1091
15708TIP3    H168539   1.309   0.885   3.383  0.5732  1.2490  0.4463
15708TIP3    H268540   1.354   0.925   3.522  0.0560 -2.1660  1.6922
15709TIP3   OH268541   5.556   6.581  16.887  0.0339  0.3832 -0.3741
15709TIP3    H168542   5.472   6.541  16.909 -0.1675  1.1634  0.3203
15709TIP3    H268543   5.567   6.651  16.951  1.2862  0.2028 -0.3649
15710TIP3   OH268544   4.231   6.373  11.479  0.0354 -0.4692 -0.1105
15710TIP3    H168545   4.145   6.334  11.461 -0.1245  0.4802 -1.6448
15710TIP3    H268546   4.270   6.317  11.546 -1.7161 -1.0015  0.5118
15711TIP3   OH268547   0.189   0.781  16.783 -0.2543 -0.1968 -0.2351
15711TIP3    H168548   0.094   0.790  16.775 -0.2242 -0.2165 -0.6497
15711TIP3    H268549   0.201   0.715  16.851 -0.5526 -0.7513 -0.7108
15712TIP3   OH268550   1.571   1.412  12.787  0.0724 -0.0775  0.0243
15712TIP3    H168551   1.648   1.438  12.836 -0.5435 -0.1491  1.0557
15712TIP3    H268552   1.503   1.399  12.853 -1.0087  0.6240 -0.8987
15713TIP3   OH268553   2.017   3.557  14.980 -0.7215 -0.0834 -0.3778
15713TIP3    H168554   1.948   3.571  15.045 -0.5394 -1.5629  0.1878
15713TIP3    H268555   2.087   3.513  15.028 -0.7484 -1.6169 -1.6184
15714TIP3   OH268556   2.544   3.898  13.372 -0.1829 -0.1947 -1.1787
15714TIP3    H168557   2.472   3.834  13.376 -0.9866  0.7209 -0.3603
15714TIP3    H268558   2.579   3.900  13.461 -2.1400  2.6213 -0.3374
15715TIP3   OH268559   0.804   1.452  11.915 -0.1421 -0.2593  0.2277
15715TIP3    H168560   0.869   1.522  11.916 -0.2815 -0.1129 -0.5307
15715TIP3    H268561   0.770   1.452  11.826  0.2680 -1.6726  0.0505
15716TIP3   OH268562   1.638   3.247   5.483 -0.0002 -0.3848 -0.0634
15716TIP3    H168563   1.682   3.315   5.433  0.3820  1.0834  2.1049
15716TIP3    H268564   1.654   3.271   5.575 -1.4442 -2.3746  0.7842
15717TIP3   OH268565   2.826   4.512   5.945  0.0585 -0.4466 -0.0552
15717TIP3    H168566   2.794   4.428   5.980 -0.4799  0.2465  1.1838
15717TIP3    H268567   2.806   4.508   5.852  0.1410 -1.7393 -0.0444
15718TIP3   OH268568   0.622   3.670  11.504  0.0984  0.1680  0.1252
15718TIP3    H168569   0.623   3.735  11.574 -1.5616 -0.4262  0.7471
15718TIP3    H268570   0.604   3.587  11.549 -0.3765 -0.3130 -0.9237
15719TIP3   OH268571   3.880   1.653  14.404 -0.0340 -0.2312  0.0109
15719TIP3    H168572   3.928   1.734  14.385 -0.4326  0.0060  0.0181
15719TIP3    H268573   3.795   1.682  14.435 -0.0766 -0.6513  0.2941
15720TIP3   OH268574   5.499   1.323  14.044  0.2339 -0.0381  0.7038
15720TIP3    H168575   5.514   1.272  14.124  0.6559  1.8807  1.9095
15720TIP3    H268576   5.429   1.384  14.068  0.7147  0.9059 -0.2292
15721TIP3   OH268577   3.556   2.987   0.956  0.2040 -0.2353  0.0898
15721TIP3    H168578   3.540   2.902   0.995 -2.3798  0.5129  0.8076
15721TIP3    H268579   3.580   3.044   1.029 -3.3684  0.8521  0.5970
15722TIP3   OH268580   5.794   1.032  15.704 -0.4589 -0.4032 -1.3351
15722TIP3    H168581   5.791   1.121  15.670  0.6092  0.4016  0.5015
15722TIP3    H268582   5.787   0.976  15.627  1.7823  1.2704 -2.8642
15723TIP3   OH268583   0.988   3.421   5.558 -0.3397 -1.0763 -0.4120
15723TIP3    H168584   1.012   3.338   5.517 -1.8774 -0.5732 -2.5137
15723TIP3    H268585   0.992   3.485   5.487 -0.5244  0.3942  0.8420
15724TIP3   OH268586   3.392   6.483  16.457  0.5727 -0.5082 -0.4483
15724TIP3    H168587   3.299   6.492  16.478  1.2846  1.7055  2.5007
15724TIP3    H268588   3.405   6.389  16.446 -1.5400 -1.2086  2.0522
15725TIP3   OH268589   3.672   4.459   1.887  0.4308 -0.2643  0.0329
15725TIP3    H168590   3.664   4.416   1.972 -1.3694  0.1137  0.0994
15725TIP3    H268591   3.712   4.394   1.831 -0.9744 -1.5796  0.4775
15726TIP3   OH268592   5.716   6.252  10.841 -0.5184 -0.2777 -0.4485
15726TIP3    H168593   5.733   6.179  10.900 -1.6136  0.8577  1.3480
15726TIP3    H268594   5.713   6.329  10.898  1.5234  1.3834 -2.3626
15727TIP3   OH268595   1.518   3.179   3.394  0.4688  0.0629  0.5062
15727TIP3    H168596   1.485   3.110   3.451  1.7394 -0.1396  1.0112
15727TIP3    H268597   1.517   3.140   3.306  0.3761 -0.3013  0.6670
15728TIP3   OH268598   3.878   6.343   1.790 -0.1043 -0.0788  0.2694
15728TIP3    H168599   3.842   6.424   1.825 -0.5700  0.1003 -0.5958
15728TIP3    H268600   3.802   6.288   1.773  0.0777 -0.0300 -0.7696
15729TIP3   OH268601   0.147   6.070   5.855  0.9568  0.2179 -0.0829
15729TIP3    H168602   0.119   6.050   5.766  1.0396  0.1513 -0.0936
15729TIP3    H268603   0.168   5.985   5.893  1.1660  0.2706 -0.0810
15730TIP3   OH268604   5.320   2.323   3.000  0.4728  0.0084  0.2066
15730TIP3    H168605   5.366   2.327   2.916  0.4975  0.8724  0.2549
15730TIP3    H268606   5.288   2.233   3.005 -1.7695  0.5801 -1.9405
15731TIP3   OH268607   1.523   1.087  14.770 -0.5216 -0.0867  0.0997
15731TIP3    H168608   1.466   1.039  14.830 -2.3656  0.6042 -1.0278
15731TIP3    H268609   1.464   1.122  14.703  1.2366  0.6756 -1.1310
15732TIP3   OH268610   3.500   5.300  14.759  0.7247  0.0832 -0.6395
15732TIP3    H168611   3.524   5.294  14.851  0.0216 -0.6266 -0.4858
15732TIP3    H268612   3.429   5.364  14.756  1.8017  1.3071 -0.9296
15733TIP3   OH268613   4.009   1.562  11.028  0.1099 -0.1707 -0.3557
15733TIP3    H168614   3.942   1.574  10.961 -0.2126  0.3891  0.0578
15733TIP3    H268615   4.059   1.485  10.999 -0.4648 -0.3583 -0.8635
15734TIP3   OH268616   0.650   5.016   3.652  0.1829 -0.8461  0.0193
15734TIP3    H168617   0.618   4.943   3.704 -0.8200 -0.0558  0.5502
15734TIP3    H268618   0.578   5.079   3.652  1.7057  1.0013  1.2171
15735TIP3   OH268619   1.260   5.311   2.331 -0.6763 -0.2551 -0.0234
15735TIP3    H168620   1.284   5.268   2.249  0.5458  2.0032 -0.9172
15735TIP3    H268621   1.323   5.382   2.341 -2.0690  0.8177  1.8086
15736TIP3   OH268622   4.587   1.450   3.773 -0.2841  0.3739  0.0885
15736TIP3    H168623   4.659   1.392   3.749  1.3130  1.2649  2.3896
15736TIP3    H268624   4.576   1.507   3.696  1.1062 -0.1225 -0.5043
15737TIP3   OH268625   3.872   6.052   2.213  0.9680 -0.0335 -0.3224
15737TIP3    H168626   3.883   6.145   2.193 -0.5719 -0.0497 -1.4570
15737TIP3    H268627   3.956   6.025   2.249  1.3783  1.8449  0.2413
15738TIP3   OH268628   6.632   2.039  14.426  0.1708 -0.1540 -0.1556
15738TIP3    H168629   6.700   1.976  14.402  0.6273  0.5863 -0.8534
15738TIP3    H268630   6.611   2.018  14.517  2.8958  0.9659  0.8440
15739TIP3   OH268631   5.793   3.492  12.870 -0.5833  0.1452  0.4218
15739TIP3    H168632   5.846   3.571  12.854  0.5290 -0.1891  2.1104
15739TIP3    H268633   5.765   3.464  12.783  0.9161  1.1154 -0.4316
15740TIP3   OH268634   3.842   0.785  15.121 -0.2749  0.0745 -0.0100
15740TIP3    H168635   3.908   0.716  15.123  1.2088  1.4159 -0.6839
15740TIP3    H268636   3.786   0.767  15.197  0.4175 -1.4984  0.1702
15741TIP3   OH268637   5.988   3.382   5.344 -0.4701 -0.0605  0.1783
15741TIP3    H168638   5.927   3.401   5.273  0.7659 -0.0617 -0.9330
15741TIP3    H268639   5.966   3.444   5.413  1.2054  3.2332 -1.9689
15742TIP3   OH268640   4.137   5.554  12.140  0.0485  0.2531  0.3700
15742TIP3    H168641   4.135   5.647  12.114  0.7936  0.2650  0.3450
15742TIP3    H268642   4.195   5.513  12.077  2.2834  0.3624  2.2039
15743TIP3   OH268643   6.687   6.110   6.602 -0.5003  0.2435  0.0078
15743TIP3    H168644   6.721   6.183   6.550 -0.5600 -0.4687 -1.0576
15743TIP3    H268645   6.602   6.090   6.564 -0.5804 -0.2434  0.4240
15744TIP3   OH268646   6.119   2.997  14.173  0.8417 -0.4365 -0.0643
15744TIP3    H168647   6.138   2.917  14.124  0.3711 -0.7257  0.2159
15744TIP3    H268648   6.037   3.028  14.136  1.2148  0.1284 -0.4300
15745TIP3   OH268649   0.099   6.402  15.564  0.0458 -0.0728 -0.2081
15745TIP3    H168650   0.169   6.345  15.595 -1.1900 -1.5292  0.0569
15745TIP3    H268651   0.031   6.341  15.532 -0.0934  1.2920 -2.8116
15746TIP3   OH268652   3.707   0.723  17.023 -0.1020 -0.2766 -0.5271
15746TIP3    H168653   3.693   0.641  16.977 -1.0263 -0.0236 -0.7007
15746TIP3    H268654   3.652   0.717  17.101 -0.9679  0.5933 -1.0565
15747TIP3   OH268655   6.364   1.179   1.050 -0.2881 -0.5878  0.5486
15747TIP3    H168656   6.283   1.191   1.000 -0.4076 -0.8185  0.6899
15747TIP3    H268657   6.432   1.214   0.992 -0.7660  2.2618  1.5278
15748TIP3   OH268658   1.716   6.205   4.281  0.0924 -0.0104  0.0753
15748TIP3    H168659   1.772   6.216   4.357 -1.7156 -2.1881  1.8591
15748TIP3    H268660   1.699   6.294   4.250  1.5208  0.8758  1.6810
15749TIP3   OH268661   1.408   5.180   4.332  0.3123  0.0700  0.0746
15749TIP3    H168662   1.443   5.141   4.412 -0.9800  0.2256  0.7451
15749TIP3    H268663   1.475   5.163   4.266  1.2011 -0.4698  1.0770
15750TIP3   OH268664   0.950   5.940   4.226 -0.2616 -0.3273  0.5506
15750TIP3    H168665   1.035   5.907   4.195 -0.2889 -0.4485  0.6051
15750TIP3    H268666   0.908   5.974   4.147  0.3755  0.9302  0.7289
15751TIP3   OH268667   3.669   3.303  17.123  0.3405  0.8584 -0.0289
15751TIP3    H168668   3.618   3.378  17.091 -2.0350 -0.8709 -0.5449
15751TIP3    H268669   3.704   3.263  17.044  0.1318  0.4403  0.0888
15752TIP3   OH268670   5.434   0.348  12.709 -0.3618 -0.0443  0.5269
15752TIP3    H168671   5.348   0.306  12.705 -0.7505  0.8385 -0.8615
15752TIP3    H268672   5.447   0.366  12.802 -1.0437 -1.4508  0.9156
15753TIP3   OH268673   1.052   2.742   3.158  0.1256  0.3480  0.0169
15753TIP3    H168674   1.079   2.688   3.083  0.7039  0.3169  0.2385
15753TIP3    H268675   0.976   2.791   3.127 -0.1070 -0.2335 -0.3450
15754TIP3   OH268676   0.823   2.650  11.741  0.6220  0.0196 -0.4071
15754TIP3    H168677   0.741   2.676  11.699  0.4266  0.6858  0.3584
15754TIP3    H268678   0.871   2.732  11.754  1.0968 -0.2857 -0.2035
15755TIP3   OH268679   5.074   0.111   1.855  1.0075 -0.4547  0.5195
15755TIP3    H168680   5.009   0.146   1.916  1.2611 -1.4422  1.3870
15755TIP3    H268681   5.156   0.111   1.905  1.7705  0.9732 -0.6237
15756TIP3   OH268682   3.247   6.688  17.268 -0.0137  0.0537  0.6910
15756TIP3    H168683   3.258   6.729  17.354 -0.4491  0.6890  0.4564
15756TIP3    H268684   3.227   6.597  17.287 -0.2566  0.2223  1.2716
15757TIP3   OH268685   0.708   4.818   2.056  0.6341 -0.2104  0.6222
15757TIP3    H168686   0.625   4.775   2.035  1.2644 -1.5673  0.7461
15757TIP3    H268687   0.737   4.774   2.136  1.3649  0.3885  0.6895
15758TIP3   OH268688   4.555   4.102   1.378 -0.6153 -0.6832 -0.1066
15758TIP3    H168689   4.642   4.096   1.419 -0.4546  0.0522 -0.3155
15758TIP3    H268690   4.508   4.026   1.410 -1.0209  0.6059  2.6781
15759TIP3   OH268691   1.710   4.336  15.015  0.7789 -0.3149 -0.3342
15759TIP3    H168692   1.708   4.379  15.100  1.4005 -2.1008  0.6517
15759TIP3    H268693   1.691   4.405  14.952  0.5979  1.1173  1.2265
15760TIP3   OH268694   4.074   1.171  14.997 -0.1089 -0.0848  0.3956
15760TIP3    H168695   4.169   1.163  14.997 -0.1260 -0.3160  0.1509
15760TIP3    H268696   4.042   1.081  15.003 -0.3136 -0.2434 -1.9780
15761TIP3   OH268697   2.706   6.442  12.871  0.0593  0.1113  0.2461
15761TIP3    H168698   2.701   6.378  12.941 -2.6319 -1.3183 -1.1275
15761TIP3    H268699   2.633   6.502  12.887  2.2307  2.6880  1.2323
15762TIP3   OH268700   3.103   1.363   0.567 -0.3996  0.5767 -0.1952
15762TIP3    H168701   3.010   1.344   0.572 -0.4677  0.5583 -1.3195
15762TIP3    H268702   3.119   1.425   0.638 -0.8078 -1.1225  1.4279
15763TIP3   OH268703   4.752   3.963  15.801 -0.8049  0.3223 -0.4961
15763TIP3    H168704   4.755   4.004  15.715 -1.6320  2.6919  0.5407
15763TIP3    H268705   4.840   3.925  15.813 -1.0339 -1.1130 -2.8027
15764TIP3   OH268706   5.771   0.280  16.322 -0.2510 -0.3469 -0.0409
15764TIP3    H168707   5.815   0.325  16.395 -0.0313  0.9456 -0.9364
15764TIP3    H268708   5.678   0.291  16.340 -0.2112 -1.1896  0.7274
15765TIP3   OH268709   1.987   1.067  16.976 -0.3338 -0.1795 -0.1283
15765TIP3    H168710   1.950   1.012  16.907 -0.0962  0.5106 -0.8237
15765TIP3    H268711   1.983   1.013  17.055  0.5213 -1.4435 -0.9188
15766TIP3   OH268712   0.735   2.336   0.050 -0.2819 -0.0079  0.0975
15766TIP3    H168713   0.715   2.338   0.143  0.4131 -3.1690  0.4200
15766TIP3    H268714   0.729   2.428   0.022 -0.8432  0.9860  3.1268
15767TIP3   OH268715   2.520   5.239  16.932 -0.0488 -0.0722  0.1204
15767TIP3    H168716   2.585   5.213  16.997  0.8878  0.3080 -0.6302
15767TIP3    H268717   2.441   5.259  16.982  0.3749 -0.6590  1.0392
15768TIP3   OH268718   3.427   1.497   3.059 -0.5788  0.0185  0.6331
15768TIP3    H168719   3.385   1.422   3.101 -0.3135 -0.0810  0.7234
15768TIP3    H268720   3.385   1.574   3.099 -1.5150 -0.0696 -0.1258
15769TIP3   OH268721   0.794   1.598   2.615  0.0691 -0.2873 -0.3066
15769TIP3    H168722   0.838   1.520   2.651 -1.7584 -0.6904  1.1977
15769TIP3    H268723   0.823   1.670   2.672  1.2298  0.0583 -1.2868
15770TIP3   OH268724   4.877   2.632  16.527 -0.2289  0.4659  0.9073
15770TIP3    H168725   4.831   2.662  16.449  0.6563  0.9856  0.5653
15770TIP3    H268726   4.809   2.619  16.592 -0.8984  0.7784  0.2797
15771TIP3   OH268727   1.635   3.842   4.900  0.7940 -0.4271  0.1576
15771TIP3    H168728   1.728   3.851   4.884  0.6607  2.4106  0.5351
15771TIP3    H268729   1.627   3.762   4.953  3.4003  0.9215  2.8473
15772TIP3   OH268730   4.454   1.623   1.869  0.0332  0.2232  0.0222
15772TIP3    H168731   4.381   1.665   1.914 -0.2902  0.9586 -1.1449
15772TIP3    H268732   4.454   1.533   1.902  0.0443  0.8147  1.7255
15773TIP3   OH268733   5.869   1.697  15.054 -0.0216 -0.0366  0.5256
15773TIP3    H168734   5.794   1.712  14.996 -0.5685 -0.2071  1.1819
15773TIP3    H268735   5.923   1.633  15.007 -0.2982  0.0626  0.0647
15774TIP3   OH268736   1.952   4.340  14.699 -0.4615  0.0207 -0.2015
15774TIP3    H168737   1.927   4.410  14.639 -0.9191 -1.3134 -1.6324
15774TIP3    H268738   2.040   4.364  14.729 -1.1671  1.9199  0.5102
15775TIP3   OH268739   2.891   4.777   0.550 -0.3589 -0.2057 -0.4951
15775TIP3    H168740   2.946   4.699   0.547 -0.6188 -0.3875 -0.4849
15775TIP3    H268741   2.802   4.744   0.553 -0.4264  0.0138  2.4691
15776TIP3   OH268742   5.329   3.152   3.951 -0.7104  0.2289 -0.1482
15776TIP3    H168743   5.292   3.130   3.865  1.1565 -1.8544 -0.4992
15776TIP3    H268744   5.274   3.224   3.982 -1.8613  0.6299 -2.7799
15777TIP3   OH268745   0.890   1.365   2.727  0.1160  0.3351 -0.2727
15777TIP3    H168746   0.961   1.332   2.783  0.7643  1.3590 -0.4628
15777TIP3    H268747   0.810   1.339   2.772  0.6220  1.6112  1.4541
15778TIP3   OH268748   3.935   1.472   5.254  0.3336 -0.7019  0.3653
15778TIP3    H168749   3.876   1.541   5.285  0.4250  0.9434 -2.6254
15778TIP3    H268750   4.016   1.487   5.301  0.0706  0.7388  0.4171
15779TIP3   OH268751   5.325   2.869   1.827 -0.8601 -0.0105  0.1268
15779TIP3    H168752   5.321   2.955   1.785 -1.0863 -0.3610 -0.5762
15779TIP3    H268753   5.234   2.843   1.838 -0.8049  0.0966  0.8893
15780TIP3   OH268754   6.287   2.272   4.986 -0.2749  0.1832  0.4804
15780TIP3    H168755   6.268   2.338   4.919 -3.1547 -1.7045 -0.7480
15780TIP3    H268756   6.349   2.212   4.944  0.6691  0.8903  0.8304
15781TIP3   OH268757   4.989   5.656   3.990 -0.4183  0.1636 -0.4065
15781TIP3    H168758   4.947   5.653   4.076  1.0869  0.1883  0.3529
15781TIP3    H268759   4.948   5.731   3.946 -0.4316  0.8289  0.7113
15782TIP3   OH268760   2.177   2.680   4.996  0.3710  0.1121  0.4583
15782TIP3    H168761   2.155   2.629   5.074  0.6189  0.5042  0.7900
15782TIP3    H268762   2.105   2.664   4.936  1.0781 -1.6800  0.0384
15783TIP3   OH268763   4.446   1.185   3.203  0.4414 -0.3209 -0.3699
15783TIP3    H168764   4.498   1.245   3.150  2.3394 -0.7674  0.8891
15783TIP3    H268765   4.503   1.110   3.216 -0.1583 -0.4393  1.8510
15784TIP3   OH268766   2.369   0.473  17.033  0.4062  0.4954 -0.1582
15784TIP3    H168767   2.319   0.433  17.104  0.9253 -1.2742 -0.7437
15784TIP3    H268768   2.317   0.456  16.954  0.8639  0.5548 -0.4779
15785TIP3   OH268769   3.834   4.764   6.110  0.0601 -0.8271  0.0711
15785TIP3    H168770   3.915   4.714   6.123 -0.1548 -1.3391 -0.4876
15785TIP3    H268771   3.773   4.727   6.175 -0.6289 -2.5173 -1.4552
15786TIP3   OH268772   3.274   1.238   0.929  0.2709 -0.2669  0.6216
15786TIP3    H168773   3.301   1.260   1.018 -0.2535 -0.2449  0.7745
15786TIP3    H268774   3.356   1.238   0.879  0.3385  2.0147  0.6217
15787TIP3   OH268775   5.996   0.251   1.026 -0.0530  0.2579  0.3836
15787TIP3    H168776   6.088   0.227   1.013 -0.6519 -1.1458 -1.6717
15787TIP3    H268777   5.998   0.346   1.038  1.6295  0.3139 -0.0595
15788TIP3   OH268778   6.364   5.927  13.720 -0.2195 -0.8084  0.4977
15788TIP3    H168779   6.364   5.920  13.625  0.7243  0.2244  0.3931
15788TIP3    H268780   6.419   5.854  13.749 -0.3078 -0.9823  0.2258
15789TIP3   OH268781   5.351   2.857  11.625  0.0400  0.0022 -0.2192
15789TIP3    H168782   5.301   2.786  11.586 -0.7156  1.5150 -2.1775
15789TIP3    H268783   5.408   2.889  11.555 -2.0522  3.4524 -0.6245
15790TIP3   OH268784   2.221   6.519  14.832 -0.1276 -0.2258  0.8977
15790TIP3    H168785   2.142   6.546  14.878  0.4188  0.6606  1.3560
15790TIP3    H268786   2.216   6.562  14.747  0.4089  0.8197  1.3703
15791TIP3   OH268787   2.606   5.232   4.869 -0.0905  0.4313 -0.1780
15791TIP3    H168788   2.541   5.207   4.804  0.9694  0.6656 -1.3759
15791TIP3    H268789   2.555   5.255   4.946 -1.3477 -0.5491 -0.6836
15792TIP3   OH268790   1.216   4.068   0.842 -0.0861  0.7104  0.0865
15792TIP3    H168791   1.207   3.986   0.793  0.2483  0.8365 -0.1894
15792TIP3    H268792   1.280   4.119   0.793  0.7563  0.5801  1.0062
15793TIP3   OH268793   4.083   2.591  13.491  0.1063  0.1433 -0.0833
15793TIP3    H168794   4.086   2.680  13.526 -0.1647 -0.2190  0.9067
15793TIP3    H268795   4.002   2.588  13.439 -0.8307 -0.0231  1.3363
15794TIP3   OH268796   4.094   5.624   0.795  0.5362 -0.0451 -0.0229
15794TIP3    H168797   4.072   5.538   0.759  1.8910 -0.4758  0.0994
15794TIP3    H268798   4.176   5.610   0.842  0.9673  1.3796 -0.2795
15795TIP3   OH268799   2.508   3.912   5.048  0.0307 -0.1671 -0.2143
15795TIP3    H168800   2.465   3.988   5.009  0.4250 -0.0268 -0.3871
15795TIP3    H268801   2.602   3.930   5.038  0.2726  1.2668  3.3769
15796TIP3   OH268802   2.276   2.773   0.857  0.3273  0.9702 -0.1258
15796TIP3    H168803   2.342   2.718   0.900 -0.2864  0.7213  0.5080
15796TIP3    H268804   2.299   2.769   0.764 -0.2271 -1.1100 -0.2227
15797TIP3   OH268805   4.591   4.307  15.794  0.9662 -0.2266 -0.1171
15797TIP3    H168806   4.646   4.282  15.868  1.2019 -0.2381 -0.2945
15797TIP3    H268807   4.652   4.342  15.729  0.5239  2.2445  0.6747
15798TIP3   OH268808   0.712   5.745   1.839  0.0351  0.1764  0.3103
15798TIP3    H168809   0.731   5.733   1.746 -0.4679  0.3813  0.1796
15798TIP3    H268810   0.766   5.819   1.865 -1.2886  1.4238 -0.3044
15799TIP3   OH268811   0.303   5.843   0.838 -0.3518  0.0563 -0.2403
15799TIP3    H168812   0.379   5.840   0.895 -0.0680 -0.1319 -0.6231
15799TIP3    H268813   0.239   5.784   0.878  0.7478 -2.0293 -1.3922
15800TIP3   OH268814   4.943   4.830   2.693 -0.2706 -0.4675  0.7050
15800TIP3    H168815   4.891   4.754   2.669  0.5760 -1.0545  0.7023
15800TIP3    H268816   5.034   4.799   2.694  0.4825  1.2184 -2.3244
15801TIP3   OH268817   1.363   1.374  12.954  0.0299 -0.4695  0.3039
15801TIP3    H168818   1.350   1.279  12.944  3.5513 -0.8916 -2.3216
15801TIP3    H268819   1.384   1.385  13.047 -0.4839 -2.2260  0.6799
15802TIP3   OH268820   4.484   2.217   5.346  0.0560 -0.0615 -0.3947
15802TIP3    H168821   4.442   2.156   5.408 -0.2822  1.2008  0.6590
15802TIP3    H268822   4.574   2.225   5.377  0.6784 -1.4627 -1.6723
15803TIP3   OH268823   0.332   2.442  13.411  0.6234 -0.4155 -0.4342
15803TIP3    H168824   0.392   2.368  13.398 -0.4931 -1.3454 -0.4877
15803TIP3    H268825   0.331   2.487  13.326  0.2228 -1.1985 -0.8608
15804TIP3   OH268826   0.222   2.522  10.525 -0.3852 -0.1516  0.0113
15804TIP3    H168827   0.138   2.483  10.547 -1.0243  0.6925 -0.8534
15804TIP3    H268828   0.200   2.605  10.484  0.9506  1.0398  1.5911
15805TIP3   OH268829   2.028   4.902  11.768  0.6458 -0.2767 -0.1315
15805TIP3    H168830   2.111   4.941  11.795 -0.6530  1.5852  1.5230
15805TIP3    H268831   2.019   4.925  11.676  1.9675 -0.5510 -0.3434
15806TIP3   OH268832   4.000   0.144   5.347  0.0166  0.0594 -0.1778
15806TIP3    H168833   4.033   0.061   5.313  1.9794  0.9461 -0.5666
15806TIP3    H268834   4.009   0.205   5.274 -0.0676  0.9321  0.5312
15807TIP3   OH268835   1.944   5.527  12.539 -0.3950 -0.0513 -0.0271
15807TIP3    H168836   1.856   5.491  12.548 -0.6351  0.3066 -0.8680
15807TIP3    H268837   1.980   5.485  12.461 -0.0429  0.2471 -0.0288
15808TIP3   OH268838   3.251   6.049   0.327 -0.4083  0.1315  0.0554
15808TIP3    H168839   3.163   6.088   0.334 -0.6745 -0.5889  0.9317
15808TIP3    H268840   3.241   5.961   0.364  1.1847  0.8459  2.3891
15809TIP3   OH268841   5.895   4.974  16.040 -0.5532  0.3141  0.0386
15809TIP3    H168842   5.910   4.979  15.946 -3.0753  0.0706 -0.4442
15809TIP3    H268843   5.933   4.889  16.066  0.3478  0.4796 -0.6896
15810TIP3   OH268844   5.245   0.280   4.276  0.4336 -0.0794 -0.2863
15810TIP3    H168845   5.185   0.343   4.317 -0.8927 -1.8368  0.5967
15810TIP3    H268846   5.293   0.242   4.350  0.0156 -1.2978 -0.6357
15811TIP3   OH268847   4.499   1.377  13.875  0.1219 -0.4751 -0.6601
15811TIP3    H168848   4.404   1.370  13.863  0.2678 -1.3199 -1.3562
15811TIP3    H268849   4.534   1.387  13.787  0.5152  2.4457 -0.2611
15812TIP3   OH268850   0.528   3.344  12.656 -0.8340 -0.0504  0.3990
15812TIP3    H168851   0.568   3.307  12.577 -2.6551 -1.3441  0.0084
15812TIP3    H268852   0.468   3.411  12.623 -1.4655 -0.4693  0.6767
15813TIP3   OH268853   1.218   0.302  13.264  0.3584 -0.0671  0.2328
15813TIP3    H168854   1.173   0.363  13.205  1.4143 -0.4954 -1.0548
15813TIP3    H268855   1.164   0.302  13.343 -1.5906 -0.1238 -1.0268
15814TIP3   OH268856   6.598   1.836  14.124  0.5201  0.0437 -0.1289
15814TIP3    H168857   6.618   1.913  14.071  1.6931  1.1454  1.7802
15814TIP3    H268858   6.665   1.836  14.192  0.0889 -2.2636  0.3735
15815TIP3   OH268859   1.275   0.679   6.732  0.1885  0.5454  0.3289
15815TIP3    H168860   1.249   0.727   6.654 -2.0831 -0.0514  0.6660
15815TIP3    H268861   1.370   0.690   6.736  0.0734  2.5980 -1.1539
15816TIP3   OH268862   5.866   6.209   3.904 -0.2722  0.6169  0.2750
15816TIP3    H168863   5.858   6.164   3.820 -0.4879  0.4863  0.3635
15816TIP3    H268864   5.954   6.247   3.903 -1.0954  2.6656 -1.0217
15817TIP3   OH268865   0.691   0.503  17.258 -0.2679  0.1113  0.1759
15817TIP3    H168866   0.677   0.408  17.252 -2.4039  0.4094 -0.3953
15817TIP3    H268867   0.712   0.518  17.350 -2.4077 -0.6912  0.8598
15818TIP3   OH268868   1.530   6.247   5.797  0.3810  0.4855  0.0082
15818TIP3    H168869   1.624   6.257   5.807  0.2374  0.2415  1.9912
15818TIP3    H268870   1.518   6.159   5.762  0.9111  0.7864 -0.9411
15819TIP3   OH268871   3.651   3.714   4.406 -0.1354  0.3628  0.6833
15819TIP3    H168872   3.588   3.786   4.403  0.2577  0.6711 -1.5405
15819TIP3    H268873   3.611   3.645   4.354  0.6273 -0.0757  0.6661
15820TIP3   OH268874   1.014   3.206  14.664 -0.4346  0.5469 -0.1492
15820TIP3    H168875   1.061   3.282  14.698  0.3497 -0.3997  1.0065
15820TIP3    H268876   1.080   3.136  14.664 -1.2887 -0.2823 -0.5787
15821TIP3   OH268877   5.667   6.019   1.767 -0.4014 -0.1086 -0.2302
15821TIP3    H168878   5.754   6.026   1.806  0.5271  0.4481 -2.2376
15821TIP3    H268879   5.651   5.925   1.760  0.2600 -0.2218 -0.2640
15822TIP3   OH268880   1.473   0.670  16.708 -0.1561 -0.1268 -0.1488
15822TIP3    H168881   1.545   0.618  16.742  0.3466  0.4847 -0.2645
15822TIP3    H268882   1.514   0.733  16.649 -0.7718  0.2996 -0.1359
15823TIP3   OH268883   3.220   6.666   1.249 -0.2000 -0.0073 -0.4244
15823TIP3    H168884   3.175   6.593   1.290 -0.1231 -0.2251 -0.7246
15823TIP3    H268885   3.274   6.626   1.181  1.2939  0.1360  0.6382
15824TIP3   OH268886   0.188   6.103   2.170  0.3087  0.3972  0.0109
15824TIP3    H168887   0.116   6.131   2.226  0.2261  1.6557 -0.6709
15824TIP3    H268888   0.231   6.033   2.219 -0.9885  0.0446  0.7064
15825TIP3   OH268889   6.560   4.909  14.288 -0.0425  0.3802 -0.5729
15825TIP3    H168890   6.640   4.863  14.313 -0.6576 -0.9479 -0.9858
15825TIP3    H268891   6.536   4.960  14.366  1.5023  1.2515 -0.6435
15826TIP3   OH268892   6.275   2.904   1.378  0.1411 -0.2618 -0.0947
15826TIP3    H168893   6.279   2.998   1.365 -0.8384 -0.3934 -1.5601
15826TIP3    H268894   6.273   2.893   1.474  1.5842  1.0981  0.1308
15827TIP3   OH268895   3.326   1.407  12.196  0.5272 -0.4441 -0.4613
15827TIP3    H168896   3.308   1.333  12.139  0.4433 -1.3717  0.7151
15827TIP3    H268897   3.239   1.442  12.219  0.5573 -0.1239 -0.8263
15828TIP3   OH268898   0.364   3.487   4.560 -0.3545 -0.1795  0.3315
15828TIP3    H168899   0.384   3.551   4.628 -1.4408  1.8552 -1.1590
15828TIP3    H268900   0.269   3.488   4.553 -0.2543 -0.0462 -1.4598
15829TIP3   OH268901   1.383   3.290   0.892  0.2773 -0.1198  0.3262
15829TIP3    H168902   1.374   3.195   0.887  2.1922 -0.5248  2.6770
15829TIP3    H268903   1.476   3.306   0.874  0.1110  1.2416  0.5483
15830TIP3   OH268904   6.403   3.113   1.901 -0.0505 -0.7023  0.0129
15830TIP3    H168905   6.386   3.020   1.918  0.4717 -0.7829  0.1157
15830TIP3    H268906   6.317   3.154   1.907 -0.2562 -1.1468  0.1850
15831TIP3   OH268907   2.448   0.013  14.490 -0.0433 -0.2963  0.1287
15831TIP3    H168908   2.418  -0.054  14.551 -0.3343  0.6405  1.0487
15831TIP3    H268909   2.375   0.024  14.429 -0.5575  0.1534  0.8105
15832TIP3   OH268910   5.970   4.724   5.124  0.2151 -0.2322 -0.0454
15832TIP3    H168911   5.994   4.741   5.033 -0.4377 -0.4781 -0.2659
15832TIP3    H268912   5.948   4.631   5.126  0.9224 -0.4000  0.5272
15833TIP3   OH268913   3.013   6.736  12.360  0.3856 -0.0766 -0.4067
15833TIP3    H168914   3.018   6.810  12.419 -1.0527 -0.4116  0.1772
15833TIP3    H268915   3.015   6.775  12.272 -1.5575  0.7889 -0.1153
15834TIP3   OH268916   0.289   1.579   4.576 -0.2997 -0.2076  0.2099
15834TIP3    H168917   0.291   1.552   4.484  0.5571  4.4446 -1.4185
15834TIP3    H268918   0.366   1.537   4.615 -1.0025 -2.7567 -0.9114
15835TIP3   OH268919   6.669   1.227   3.606 -0.0999  0.1046 -0.1999
15835TIP3    H168920   6.694   1.294   3.669 -0.9012 -0.2908  0.5605
15835TIP3    H268921   6.741   1.225   3.543 -0.2325  1.9286 -0.4671
15836TIP3   OH268922   5.162   0.639   1.656  0.0967 -0.3690 -0.1748
15836TIP3    H168923   5.074   0.673   1.642 -0.4420 -1.7898 -0.3949
15836TIP3    H268924   5.165   0.617   1.749  0.6552  0.8041  0.1057
15837TIP3   OH268925   5.249   0.532   0.430  0.2122  0.2739 -0.0958
15837TIP3    H168926   5.199   0.520   0.511  1.7987 -2.5108  0.5975
15837TIP3    H268927   5.310   0.602   0.450 -0.6396  0.8805  0.4541
15838TIP3   OH268928   5.942   0.489  13.080 -0.2372  0.5219 -0.2826
15838TIP3    H168929   6.017   0.542  13.106  0.4334 -1.0765  1.2735
15838TIP3    H268930   5.866   0.540  13.109  0.2739  1.6766 -0.9259
15839TIP3   OH268931   6.156   2.899  11.894  0.1482 -0.2583  0.3363
15839TIP3    H168932   6.106   2.828  11.932 -1.8425  0.6018 -0.5617
15839TIP3    H268933   6.248   2.875  11.910 -0.4043 -3.2916 -0.4442
15840TIP3   OH268934   1.251   6.431  12.499  0.4009 -0.7047  0.0932
15840TIP3    H168935   1.164   6.469  12.516  0.6601 -0.2669  0.4514
15840TIP3    H268936   1.280   6.399  12.585  1.1121  0.2472  0.2270
15841TIP3   OH268937   1.005   6.217   3.167  0.1577 -0.5372  0.1304
15841TIP3    H168938   0.994   6.229   3.073 -0.6177 -1.5001  0.0840
15841TIP3    H268939   0.922   6.247   3.205  1.4017  2.4511  0.8029
15842TIP3   OH268940   3.304   5.542   2.758  0.0681 -0.0604 -0.4284
15842TIP3    H168941   3.357   5.621   2.767 -0.3696  0.3040 -1.0175
15842TIP3    H268942   3.287   5.515   2.849 -1.4292  1.6394 -0.1605
15843TIP3   OH268943   5.461   6.659   4.276 -0.2164  0.6001 -0.4197
15843TIP3    H168944   5.521   6.620   4.213 -1.8943  0.8785 -2.2632
15843TIP3    H268945   5.492   6.627   4.361  1.4978 -0.6003 -1.4323
15844TIP3   OH268946   3.596   2.175   5.842 -0.1432  0.6194  0.5766
15844TIP3    H168947   3.514   2.126   5.849 -0.5944  1.1247 -0.8030
15844TIP3    H268948   3.627   2.184   5.932 -1.8302  0.8068  1.1668
15845TIP3   OH268949   3.880   1.675   6.597 -0.4653 -0.1782 -0.0436
15845TIP3    H168950   3.970   1.675   6.629  0.9623 -0.3515 -3.5797
15845TIP3    H268951   3.841   1.756   6.631  0.9019 -0.2009  1.7031
15846TIP3   OH268952   2.281   2.786   2.936 -0.1367 -0.5016  0.1618
15846TIP3    H168953   2.366   2.811   2.900  0.1390 -0.8116  0.5828
15846TIP3    H268954   2.296   2.698   2.973 -0.1810  0.1154  1.7443
15847TIP3   OH268955   5.432   3.984  15.643 -0.1262  0.5770  0.4567
15847TIP3    H168956   5.515   3.992  15.596 -0.6632 -2.3836 -1.2350
15847TIP3    H268957   5.373   4.045  15.597  0.4141  0.6929 -0.1008
15848TIP3   OH268958   3.346   3.934  16.169  0.0872  0.0627  0.2156
15848TIP3    H168959   3.334   3.979  16.085  0.0359  1.1856  0.8166
15848TIP3    H268960   3.350   4.004  16.234 -0.5920 -0.8208  1.2471
15849TIP3   OH268961   4.732   4.121   1.134 -0.2576  0.6578 -0.5464
15849TIP3    H168962   4.670   4.088   1.199  0.4456 -0.7370 -0.5286
15849TIP3    H268963   4.788   4.182   1.182  0.7508 -0.9344  0.4094
15850TIP3   OH268964   1.306   4.202   5.755 -0.1513  0.3686  0.4310
15850TIP3    H168965   1.334   4.293   5.764 -0.4046  0.6051 -0.8737
15850TIP3    H268966   1.375   4.150   5.795  0.0598  1.1318  1.0563
15851TIP3   OH268967   4.168   5.843   2.083 -0.2836 -0.2199  0.3207
15851TIP3    H168968   4.083   5.878   2.110 -0.5594 -0.6759  0.0465
15851TIP3    H268969   4.229   5.917   2.095 -0.7866  0.2289  0.1324
15852TIP3   OH268970   5.435   3.695   1.879  0.5991  0.0266 -0.2825
15852TIP3    H168971   5.446   3.749   1.801  3.3514 -1.4924 -1.1036
15852TIP3    H268972   5.340   3.690   1.893  0.1001  1.5089 -2.6747
15853TIP3   OH268973   0.108   5.740   3.299  0.1861 -0.0118  0.3096
15853TIP3    H168974   0.058   5.684   3.240  0.9099  0.9014 -1.2504
15853TIP3    H268975   0.041   5.789   3.348 -0.4666  0.3180 -0.8694
15854TIP3   OH268976   2.985   1.001   6.206  0.5012  0.5613 -0.5076
15854TIP3    H168977   3.008   0.971   6.294 -1.3056  0.6609  0.0493
15854TIP3    H268978   3.067   0.999   6.158  1.3057 -0.7880  0.8107
15855TIP3   OH268979   0.357   0.772  13.087  0.5552  0.2924 -0.1841
15855TIP3    H168980   0.379   0.736  13.173  4.0304  0.9865 -0.5969
15855TIP3    H268981   0.417   0.847  13.077 -2.0948  2.3590 -1.8646
15856TIP3   OH268982   3.365   2.465   2.340 -0.1780  0.4654  0.4039
15856TIP3    H168983   3.281   2.434   2.372 -0.6794  0.3719 -0.9437
15856TIP3    H268984   3.347   2.553   2.304  0.4512  0.7593  0.7845
15857TIP3   OH268985   1.914   4.940   0.929  0.5445 -0.0331  0.4652
15857TIP3    H168986   1.853   4.899   0.867  0.9896  1.5611 -1.1361
15857TIP3    H268987   1.861   4.961   1.005 -0.7755  0.6524 -0.6012
15858TIP3   OH268988   2.406   3.062  10.976  0.5204  0.0053 -0.3353
15858TIP3    H168989   2.488   3.030  11.015  0.6196 -2.7106 -2.4028
15858TIP3    H268990   2.428   3.076  10.883 -1.1511  0.0210 -0.7641
15859TIP3   OH268991   0.331   2.726   5.268 -0.3290  0.0307  0.2608
15859TIP3    H168992   0.402   2.743   5.330 -1.3035  2.2551  0.8670
15859TIP3    H268993   0.373   2.685   5.193  1.0853 -1.5381  1.8280
15860TIP3   OH268994   2.234   3.822  15.118  0.0265 -0.3915  0.0757
15860TIP3    H168995   2.293   3.855  15.185  0.8176 -1.2271 -0.1877
15860TIP3    H268996   2.146   3.834  15.154  0.4494 -1.2390  1.4643
15861TIP3   OH268997   4.675   0.411   2.434 -0.5181  0.5421  0.2742
15861TIP3    H168998   4.586   0.388   2.461  0.4698 -0.5652  2.9142
15861TIP3    H268999   4.692   0.355   2.358 -1.3232 -0.8506  1.0817
15862TIP3   OH269000   0.007   3.496   5.453  0.0152  0.5720  0.2991
15862TIP3    H169001   0.029   3.539   5.535  1.0820  1.9743 -0.6770
15862TIP3    H269002  -0.057   3.554   5.411 -0.8493 -0.3445  0.3022
15863TIP3   OH269003   6.660   2.884  13.639 -0.5535 -0.1725  0.2760
15863TIP3    H169004   6.686   2.838  13.559  1.1156  1.6585 -0.3262
15863TIP3    H269005   6.575   2.924  13.618  0.1570  0.8195 -0.8786
15864TIP3   OH269006   0.075   0.806  12.552  0.2042  0.4210  0.3563
15864TIP3    H169007   0.080   0.715  12.524  0.3349 -0.0844  1.9092
15864TIP3    H269008   0.149   0.816  12.613 -0.3722  1.2878  0.9329
15865TIP3   OH269009   6.473   3.357  17.148 -0.1050 -0.2313  0.2260
15865TIP3    H169010   6.473   3.431  17.208 -2.9936  0.6612 -0.6799
15865TIP3    H269011   6.434   3.285  17.198 -1.3537  0.1650 -0.1215
15866TIP3   OH269012   1.431   2.766   5.572  0.5385  0.1085 -0.2535
15866TIP3    H169013   1.417   2.730   5.484  1.2868 -1.3906  0.2047
15866TIP3    H269014   1.431   2.861   5.559 -0.0046 -0.0623 -1.7647
15867TIP3   OH269015   2.159   3.927   3.948  0.2386  0.0802  0.0241
15867TIP3    H169016   2.126   4.015   3.931  1.5146  0.2735 -1.7601
15867TIP3    H269017   2.197   3.932   4.036  0.0461  1.2234  0.0491
15868TIP3   OH269018   3.800   1.294  15.978 -0.1928  0.4006 -0.0286
15868TIP3    H169019   3.710   1.275  16.002  0.0017 -0.5668 -0.0229
15868TIP3    H269020   3.841   1.208  15.969  0.3356  0.7862 -1.5545
15869TIP3   OH269021   5.011   1.053   2.273  0.8306  0.5198 -0.0651
15869TIP3    H169022   4.948   0.982   2.287  1.3895 -0.0551 -0.4401
15869TIP3    H269023   5.072   1.046   2.346  0.1030  1.4874  0.6631
15870TIP3   OH269024   0.480   0.989   3.015  0.5622  0.0842 -0.0189
15870TIP3    H169025   0.539   0.924   2.978 -0.6597  0.8667 -3.7922
15870TIP3    H269026   0.530   1.070   3.015  0.4932  0.1267 -0.1288
15871TIP3   OH269027   4.302   1.093   2.279  0.1308 -0.1025  0.0063
15871TIP3    H169028   4.272   1.183   2.293 -0.9604 -0.4471 -0.0662
15871TIP3    H269029   4.396   1.102   2.262 -0.3837  1.3207 -2.7181
15872TIP3   OH269030   5.928   3.013   0.008 -0.1336  0.1610 -0.4951
15872TIP3    H169031   5.846   3.026   0.055 -0.0993 -1.3696  0.0602
15872TIP3    H269032   5.918   3.063  -0.073 -1.1519  0.9048  0.0586
15873TIP3   OH269033   6.447   6.513  16.123  0.0677 -0.6429 -0.4189
15873TIP3    H169034   6.480   6.455  16.192  2.2383 -0.7443 -1.4446
15873TIP3    H269035   6.522   6.569  16.101 -0.8260 -0.0329 -2.0840
15874TIP3   OH269036   3.049   3.596  14.164  0.3493 -0.0609  0.2703
15874TIP3    H169037   3.084   3.633  14.245  0.1760  0.3346  0.1709
15874TIP3    H269038   3.122   3.547  14.126 -0.0477 -1.6817  1.5038
15875TIP3   OH269039   0.471   0.741  16.180 -0.0391  0.2578  0.0599
15875TIP3    H169040   0.406   0.677  16.150 -0.8037  1.4193 -0.8420
15875TIP3    H269041   0.539   0.688  16.222 -0.1408 -1.2604 -1.5457
15876TIP3   OH269042   4.000   3.096  16.638  0.0803  0.0283 -0.3010
15876TIP3    H169043   4.056   3.112  16.561  1.0334 -2.0542 -0.1016
15876TIP3    H269044   4.050   3.131  16.711 -1.0846  2.5493 -0.6126
15877TIP3   OH269045   2.088   2.378  15.998 -0.7653 -0.1471 -0.0867
15877TIP3    H169046   2.053   2.294  16.027  0.5344 -0.2558  1.2867
15877TIP3    H269047   2.152   2.401  16.065 -0.3360  1.4290 -1.0083
15878TIP3   OH269048   6.745   4.742  15.428  0.1764  0.3852  0.1658
15878TIP3    H169049   6.824   4.718  15.379  0.4099  0.6359  0.4157
15878TIP3    H269050   6.722   4.663  15.476 -2.0802 -1.0549 -2.9711
15879TIP3   OH269051   0.490   1.586  11.474 -0.2963 -0.4164  0.5165
15879TIP3    H169052   0.520   1.670  11.440 -1.0149 -0.2597  0.2672
15879TIP3    H269053   0.414   1.564  11.422 -1.5369 -0.1002  2.1166
15880TIP3   OH269054   0.284   0.930  12.687 -0.6832  0.5448  0.3555
15880TIP3    H169055   0.261   0.906  12.777  1.4697  0.3869  0.9335
15880TIP3    H269056   0.368   0.976  12.696 -0.8185  1.2268 -1.5125
15881TIP3   OH269057   2.004   6.417  15.968  0.1170 -0.0027 -0.0423
15881TIP3    H169058   1.956   6.345  15.927  0.8665 -0.3431 -0.3513
15881TIP3    H269059   2.095   6.403  15.942  0.1686  1.5404 -0.8096
15882TIP3   OH269060   3.540   1.654   6.474 -0.1999  0.3818 -0.5634
15882TIP3    H169061   3.489   1.622   6.549 -0.3759  0.2487 -0.7384
15882TIP3    H269062   3.619   1.600   6.474  0.5834  1.4803  0.5153
15883TIP3   OH269063   4.456   0.049  15.915 -0.0635 -0.2390 -0.1388
15883TIP3    H169064   4.495   0.090  15.837 -0.3296 -0.9140 -0.6322
15883TIP3    H269065   4.363   0.070  15.909 -0.1991 -0.8945 -0.3822
15884TIP3   OH269066   4.660   4.434   5.447  0.1688  0.3925  0.1701
15884TIP3    H169067   4.624   4.379   5.516  0.1171  0.1898 -0.0169
15884TIP3    H269068   4.750   4.452   5.475  0.5118 -0.6035 -0.2418
15885TIP3   OH269069   2.084   1.277  11.851 -0.4569  0.2792 -0.1204
15885TIP3    H169070   2.176   1.305  11.854 -0.1921 -0.4142 -1.1011
15885TIP3    H269071   2.089   1.181  11.844 -1.2268  0.3200 -1.4035
15886TIP3   OH269072   0.070   5.621   2.594 -0.1314  0.6204  0.7187
15886TIP3    H169073   0.025   5.606   2.677  0.7644  1.6235  1.4108
15886TIP3    H269074   0.007   5.595   2.527 -0.8412 -0.2782  1.7090
15887TIP3   OH269075   3.479   2.322  11.548  0.0009  0.0027 -0.4446
15887TIP3    H169076   3.384   2.317  11.551  0.0106 -0.0817 -0.2642
15887TIP3    H269077   3.499   2.357  11.461 -0.2298  1.0182 -0.1027
15888TIP3   OH269078   5.318   5.278   2.134 -0.3915  0.9150  0.3367
15888TIP3    H169079   5.389   5.214   2.136  0.2643  1.6343  1.2874
15888TIP3    H269080   5.254   5.242   2.074  0.5635  0.0075 -0.1579
15889TIP3   OH269081   2.244   3.430   3.591 -0.2012 -0.0565 -0.3574
15889TIP3    H169082   2.205   3.503   3.638 -3.1435 -0.6299 -1.6919
15889TIP3    H269083   2.247   3.458   3.500 -2.2219 -1.7903 -1.0502
15890TIP3   OH269084   6.174   3.260   1.930  0.1695 -0.2172 -0.3661
15890TIP3    H169085   6.118   3.224   1.998 -0.1711  0.2947 -0.3718
15890TIP3    H269086   6.240   3.310   1.977 -0.8728  1.2900 -0.4432
15891TIP3   OH269087   3.758   0.005   0.400 -0.5371  0.0493 -0.0087
15891TIP3    H169088   3.832   0.019   0.459 -0.3957  0.7379 -0.3423
15891TIP3    H269089   3.752  -0.091   0.391  0.8448  0.0081 -0.6532
15892TIP3   OH269090   4.649   0.624   1.255  0.6976 -0.1405 -0.4620
15892TIP3    H169091   4.657   0.672   1.173  0.6585  1.1372  0.2554
15892TIP3    H269092   4.570   0.659   1.296 -0.5599 -2.3386 -0.8576
15893TIP3   OH269093   1.333   0.068  15.576 -0.1995 -0.0773 -0.4823
15893TIP3    H169094   1.270   0.127  15.535 -0.2125 -0.5021 -1.0877
15893TIP3    H269095   1.358   0.112  15.657 -0.6351  0.4906 -0.6503
15894TIP3   OH269096   5.977   2.359   4.363  0.3927  0.1193 -0.1855
15894TIP3    H169097   5.922   2.328   4.291  1.0063  0.7384 -0.9460
15894TIP3    H269098   6.027   2.282   4.390  0.4873 -0.0182 -0.7403
15895TIP3   OH269099   0.549   6.506   4.205  0.2356 -0.5833  0.3302
15895TIP3    H169100   0.565   6.412   4.211  2.0721 -0.6521 -3.0155
15895TIP3    H269101   0.478   6.514   4.141  1.6774  0.2587 -1.2509
15896TIP3   OH269102   6.362   5.420  12.725  0.0131  0.6722 -0.6772
15896TIP3    H169103   6.384   5.362  12.652  0.3662 -1.0462  0.7432
15896TIP3    H269104   6.339   5.503  12.683 -1.9305 -0.8690 -2.8571
15897TIP3   OH269105   2.231   0.026  11.871 -0.2039  0.1486  0.0511
15897TIP3    H169106   2.307  -0.025  11.843  0.1830  0.2788  0.8155
15897TIP3    H269107   2.156  -0.027  11.847  0.2153 -1.5419  2.2098
15898TIP3   OH269108   1.247   3.562   0.494  0.4542  0.3859 -0.6733
15898TIP3    H169109   1.174   3.604   0.448 -1.8025 -1.3243  1.0422
15898TIP3    H269110   1.232   3.468   0.479  1.1818 -0.0801  1.2609
15899TIP3   OH269111   5.769   3.202   3.295 -0.2591 -0.2502 -0.1891
15899TIP3    H169112   5.683   3.215   3.256  0.2017 -1.8614 -1.8673
15899TIP3    H269113   5.831   3.219   3.225  0.9340  2.0443  1.2896
15900TIP3   OH269114   3.883   2.252   0.363  0.0004 -0.0374  0.0958
15900TIP3    H169115   3.815   2.274   0.299 -0.8017  0.5966  1.1388
15900TIP3    H269116   3.956   2.219   0.310 -1.5757 -2.0302 -0.9767
15901TIP3   OH269117   5.212   2.639  15.259 -0.1073 -0.0410  0.3367
15901TIP3    H169118   5.197   2.578  15.187 -1.2498  0.2883  0.2850
15901TIP3    H269119   5.136   2.629  15.316 -0.9657  2.2211 -0.3173
15902TIP3   OH269120   4.890   1.250   6.128 -0.5161  0.1221 -0.2379
15902TIP3    H169121   4.900   1.218   6.218  0.0431  0.8383 -0.0325
15902TIP3    H269122   4.918   1.342   6.133  0.2117 -0.0306 -1.2868
15903TIP3   OH269123   0.597   0.866   0.172  0.3059  0.4054 -0.0726
15903TIP3    H169124   0.662   0.796   0.163  0.5072  0.3010  1.7447
15903TIP3    H269125   0.518   0.821   0.202  0.5854  0.9789  1.6090
15904TIP3   OH269126   0.483   4.886  15.997  0.0431  0.5260 -0.3544
15904TIP3    H169127   0.469   4.973  15.959  1.9004  1.0908  0.1526
15904TIP3    H269128   0.462   4.897  16.089  0.0112  0.3576 -0.3422
15905TIP3   OH269129   5.178   1.088  12.390  0.0097  0.0405 -0.2994
15905TIP3    H169130   5.200   1.143  12.314 -1.6167 -0.0324 -0.8632
15905TIP3    H269131   5.199   1.143  12.466 -0.0604  0.8172 -0.8256
15906TIP3   OH269132   2.045   3.636   3.241 -0.1578 -0.1995  0.4656
15906TIP3    H169133   1.964   3.630   3.190  0.7621 -0.4954 -1.0450
15906TIP3    H269134   2.110   3.591   3.187  0.8900 -0.5058  1.9281
15907TIP3   OH269135   5.188   3.151   1.377 -0.1493 -0.1854  0.1737
15907TIP3    H169136   5.276   3.165   1.412  1.0341 -0.4584 -2.4585
15907TIP3    H269137   5.196   3.073   1.322 -1.5960  0.7473 -1.4666
15908TIP3   OH269138   1.936   6.352   1.347  0.0865  0.4379  0.0907
15908TIP3    H169139   2.013   6.326   1.297 -0.3928  0.9210 -0.9176
15908TIP3    H269140   1.939   6.297   1.425 -0.0733 -1.5560 -1.2394
15909TIP3   OH269141   2.115   0.409  15.895  0.4219 -0.0101 -0.5411
15909TIP3    H169142   2.052   0.451  15.836 -0.2228 -1.4629 -0.9295
15909TIP3    H269143   2.089   0.317  15.896 -0.1190  0.0536  2.6702
15910TIP3   OH269144   2.156   0.715  12.331 -0.3291  0.0671 -0.1028
15910TIP3    H169145   2.234   0.731  12.384 -1.1127 -1.6800  1.7023
15910TIP3    H269146   2.098   0.789  12.351 -0.4008 -0.2968  1.1235
15911TIP3   OH269147   0.830   3.247  14.923 -0.6699 -0.4249 -0.1914
15911TIP3    H169148   0.776   3.169  14.908 -2.3436  0.5181  0.6717
15911TIP3    H269149   0.868   3.266  14.837 -0.4575 -2.0116 -0.4760
15912TIP3   OH269150   6.089   4.969  12.372  0.2396  0.5258  0.2055
15912TIP3    H169151   6.071   4.897  12.311  0.8547  0.7656 -0.2715
15912TIP3    H269152   6.009   5.022  12.371  0.0286  0.2081  0.0583
15913TIP3   OH269153   0.365   5.458  17.171 -0.4869 -0.2388  0.0469
15913TIP3    H169154   0.356   5.543  17.213  0.2517  0.7456 -1.6799
15913TIP3    H269155   0.291   5.453  17.111  0.8966  0.3864 -1.7805
15914TIP3   OH269156   1.155   0.959  16.615 -0.0751 -0.2302 -0.2260
15914TIP3    H169157   1.214   0.940  16.688 -0.0635 -0.2860 -0.2493
15914TIP3    H269158   1.177   1.048  16.588 -1.0221  0.3338  0.7636
15915TIP3   OH269159   2.569   0.890  11.591 -0.7257 -0.2523  0.5334
15915TIP3    H169160   2.512   0.967  11.590  1.2431  1.4247 -2.5322
15915TIP3    H269161   2.520   0.822  11.546 -0.0245  1.7042 -3.7511
15916TIP3   OH269162   3.189   6.100  15.454  0.0452  0.2727  0.0216
15916TIP3    H169163   3.227   6.094  15.541 -0.5683 -0.7236  0.2346
15916TIP3    H269164   3.264   6.109  15.395  0.5536 -0.6042  0.5180
15917TIP3   OH269165   6.359   3.404   2.631  0.4488 -0.1238 -0.1477
15917TIP3    H169166   6.367   3.466   2.704 -1.8566 -1.7991  1.7070
15917TIP3    H269167   6.345   3.458   2.554  0.9962  1.6940  0.9758
15918TIP3   OH269168   4.880   3.590  11.438  0.9238  0.5952 -0.4921
15918TIP3    H169169   4.864   3.498  11.458  0.0852  0.8953  0.2770
15918TIP3    H269170   4.945   3.588  11.367  3.3848 -0.5348  1.6067
15919TIP3   OH269171   6.532   2.823  14.737  0.1240 -0.1378  0.1608
15919TIP3    H169172   6.614   2.868  14.719  0.6635 -1.3349 -0.5416
15919TIP3    H269173   6.465   2.875  14.692  0.6467  0.2643 -0.1662
15920TIP3   OH269174   1.573   0.083  15.483  0.0117  0.8426 -0.0129
15920TIP3    H169175   1.489   0.074  15.529 -0.1442  0.4380 -0.3656
15920TIP3    H269176   1.549   0.110  15.394  0.3250  1.8912  0.2058
15921TIP3   OH269177   2.756   2.932   0.008 -0.2920  0.3471  0.2587
15921TIP3    H169178   2.671   2.974   0.026  0.7940  2.6561  0.4467
15921TIP3    H269179   2.781   2.967  -0.078 -0.3412 -1.8090 -0.6980
15922TIP3   OH269180   5.396   0.374  14.363 -0.3229  0.1632  0.6163
15922TIP3    H169181   5.406   0.285  14.328  0.8384  0.1831  0.8608
15922TIP3    H269182   5.364   0.361  14.452 -4.5735  0.1367 -0.6961
15923TIP3   OH269183   6.133   5.883   3.719 -0.5879 -0.2022  0.0704
15923TIP3    H169184   6.085   5.856   3.797 -0.5365 -0.1258  0.1286
15923TIP3    H269185   6.092   5.835   3.648 -0.5672 -0.3539  0.1587
15924TIP3   OH269186   5.931   4.759  12.281  0.1390 -0.2264  0.4920
15924TIP3    H169187   5.945   4.673  12.241 -1.5997 -0.9926  1.4056
15924TIP3    H269188   5.877   4.806  12.218  0.6125 -0.0175  0.2429
15925TIP3   OH269189   0.062   5.846  17.054 -0.3684 -0.0139  0.7459
15925TIP3    H169190   0.021   5.808  16.977  4.0662 -0.2757 -1.8526
15925TIP3    H269191   0.089   5.933  17.026  2.3963 -0.5429  1.4494
15926TIP3   OH269192   3.712   2.351   4.533  0.2825  0.0343 -0.0682
15926TIP3    H169193   3.738   2.263   4.506 -0.6196 -0.2692  0.0095
15926TIP3    H269194   3.794   2.394   4.556  1.1923  0.3706 -3.3997
15927TIP3   OH269195   1.081   2.170   5.708 -0.5055  0.0435 -0.8466
15927TIP3    H169196   1.106   2.254   5.671  1.2173 -0.1725 -0.2292
15927TIP3    H269197   1.142   2.155   5.780 -2.1833 -0.7163  0.5002
15928TIP3   OH269198   0.568   5.719  10.888 -0.3668 -0.2395  0.0833
15928TIP3    H169199   0.492   5.717  10.830 -0.6669 -0.1654  0.4684
15928TIP3    H269200   0.578   5.812  10.911 -0.2332 -0.2649  0.1310
15929TIP3   OH269201   1.582   3.290  16.307 -0.0192 -0.5463  0.4893
15929TIP3    H169202   1.643   3.220  16.287 -2.4362 -2.0758 -2.2225
15929TIP3    H269203   1.637   3.360  16.343  3.0976 -2.2206 -0.6405
15930TIP3   OH269204   2.966   0.790  13.435 -0.2381  0.2120 -0.0144
15930TIP3    H169205   2.902   0.840  13.485  0.2896 -0.0472  0.9379
15930TIP3    H269206   2.913   0.739  13.373 -0.8167  1.4819 -0.6092
15931TIP3   OH269207   5.718   4.490  16.087  0.5264 -0.3151 -0.4649
15931TIP3    H169208   5.649   4.514  16.148 -0.4228 -2.2357 -0.6821
15931TIP3    H269209   5.718   4.559  16.021  0.8270  1.2157  1.0578
15932TIP3   OH269210   2.351   2.320  13.775  0.5467  0.4249  0.2450
15932TIP3    H169211   2.439   2.283  13.775  0.6275  0.5883  1.5878
15932TIP3    H269212   2.341   2.358  13.862 -0.4641  1.3431 -0.2617
15933TIP3   OH269213   4.526   1.105  15.669  0.2115 -0.0668 -0.6012
15933TIP3    H169214   4.547   1.134  15.581  2.2077  0.0994 -0.1037
15933TIP3    H269215   4.548   1.011  15.670 -0.4817 -0.2378 -0.4634
15934TIP3   OH269216   4.712   1.700   0.094 -0.3534 -0.0851 -0.1775
15934TIP3    H169217   4.648   1.649   0.044 -0.7655  0.8772 -0.6628
15934TIP3    H269218   4.709   1.787   0.054  0.8920  0.1125  0.1303
15935TIP3   OH269219   6.398   0.444   2.594 -0.3321 -0.1798  0.6037
15935TIP3    H169220   6.487   0.428   2.563 -0.6063 -1.4791  0.4392
15935TIP3    H269221   6.402   0.532   2.633  0.9845 -0.1649  0.4881
15936TIP3   OH269222   3.860   0.340   6.219 -0.2065 -0.0206  0.2590
15936TIP3    H169223   3.954   0.355   6.215 -0.1337 -0.0435 -4.8440
15936TIP3    H269224   3.851   0.245   6.231  0.4832 -0.1870 -0.4957
15937TIP3   OH269225   1.395   1.776  12.954  0.2302 -0.7440 -0.1305
15937TIP3    H169226   1.393   1.869  12.976 -0.8538 -0.7310 -0.2476
15937TIP3    H269227   1.484   1.761  12.922  0.6988  0.0402  0.7598
15938TIP3   OH269228   3.498   3.561  12.679  0.4456 -0.0966 -0.4402
15938TIP3    H169229   3.429   3.551  12.744 -0.1683  1.5214 -0.7882
15938TIP3    H269230   3.451   3.578  12.597  1.2367 -0.1468 -0.9187
15939TIP3   OH269231   0.992   4.588  16.549 -0.6286  0.2635 -0.2563
15939TIP3    H169232   0.913   4.587  16.495 -0.9617  1.0612  0.2030
15939TIP3    H269233   1.057   4.636  16.496  0.4370 -2.6404 -1.7945
15940TIP3   OH269234   1.125   5.646   3.026 -0.1644 -0.4171 -0.8507
15940TIP3    H169235   1.037   5.683   3.037 -1.1767 -2.7460 -0.6904
15940TIP3    H269236   1.167   5.659   3.111 -1.8845 -2.9379  0.5055
15941TIP3   OH269237   4.076   5.712  15.540 -0.0081 -0.3563 -0.3883
15941TIP3    H169238   4.028   5.762  15.473  0.1845 -0.2518 -0.4500
15941TIP3    H269239   4.137   5.657  15.490  1.6542  1.2610 -0.2699
15942TIP3   OH269240   1.686   3.288  12.908  1.2384  0.7495  0.3612
15942TIP3    H169241   1.715   3.220  12.847  0.8687  0.1294  0.8614
15942TIP3    H269242   1.638   3.240  12.976 -1.0993  1.6990 -0.4904
15943TIP3   OH269243   4.869   2.898  13.371  0.5761  0.4212  0.1842
15943TIP3    H169244   4.910   2.936  13.449  0.1510  2.6512 -0.6112
15943TIP3    H269245   4.788   2.948  13.360  0.0447 -0.6532 -1.0321
15944TIP3   OH269246   0.699   0.268   1.433 -0.0619 -0.8560  0.5162
15944TIP3    H169247   0.755   0.281   1.509  1.6016 -0.3176 -0.7499
15944TIP3    H269248   0.709   0.175   1.411 -1.4634 -1.3008  1.6001
15945TIP3   OH269249   4.439   5.109   1.327  0.4382 -0.5734 -0.0321
15945TIP3    H169250   4.385   5.154   1.393 -3.0058 -2.0540 -1.5652
15945TIP3    H269251   4.505   5.174   1.303 -2.1633  2.5081  0.3003
15946TIP3   OH269252   4.219   1.054   3.518 -0.4484 -0.0776  0.1916
15946TIP3    H169253   4.295   1.064   3.576 -1.6904 -1.1357  2.1142
15946TIP3    H269254   4.224   1.128   3.458  1.9887 -0.0289  0.3594
15947TIP3   OH269255   4.663   2.398   3.177  0.8854 -0.4665  0.0110
15947TIP3    H169256   4.640   2.305   3.187 -0.4681 -0.2867 -1.1562
15947TIP3    H269257   4.693   2.406   3.087  0.7626  0.2699  0.0294
15948TIP3   OH269258   1.596   2.082   6.046  0.1892  0.4120  0.0341
15948TIP3    H169259   1.510   2.051   6.073  0.7160 -0.2502  1.0096
15948TIP3    H269260   1.639   2.106   6.128  0.3354  2.3701 -0.5586
15949TIP3   OH269261   3.728   3.239   5.122 -0.1149  0.3808 -0.8042
15949TIP3    H169262   3.641   3.230   5.083  0.3889  0.0150 -1.8501
15949TIP3    H269263   3.761   3.322   5.088 -0.1587  0.6593 -0.1811
15950TIP3   OH269264   6.061   1.828   4.070  0.1099 -0.9499 -0.7911
15950TIP3    H169265   6.050   1.922   4.076  1.2755 -0.4114 -4.7034
15950TIP3    H269266   6.005   1.801   3.998 -2.7887 -3.9532  2.1835
15951TIP3   OH269267   3.514   2.556  11.361  0.5825 -0.0384 -0.2094
15951TIP3    H169268   3.538   2.540  11.270  0.3797  0.0090 -0.2712
15951TIP3    H269269   3.505   2.651  11.368 -2.4791 -0.1686 -0.9403
15952TIP3   OH269270   1.896   1.710  11.489 -0.2456 -0.3079  0.3780
15952TIP3    H169271   1.820   1.659  11.464 -0.6583  0.8555 -0.8659
15952TIP3    H269272   1.876   1.799  11.460  2.3497 -0.2982 -1.7951
15953TIP3   OH269273   3.866   1.338   0.694  0.6418 -0.3300  0.3142
15953TIP3    H169274   3.828   1.406   0.749  0.2757 -1.3008  1.2796
15953TIP3    H269275   3.862   1.374   0.605 -0.6112  0.4318  0.6638
15954TIP3   OH269276   1.205   1.345  12.159 -0.5781  0.0400  0.0199
15954TIP3    H169277   1.197   1.437  12.183 -0.0614  0.7730 -2.2847
15954TIP3    H269278   1.211   1.346  12.063  1.7294 -2.2080  0.0271
15955TIP3   OH269279   0.461   0.181   4.431  0.0463 -0.8330 -0.1153
15955TIP3    H169280   0.507   0.258   4.463  1.2403 -1.1903 -0.8917
15955TIP3    H269281   0.512   0.107   4.463 -0.3601 -1.2658 -0.4493
15956TIP3   OH269282   1.006   3.812  15.966 -0.0265  0.4925  0.1153
15956TIP3    H169283   1.005   3.901  15.931 -0.3764  0.6496  0.5218
15956TIP3    H269284   1.083   3.808  16.023 -0.3785  0.7312  0.6069
15957TIP3   OH269285   3.243   6.491   5.202 -0.2588  0.0982  0.1592
15957TIP3    H169286   3.156   6.457   5.182 -0.3672  0.6152 -0.2600
15957TIP3    H269287   3.275   6.435   5.272 -1.0352  0.0556  0.4912
15958TIP3   OH269288   6.115   3.484  12.899 -0.2305 -0.0436  0.6375
15958TIP3    H169289   6.169   3.520  12.829 -1.3730  0.8767  0.2066
15958TIP3    H269290   6.041   3.544  12.906 -0.9076 -0.9540  1.6140
15959TIP3   OH269291   0.217   4.884  15.115  0.2149 -0.0390  0.3855
15959TIP3    H169292   0.169   4.957  15.076 -0.4873 -0.6274  0.1086
15959TIP3    H269293   0.154   4.842  15.172 -0.1206 -1.7228 -1.1242
15960TIP3   OH269294   3.841   0.261  13.911 -0.1418  0.1010  0.6070
15960TIP3    H169295   3.827   0.186  13.853  0.7025 -1.7890  2.6565
15960TIP3    H269296   3.775   0.250  13.980  0.2822  0.9949  1.1707
15961TIP3   OH269297   5.940   2.017  16.817  0.2599  0.5103  0.4025
15961TIP3    H169298   5.979   1.981  16.737 -0.7450  0.5548 -0.1342
15961TIP3    H269299   5.965   1.956  16.886 -0.8753 -0.9179 -0.3882
15962TIP3   OH269300   1.084   5.480   4.736 -0.4970 -0.2138 -0.2666
15962TIP3    H169301   1.150   5.485   4.667  0.6776  1.1837  0.8942
15962TIP3    H269302   1.132   5.497   4.817 -1.8756 -1.5961  0.9003
15963TIP3   OH269303   6.031   5.639  13.247 -0.1305  0.4148  0.1910
15963TIP3    H169304   6.116   5.602  13.270 -0.7667  0.4660  3.0060
15963TIP3    H269305   6.053   5.723  13.206  1.3079  2.1797  4.0633
15964TIP3   OH269306   1.208   0.000   2.568 -0.1742  0.1353 -0.1183
15964TIP3    H169307   1.193  -0.059   2.495 -2.2565 -0.1371  0.4663
15964TIP3    H269308   1.211   0.087   2.528 -0.9891 -0.0384 -0.5812
15965TIP3   OH269309   1.479   4.782  14.902  0.0230 -0.3847  0.0224
15965TIP3    H169310   1.449   4.759  14.990  0.1697 -2.7560 -0.4713
15965TIP3    H269311   1.398   4.799  14.853 -0.0799  0.4791  0.4751
15966TIP3   OH269312   0.771   6.483  15.803 -0.3118  0.3636  0.0278
15966TIP3    H169313   0.861   6.488  15.835 -0.6302  0.5485  0.9459
15966TIP3    H269314   0.742   6.394  15.823  0.3467 -0.4214 -2.2499
15967TIP3   OH269315   4.350   2.399   6.407 -0.6292 -0.0120  0.1513
15967TIP3    H169316   4.438   2.377   6.435 -0.6897 -0.6737 -0.1416
15967TIP3    H269317   4.296   2.325   6.438 -0.9563  0.0412 -0.2794
15968TIP3   OH269318   6.623   5.693  15.427 -0.0101 -0.0700 -0.2548
15968TIP3    H169319   6.700   5.705  15.482 -0.3659 -0.1333  0.2736
15968TIP3    H269320   6.656   5.689  15.338  0.5646  0.2066 -0.0557
15969TIP3   OH269321   4.807   0.668   5.794 -0.1667  0.2479 -0.2409
15969TIP3    H169322   4.787   0.603   5.725 -0.9994  0.5380 -0.2916
15969TIP3    H269323   4.765   0.748   5.763 -1.7883  0.0350  1.2586
15970TIP3   OH269324   4.146   6.495  15.513 -0.0716 -0.2847  0.7432
15970TIP3    H169325   4.156   6.423  15.452 -0.1487 -0.2394  0.6781
15970TIP3    H269326   4.170   6.458  15.598  2.3343  0.2262  0.3765
15971TIP3   OH269327   0.380   5.693   6.279  0.0496  0.2009 -0.1020
15971TIP3    H169328   0.397   5.659   6.367  0.8689 -2.5823 -1.2272
15971TIP3    H269329   0.308   5.640   6.246 -0.4038  1.3638 -1.0338
15972TIP3   OH269330   4.487   1.271  16.727 -0.5085 -0.3358 -0.7691
15972TIP3    H169331   4.521   1.203  16.668 -0.1169  0.2444 -1.2217
15972TIP3    H269332   4.482   1.349  16.673 -2.9111 -0.4488 -0.8147
15973TIP3   OH269333   1.327   4.195   2.380  0.3766 -0.1145  0.2463
15973TIP3    H169334   1.342   4.204   2.286 -0.0578  0.2390  0.2092
15973TIP3    H269335   1.371   4.113   2.403  0.2495 -0.3463 -0.3147
15974TIP3   OH269336   0.836   1.706   1.915  0.2452 -0.2871  0.0934
15974TIP3    H169337   0.796   1.640   1.858  1.1634  0.3352 -1.3065
15974TIP3    H269338   0.817   1.789   1.873  1.0224  0.1800  0.6387
15975TIP3   OH269339   0.090   4.902  10.855  0.2253 -0.0617 -0.0399
15975TIP3    H169340   0.174   4.859  10.841  0.9048  1.1419  0.2227
15975TIP3    H269341   0.035   4.870  10.784  0.2223 -2.4721  0.9356
15976TIP3   OH269342   1.369   0.915  13.679  0.0348 -0.2911  0.5154
15976TIP3    H169343   1.306   0.946  13.744  0.9869 -1.5833  2.1551
15976TIP3    H269344   1.328   0.836  13.642  0.7082 -1.2329  1.7095
15977TIP3   OH269345   1.569   5.430  12.436  0.4893 -0.1588  0.1754
15977TIP3    H169346   1.488   5.404  12.393  0.9076 -1.0006 -0.1284
15977TIP3    H269347   1.547   5.435  12.529  0.3258 -1.4307  0.2246
15978TIP3   OH269348   3.295   0.716   1.498  0.2643  0.1875 -0.2673
15978TIP3    H169349   3.301   0.773   1.575  2.0637 -2.4502  1.7613
15978TIP3    H269350   3.226   0.654   1.521  1.4463 -1.1923 -0.2616
15979TIP3   OH269351   0.371   0.347  14.203 -0.2025  0.5585 -0.3317
15979TIP3    H169352   0.292   0.329  14.151 -0.9886 -0.5242  1.1382
15979TIP3    H269353   0.422   0.266  14.198 -1.3677 -0.4595  2.3009
15980TIP3   OH269354   3.373   2.144  17.051  0.6888  0.1178 -0.1952
15980TIP3    H169355   3.346   2.229  17.086 -0.9179  0.3578 -1.8677
15980TIP3    H269356   3.367   2.085  17.126  0.3133  1.1740  0.6416
15981TIP3   OH269357   6.750   1.700   1.570  0.8818  0.0903  0.2451
15981TIP3    H169358   6.807   1.773   1.547  1.7783 -0.6351  0.1137
15981TIP3    H269359   6.676   1.707   1.510  1.3246  0.4485 -0.2664
15982TIP3   OH269360   1.708   4.476   5.884  0.2742  0.3473 -0.4596
15982TIP3    H169361   1.652   4.406   5.917  0.1531  0.5725 -0.1745
15982TIP3    H269362   1.770   4.492   5.955  0.8370 -0.0483 -0.8592
15983TIP3   OH269363   2.933   3.568   3.220  0.2426 -1.0483 -0.1229
15983TIP3    H169364   2.922   3.474   3.235 -0.1839 -1.0323 -0.3557
15983TIP3    H269365   2.988   3.574   3.142  0.7342 -1.1079  0.2134
15984TIP3   OH269366   5.367   2.992  15.884 -0.1871  0.7098  0.2897
15984TIP3    H169367   5.299   2.959  15.942  1.3944 -5.0302 -0.4812
15984TIP3    H269368   5.449   2.973  15.929  1.0572  2.3146 -1.1294
15985TIP3   OH269369   4.260   1.298   1.225  0.3282 -0.9639  0.4077
15985TIP3    H169370   4.191   1.233   1.211 -0.4218  0.1937 -1.7952
15985TIP3    H269371   4.326   1.277   1.158 -0.5781  1.2923 -1.3047
15986TIP3   OH269372   2.011   5.221  14.673 -0.4269  0.2663  0.0513
15986TIP3    H169373   2.004   5.315  14.688 -1.8812 -0.0265  1.4747
15986TIP3    H269374   1.955   5.182  14.741 -1.0711 -1.5612 -1.4609
15987TIP3   OH269375   3.483   2.042  15.195 -0.5438  0.4686 -0.1042
15987TIP3    H169376   3.548   2.020  15.128 -1.8604 -1.4832 -0.8452
15987TIP3    H269377   3.434   2.116  15.158  0.5496  1.2749  0.0104
15988TIP3   OH269378   4.915   3.315  12.544  0.1067 -0.1949 -0.0178
15988TIP3    H169379   4.974   3.362  12.485 -0.2683  0.3966  0.0693
15988TIP3    H269380   4.866   3.384  12.589 -0.6338 -0.6714 -0.0718
15989TIP3   OH269381   1.407   4.144   3.458  0.2593 -0.8247  0.1922
15989TIP3    H169382   1.400   4.050   3.446  0.0268 -0.6592 -1.2014
15989TIP3    H269383   1.500   4.163   3.440  0.3196 -0.7965  0.5334
15990TIP3   OH269384   3.094   4.143  14.929  0.4075 -0.0589  0.1628
15990TIP3    H169385   3.072   4.230  14.962  0.3745  0.7451 -1.8570
15990TIP3    H269386   3.011   4.108  14.894  1.0487  0.5629 -2.1396
15991TIP3   OH269387   3.228   5.949   4.803  0.0483  0.5534 -0.3389
15991TIP3    H169388   3.167   6.012   4.841  0.2272  1.6974 -1.8737
15991TIP3    H269389   3.221   5.872   4.860 -1.2285  1.4286  0.7515
15992TIP3   OH269390   1.120   1.032  14.366 -0.6438  0.3892  0.1181
15992TIP3    H169391   1.030   1.065  14.360  0.0866  2.2633 -1.4390
15992TIP3    H269392   1.132   0.979  14.287 -0.1456  0.8410 -0.1197
15993TIP3   OH269393   6.155   4.567   2.902 -0.5763 -0.0044 -0.2812
15993TIP3    H169394   6.128   4.493   2.956 -0.7539 -0.0486 -0.4294
15993TIP3    H269395   6.223   4.610   2.954  0.2617 -0.8568 -0.6516
15994TIP3   OH269396   1.989   3.868  14.895  0.0719  0.0581 -0.2566
15994TIP3    H169397   1.938   3.948  14.910  1.0018  0.7264 -0.6098
15994TIP3    H269398   1.925   3.806  14.860 -0.8269  0.3857  0.7336
15995TIP3   OH269399   5.900   0.497  15.089 -0.0113 -0.5374 -0.5358
15995TIP3    H169400   5.931   0.570  15.036 -1.8620  0.9094  0.2586
15995TIP3    H269401   5.822   0.464  15.043 -0.5217 -0.4961  0.2610
15996TIP3   OH269402   3.127   2.012   0.290  0.3051 -0.4966  0.1925
15996TIP3    H169403   3.110   2.106   0.284  0.1452 -0.5709 -0.5615
15996TIP3    H269404   3.043   1.971   0.268  0.2680 -0.8198  0.8914
15997TIP3   OH269405   5.531   3.840  11.367  0.8084 -0.0108  0.1663
15997TIP3    H169406   5.500   3.870  11.453  0.9866  0.2190  0.1521
15997TIP3    H269407   5.503   3.908  11.306  0.5872 -0.2275  0.0255
15998TIP3   OH269408   0.749   0.542   2.891 -0.0646  0.1941 -0.2661
15998TIP3    H169409   0.755   0.553   2.986 -2.0321  1.8002 -0.2641
15998TIP3    H269410   0.719   0.452   2.879 -0.2271  0.1190  0.6446
15999TIP3   OH269411   4.919   1.259  14.013  0.1951 -0.0838 -0.2277
15999TIP3    H169412   4.975   1.242  13.937 -0.3303  0.3974 -0.7267
15999TIP3    H269413   4.830   1.263  13.978 -0.3002 -1.9168  0.7149
16000TIP3   OH269414   1.711   1.288  13.815  0.2658  0.0817 -0.3719
16000TIP3    H169415   1.786   1.318  13.764 -1.5516  0.0747 -3.2899
16000TIP3    H269416   1.739   1.205  13.853  1.5877 -0.2393 -1.9287
16001TIP3   OH269417   1.222   2.539   5.276  0.2229 -0.1551  0.3777
16001TIP3    H169418   1.268   2.456   5.269 -0.2774 -0.3103 -2.1788
16001TIP3    H269419   1.152   2.534   5.210 -2.3504  0.7870  2.8483
16002TIP3   OH269420   5.064   6.273   3.735 -0.4143 -0.0916 -0.2742
16002TIP3    H169421   5.019   6.352   3.706 -1.2514 -0.0523  1.0419
16002TIP3    H269422   5.058   6.275   3.830 -0.7647 -1.9196 -0.2146
16003TIP3   OH269423   4.190   1.138  11.826 -0.2168  0.1993  0.7372
16003TIP3    H169424   4.282   1.157  11.808  0.7178 -0.5116  4.0109
16003TIP3    H269425   4.151   1.223  11.846  0.3481  0.2660  1.5958
16004TIP3   OH269426   5.202   4.574  11.964  0.3098 -0.6990  0.1923
16004TIP3    H169427   5.179   4.634  11.893  1.9659 -1.9011 -1.4852
16004TIP3    H269428   5.119   4.547  12.002 -0.6082  0.2909 -1.0493
16005TIP3   OH269429   1.040   0.066  15.904 -0.0400 -0.7471 -0.1764
16005TIP3    H169430   0.992   0.008  15.844 -0.2251  0.3566 -1.1451
16005TIP3    H269431   1.067   0.139  15.849  1.5510 -0.6615  0.6757
16006TIP3   OH269432   2.837   0.281   3.710  0.4390 -0.0085  0.0966
16006TIP3    H169433   2.872   0.304   3.624  1.3505 -2.2447 -0.1911
16006TIP3    H269434   2.831   0.186   3.709 -2.1275  0.0376  1.5476
16007TIP3   OH269435   4.058   6.736  14.644  0.3644 -0.1925  0.3309
16007TIP3    H169436   3.979   6.717  14.693  1.7377 -1.0247  2.3497
16007TIP3    H269437   4.079   6.654  14.599 -0.8859  0.5639 -1.7757
16008TIP3   OH269438   2.117   2.261   2.189 -0.3947 -0.1883  0.0906
16008TIP3    H169439   2.152   2.199   2.253 -1.5236 -0.1898  0.7184
16008TIP3    H269440   2.148   2.346   2.219  1.1397 -0.4076 -0.7605
16009TIP3   OH269441   4.801   5.847   2.118 -0.5847  0.3657  0.0568
16009TIP3    H169442   4.827   5.755   2.119 -0.3905  0.4089 -0.4853
16009TIP3    H269443   4.855   5.886   2.049  2.7346  1.8863  3.1492
16010TIP3   OH269444   4.340   1.309  14.521 -0.0243  0.1039  0.3540
16010TIP3    H169445   4.304   1.283  14.436 -1.5994  0.1596  0.9616
16010TIP3    H269446   4.418   1.359  14.500  0.3064 -0.9069 -1.0172
16011TIP3   OH269447   0.933   1.259  15.059  0.1601 -0.1157  0.3211
16011TIP3    H169448   0.954   1.335  15.113 -0.6907  0.3227  0.0532
16011TIP3    H269449   0.857   1.287  15.007  0.3835 -0.8443 -0.4169
16012TIP3   OH269450   5.144   1.339   3.639 -0.4211  0.1272 -0.1736
16012TIP3    H169451   5.192   1.400   3.695  1.4377 -0.2390 -1.2925
16012TIP3    H269452   5.144   1.256   3.687 -0.9892  0.4130  0.3409
16013TIP3   OH269453   2.017   2.741  11.149  0.3131 -0.2037 -0.2095
16013TIP3    H169454   2.070   2.796  11.091 -0.5578  0.1759 -0.6661
16013TIP3    H269455   1.928   2.747  11.114  0.0456 -1.2417  0.2336
16014TIP3   OH269456   5.338   1.138   5.199 -0.5294 -0.4188  0.1780
16014TIP3    H169457   5.396   1.073   5.237  0.3859  0.6071  0.5539
16014TIP3    H269458   5.344   1.214   5.256  0.1040  0.7989 -1.4277
16015TIP3   OH269459   1.135   3.347  11.107 -0.5254 -0.1046 -0.3329
16015TIP3    H169460   1.190   3.269  11.098 -1.5405 -0.9180  0.1819
16015TIP3    H269461   1.183   3.416  11.063 -0.3016 -1.3802 -2.2259
16016TIP3   OH269462   2.363   1.225   4.667 -0.3223  0.1447 -0.0673
16016TIP3    H169463   2.450   1.188   4.678 -1.2729 -1.6231  2.4963
16016TIP3    H269464   2.371   1.315   4.700  0.3860 -0.2481  0.8760
16017TIP3   OH269465   6.723   3.386   2.723 -0.2756 -0.1384  0.1389
16017TIP3    H169466   6.779   3.330   2.670 -0.8433 -1.2350  0.6686
16017TIP3    H269467   6.726   3.471   2.680  0.6781 -0.5481 -0.6273
16018TIP3   OH269468   5.100   3.996  13.631  0.3814  0.1976  0.0534
16018TIP3    H169469   5.175   4.004  13.573 -0.6062  0.4675 -1.2330
16018TIP3    H269470   5.124   4.046  13.709  1.9384 -0.5971  0.1159
16019TIP3   OH269471   3.415   0.683  15.724 -0.1520  0.3166 -0.2119
16019TIP3    H169472   3.366   0.763  15.704 -1.6256 -0.5107 -0.0714
16019TIP3    H269473   3.348   0.616  15.735  1.1145 -1.7459 -3.6599
16020TIP3   OH269474   5.915   4.782  12.651  0.3804  0.0595  0.1367
16020TIP3    H169475   5.897   4.786  12.745 -0.6884  1.5307 -0.1041
16020TIP3    H269476   5.931   4.689  12.634  0.9756 -0.1835  1.8266
16021TIP3   OH269477   4.899   4.671  15.243 -0.0421 -0.4602  0.1996
16021TIP3    H169478   4.834   4.708  15.182 -1.2255 -1.2064  0.9707
16021TIP3    H269479   4.960   4.623  15.186 -1.7739 -2.1091 -0.3737
16022TIP3   OH269480   0.024   5.339  14.391  0.0524  0.0932 -0.0785
16022TIP3    H169481  -0.064   5.305  14.378  0.6090 -1.1600 -0.7485
16022TIP3    H269482   0.077   5.262  14.412  0.9665  0.8383  0.4268
16023TIP3   OH269483   4.590   3.892   4.291  0.0956  0.3192 -0.0292
16023TIP3    H169484   4.607   3.963   4.229  1.0889  0.9191  0.9151
16023TIP3    H269485   4.631   3.815   4.250 -0.6444  0.3539 -0.8658
16024TIP3   OH269486   1.739   0.060   2.924 -0.2110 -0.0030  0.2697
16024TIP3    H169487   1.828   0.034   2.901 -0.1188  0.4121  0.1362
16024TIP3    H269488   1.748   0.151   2.953 -0.7586  0.4623 -0.9373
16025TIP3   OH269489   6.413   5.247   4.246  0.3246 -0.2972 -0.6940
16025TIP3    H169490   6.345   5.180   4.256  0.7093 -0.5087  0.5422
16025TIP3    H269491   6.490   5.210   4.287  0.6771  0.7137 -0.4127
16026TIP3   OH269492   3.308   3.758  11.569 -0.0148  0.3045 -0.4925
16026TIP3    H169493   3.215   3.775  11.553 -0.1016  1.1585  0.7496
16026TIP3    H269494   3.317   3.663  11.567 -0.9420  0.2154 -0.4551
16027TIP3   OH269495   3.724   2.621  14.264  0.3697 -0.0698 -0.1750
16027TIP3    H169496   3.740   2.627  14.358  1.6523  1.2984 -0.4285
16027TIP3    H269497   3.745   2.708  14.230 -1.8048  0.0157 -1.5194
16028TIP3   OH269498   1.140   0.493   1.081  0.2524 -0.0281 -0.6394
16028TIP3    H169499   1.155   0.409   1.035 -2.0000  0.3448 -2.2424
16028TIP3    H269500   1.119   0.467   1.171  3.0363 -0.9102 -0.1579
16029TIP3   OH269501   4.883   6.557   0.638 -0.3195 -0.0722  0.0072
16029TIP3    H169502   4.819   6.514   0.582 -0.6327  0.0078  0.2932
16029TIP3    H269503   4.843   6.642   0.658 -0.2643 -0.1411  0.4310
16030TIP3   OH269504   4.366   4.074   0.567 -0.1608  0.1396 -0.1650
16030TIP3    H169505   4.387   4.034   0.482  0.8719  0.2828  0.0099
16030TIP3    H269506   4.408   4.017   0.632  0.4278  0.9009  0.1458
16031TIP3   OH269507   1.142   1.053  13.830  0.5436 -0.3121 -0.0852
16031TIP3    H169508   1.067   1.033  13.773 -0.1690  0.6103  0.5121
16031TIP3    H269509   1.141   1.148  13.838  1.2940 -0.3594  0.6021
16032TIP3   OH269510   6.175   5.145   6.655 -0.5352  0.0354 -0.8313
16032TIP3    H169511   6.266   5.173   6.667 -0.2201 -1.0222 -0.6743
16032TIP3    H269512   6.124   5.204   6.711  0.1478  0.0474 -0.2129
16033TIP3   OH269513   2.214   3.218  13.666  0.3158 -0.4253 -0.2904
16033TIP3    H169514   2.266   3.286  13.708  1.9205 -1.8714  0.1306
16033TIP3    H269515   2.237   3.225  13.573 -2.3399  1.9760 -0.9437
16034TIP3   OH269516   0.739   4.290   2.166 -0.2748 -0.2707 -0.4023
16034TIP3    H169517   0.653   4.317   2.199 -0.2784  0.0262 -0.6460
16034TIP3    H269518   0.764   4.360   2.106  1.1979  0.8846  1.4146
16035TIP3   OH269519   5.038   5.172   3.320 -0.1909 -0.7096  0.4098
16035TIP3    H169520   4.989   5.116   3.261  0.1511 -0.4506 -0.1381
16035TIP3    H269521   4.991   5.256   3.318  0.1299 -0.5328  0.0658
16036TIP3   OH269522   2.156   3.437   3.951 -0.0728  0.2354  0.3461
16036TIP3    H169523   2.138   3.433   3.857  0.0852 -0.5483  0.3395
16036TIP3    H269524   2.225   3.503   3.959  1.3311 -1.0685 -0.3359
16037TIP3   OH269525   2.104   2.469   3.741 -0.1034 -0.0546 -0.3313
16037TIP3    H169526   2.052   2.531   3.690 -0.2078 -0.2333 -0.4457
16037TIP3    H269527   2.193   2.503   3.738 -0.6102  1.7901  2.1627
16038TIP3   OH269528   3.049   4.076  14.276  0.4242 -0.3523  0.0772
16038TIP3    H169529   3.102   4.103  14.350 -0.5048 -0.3936  0.7798
16038TIP3    H269530   2.983   4.017  14.313  0.2906 -0.8257 -0.8704
16039TIP3   OH269531   2.682   3.731   0.343  1.2079 -0.3073 -0.4057
16039TIP3    H169532   2.662   3.773   0.427  0.0636  1.7264 -1.6170
16039TIP3    H269533   2.721   3.647   0.367 -1.0823 -0.7916  2.1796
16040TIP3   OH269534   4.513   1.231   4.254 -0.1045  0.3856 -1.0803
16040TIP3    H169535   4.419   1.212   4.245 -0.5220  2.0106 -0.3946
16040TIP3    H269536   4.541   1.174   4.326 -1.0329  1.3137  0.0562
16041TIP3   OH269537   5.185   3.746   3.078  0.0703  0.6807 -0.3787
16041TIP3    H169538   5.180   3.842   3.083 -1.8211  0.5506  1.8077
16041TIP3    H269539   5.100   3.720   3.042 -0.0196 -0.2261  0.4653
16042TIP3   OH269540   3.877   0.106   4.406  0.4185 -0.6542 -0.4386
16042TIP3    H169541   3.936   0.043   4.447  0.2977 -2.3342 -2.6256
16042TIP3    H269542   3.932   0.156   4.347  0.3131  0.5611  0.4727
16043TIP3   OH269543   3.129   3.993   5.864  0.1595  0.1697  0.7444
16043TIP3    H169544   3.118   3.898   5.860  0.4816  0.1697 -1.7703
16043TIP3    H269545   3.043   4.026   5.890 -0.5530 -0.7336 -0.3684
16044TIP3   OH269546   3.763   6.311  12.243  0.4230  0.1110 -0.2231
16044TIP3    H169547   3.726   6.248  12.306  0.8754  0.1030  0.0424
16044TIP3    H269548   3.857   6.304  12.256  0.5332 -0.0331 -1.0515
16045TIP3   OH269549   5.032   3.213   5.380 -0.3853  0.2908 -0.1041
16045TIP3    H169550   4.983   3.140   5.344  0.2288 -0.7784  1.1453
16045TIP3    H269551   5.122   3.201   5.348 -0.9531  2.8357 -3.2926
16046TIP3   OH269552   5.147   5.429  14.116 -0.3413 -0.4700 -0.2639
16046TIP3    H169553   5.060   5.440  14.153 -0.6478 -0.0102 -1.1001
16046TIP3    H269554   5.200   5.498  14.157 -0.8189  0.4080 -1.0867
16047TIP3   OH269555   2.063   2.445  13.132  0.3245  0.2707  0.2270
16047TIP3    H169556   2.036   2.412  13.046 -0.5839 -0.9105  0.9449
16047TIP3    H269557   2.030   2.381  13.194 -0.2448  1.8035  1.5832
16048TIP3   OH269558   1.037   0.233   1.144 -0.0502 -0.5812 -0.0128
16048TIP3    H169559   1.026   0.275   1.229  0.5188 -0.1214 -0.1558
16048TIP3    H269560   1.127   0.200   1.145  0.1745 -0.0301 -0.6554
16049TIP3   OH269561   4.218   0.767  14.803  0.1952 -0.5045 -0.2688
16049TIP3    H169562   4.281   0.758  14.874  1.2705  0.4077 -1.0810
16049TIP3    H269563   4.225   0.685  14.754 -0.6347 -1.1878  0.7077
16050TIP3   OH269564   3.397   2.681   4.901 -0.1770 -0.7580  0.2604
16050TIP3    H169565   3.345   2.744   4.952 -0.8085 -1.1733  0.1403
16050TIP3    H269566   3.467   2.654   4.961  0.8577  0.9618 -0.0858
16051TIP3   OH269567   2.510   4.116   2.251 -0.1498  0.1261 -0.4173
16051TIP3    H169568   2.510   4.021   2.264 -0.2323 -0.3389 -3.1106
16051TIP3    H269569   2.603   4.138   2.240 -0.2275  0.1051 -1.1552
16052TIP3   OH269570   4.804   1.303  14.326  0.5303  0.1527 -0.3636
16052TIP3    H169571   4.812   1.217  14.284 -0.4093  1.3038 -3.2006
16052TIP3    H269572   4.722   1.339  14.290  0.3742  1.8463  1.5218
16053TIP3   OH269573   6.386   3.795   3.133  0.1496 -0.0801  0.1813
16053TIP3    H169574   6.319   3.736   3.099 -0.7583  0.7353  0.5045
16053TIP3    H269575   6.354   3.883   3.112  0.1136  0.4091  2.1038
16054TIP3   OH269576   4.684   6.072   0.161 -0.3272 -0.3341  0.1568
16054TIP3    H169577   4.672   5.978   0.147 -2.2839 -0.1279  0.1000
16054TIP3    H269578   4.772   6.080   0.196  0.0168 -2.1523 -0.1732
16055TIP3   OH269579   4.392   5.993   4.106  0.6696  0.1528 -0.0878
16055TIP3    H169580   4.361   6.043   4.030 -0.3085 -0.9802 -0.4674
16055TIP3    H269581   4.411   5.906   4.071 -2.7417 -1.3543  1.4081
16056TIP3   OH269582   2.452   3.607   0.812  0.4254  0.4225 -0.5053
16056TIP3    H169583   2.357   3.595   0.825  0.4500  0.7788  0.0454
16056TIP3    H269584   2.472   3.556   0.734 -0.4367  1.2880 -1.3202
16057TIP3   OH269585   6.606   1.407  11.237 -0.2459 -0.3629 -0.4762
16057TIP3    H169586   6.621   1.466  11.310  0.7343 -1.5348  0.2992
16057TIP3    H269587   6.611   1.463  11.159  2.2489  0.3411  0.1236
16058TIP3   OH269588   3.607   6.086   5.136 -0.1898  0.6045 -0.2840
16058TIP3    H169589   3.518   6.087   5.103 -0.1100  0.4526 -0.5041
16058TIP3    H269590   3.654   6.147   5.080 -0.1463  0.6527 -0.1950
16059TIP3   OH269591   0.701   5.163  12.935 -0.1777 -0.2483  0.0476
16059TIP3    H169592   0.714   5.221  13.010  0.8323  0.4752 -0.6689
16059TIP3    H269593   0.766   5.094  12.945 -0.9677 -0.9376  0.5657
16060TIP3   OH269594   0.102   4.413   2.112 -0.2177 -0.5942 -0.7844
16060TIP3    H169595   0.138   4.410   2.200 -2.3367 -0.5077  0.1495
16060TIP3    H269596   0.178   4.416   2.054  1.2148 -0.7501  1.0267
16061TIP3   OH269597   0.772   5.911  12.253 -0.3350 -0.5764  0.1691
16061TIP3    H169598   0.741   5.821  12.244 -2.5428  0.1896 -0.3617
16061TIP3    H269599   0.825   5.927  12.175 -1.2327 -0.9236 -0.5176
16062TIP3   OH269600   4.187   6.141  13.253 -0.2324  0.3170 -0.3177
16062TIP3    H169601   4.186   6.236  13.250  0.7771  0.4846  2.2244
16062TIP3    H269602   4.248   6.115  13.185  0.0336  1.5222 -0.5531
16063TIP3   OH269603   1.929   5.818   4.157  0.1194  0.2393  0.4921
16063TIP3    H169604   1.996   5.878   4.124  0.4586 -0.2947  0.1993
16063TIP3    H269605   1.852   5.873   4.170  0.8744  1.0735  1.7466
16064TIP3   OH269606   3.339   2.860  16.846  0.2007  0.2102 -0.4574
16064TIP3    H169607   3.343   2.837  16.939  0.9753 -0.6828 -0.6939
16064TIP3    H269608   3.386   2.943  16.840 -0.8728  0.8794  0.1135
16065TIP3   OH269609   6.513   1.438  15.353 -0.4734 -0.2989  0.4445
16065TIP3    H169610   6.534   1.531  15.353 -0.5663 -0.2786  0.5610
16065TIP3    H269611   6.422   1.433  15.383 -0.6434 -0.3855 -0.0635
16066TIP3   OH269612   6.489   3.488   4.362  0.5407  0.1519  0.2310
16066TIP3    H169613   6.448   3.429   4.425 -0.4866  1.0020  0.3940
16066TIP3    H269614   6.418   3.511   4.301  0.8324  1.4278  0.3345
16067TIP3   OH269615   4.277   1.182   5.203 -0.3511 -0.2275 -0.1080
16067TIP3    H169616   4.360   1.153   5.165 -0.6676 -0.1450 -0.8604
16067TIP3    H269617   4.253   1.112   5.264  0.6694  0.1133  0.7329
16068TIP3   OH269618   3.752   6.527  11.600 -0.2474  0.5356  0.4903
16068TIP3    H169619   3.823   6.590  11.604 -0.3099  0.6036  0.5312
16068TIP3    H269620   3.714   6.527  11.688 -0.4133  0.6326  0.4195
16069TIP3   OH269621   1.962   5.200   0.568  0.4825 -0.0677  0.0511
16069TIP3    H169622   1.996   5.288   0.584 -2.9233  1.5632 -0.8141
16069TIP3    H269623   1.872   5.202   0.599 -0.5682 -2.3973 -2.4041
16070TIP3   OH269624   6.696   3.093  15.776  0.3913  0.4220 -0.1891
16070TIP3    H169625   6.737   3.179  15.770  2.5657 -0.3447  1.9127
16070TIP3    H269626   6.634   3.102  15.849  0.6944  0.1833  0.0975
16071TIP3   OH269627   0.441   0.535   2.264 -0.0733  0.1109 -0.1042
16071TIP3    H169628   0.520   0.586   2.283 -0.1047  0.4421 -0.8252
16071TIP3    H269629   0.371   0.584   2.307  0.0274  0.1379  0.0328
16072TIP3   OH269630   1.456   5.576  15.668 -0.4294  0.3922  0.2840
16072TIP3    H169631   1.465   5.511  15.738 -1.4821 -0.1350 -0.0405
16072TIP3    H269632   1.540   5.576  15.623 -0.6303 -1.3099 -0.1662
16073TIP3   OH269633   6.036   4.505  13.077  0.0753 -0.1226 -0.1576
16073TIP3    H169634   5.963   4.555  13.041  1.0905  0.9618 -0.7722
16073TIP3    H269635   6.073   4.561  13.145  0.1337 -0.8094  0.3904
16074TIP3   OH269636   2.760   5.236  14.366  0.2325 -0.1585  0.2239
16074TIP3    H169637   2.715   5.155  14.390  0.7872 -0.7022 -0.5389
16074TIP3    H269638   2.698   5.282  14.310 -0.0965 -0.0329  0.6843
16075TIP3   OH269639   6.266   6.295   4.976  0.1514  0.5627 -0.0069
16075TIP3    H169640   6.347   6.330   5.012  0.3624 -0.8660  1.0077
16075TIP3    H269641   6.224   6.252   5.050 -1.2632  0.7806 -0.6546
16076TIP3   OH269642   5.283   5.341   3.889  0.2756  0.2506  0.1839
16076TIP3    H169643   5.229   5.303   3.959 -0.7919 -1.5149 -1.4938
16076TIP3    H269644   5.280   5.436   3.905 -0.8927 -0.0260  1.8549
16077TIP3   OH269645   3.377   5.535  13.169  0.0284  0.1053  0.8538
16077TIP3    H169646   3.442   5.589  13.214  0.2105  1.3976 -0.8481
16077TIP3    H269647   3.299   5.589  13.167  0.2855  0.4571 -1.0982
16078TIP3   OH269648   5.801   0.102   3.977 -0.1896 -0.3793  0.0232
16078TIP3    H169649   5.741   0.096   4.051  0.2363 -2.0692  0.2731
16078TIP3    H269650   5.761   0.046   3.909 -0.3954  0.8630 -0.9150
16079TIP3   OH269651   6.140   4.055   1.707 -0.2141  0.4853  0.0502
16079TIP3    H169652   6.074   4.116   1.742 -1.8892  0.0962 -2.2089
16079TIP3    H269653   6.123   4.053   1.613  0.3962 -2.7271 -0.0976
16080TIP3   OH269654   2.726   3.531  11.685  0.2245 -0.1829 -0.5685
16080TIP3    H169655   2.787   3.586  11.734  2.6922 -1.3481 -2.1338
16080TIP3    H269656   2.696   3.587  11.613  0.3884  0.0384 -0.4674
16081TIP3   OH269657   3.826   2.077  15.432 -0.0634 -0.4065  0.4020
16081TIP3    H169658   3.825   2.016  15.359  1.5803 -0.6763  0.5673
16081TIP3    H269659   3.884   2.037  15.497  1.0280  1.2695  0.5425
16082TIP3   OH269660   2.652   3.581  13.600  0.3708  0.0569 -0.7067
16082TIP3    H169661   2.652   3.674  13.620 -0.6492 -0.2337  0.8350
16082TIP3    H269662   2.634   3.538  13.684 -0.8361 -1.4369 -1.6558
16083TIP3   OH269663   6.738   3.794  11.343 -0.2665  0.2488  0.5017
16083TIP3    H169664   6.827   3.811  11.372  0.3117 -1.4356 -0.1288
16083TIP3    H269665   6.691   3.769  11.423  0.1339  0.0153  0.6664
16084TIP3   OH269666   2.916   5.517  13.051 -0.3364 -0.0077 -0.3624
16084TIP3    H169667   2.935   5.607  13.026 -0.4663  0.1429  0.0879
16084TIP3    H269668   2.906   5.519  13.146  0.7329 -0.6825 -0.2099
16085TIP3   OH269669   3.059   4.975  16.952  0.0219  0.3573 -0.4485
16085TIP3    H169670   3.153   4.971  16.939  0.0143 -0.2201 -0.3312
16085TIP3    H269671   3.048   5.036  17.025  0.2344  1.2208 -1.1179
16086TIP3   OH269672   4.693   0.363  16.931  0.5421  0.1665  0.0949
16086TIP3    H169673   4.627   0.306  16.891 -0.2704  0.6166  0.7432
16086TIP3    H269674   4.776   0.320  16.914  0.0297 -0.6906 -0.2944
16087TIP3   OH269675   2.415   2.810   0.280 -0.2319 -0.1211 -0.0572
16087TIP3    H169676   2.495   2.760   0.266  0.3930  0.5960  0.8801
16087TIP3    H269677   2.416   2.876   0.211  0.1964  0.1519  0.2122
16088TIP3   OH269678   2.508   2.557   1.528 -0.2724 -0.4930 -0.0216
16088TIP3    H169679   2.582   2.613   1.550 -0.1110 -0.6611 -0.1355
16088TIP3    H269680   2.542   2.497   1.463 -0.8912  0.3596 -1.1719
16089TIP3   OH269681   2.013   1.069  13.641  0.0242 -0.1647 -0.1755
16089TIP3    H169682   2.051   1.116  13.566 -1.7819  0.9124 -0.4655
16089TIP3    H269683   2.046   1.115  13.718 -1.1732  1.1909 -0.4403
16090TIP3   OH269684   2.973   1.660  10.578 -0.8860 -0.0955 -0.3568
16090TIP3    H169685   3.005   1.690  10.663  2.4364 -3.1589 -0.2749
16090TIP3    H269686   2.971   1.739  10.524  0.7109  1.3630  1.5574
16091TIP3   OH269687   6.730   5.421   0.981  0.5752  0.8218  0.0379
16091TIP3    H169688   6.744   5.455   0.892  0.0131 -0.1287 -0.4275
16091TIP3    H269689   6.644   5.453   1.006  0.9907  1.6046  0.4956
16092TIP3   OH269690   3.475   1.836   3.426 -0.6582 -0.0566 -0.3014
16092TIP3    H169691   3.481   1.743   3.444  1.7326  0.3816  1.7059
16092TIP3    H269692   3.498   1.845   3.334 -1.2335 -1.4370 -0.6045
16093TIP3   OH269693   5.398   1.923   5.422  0.1349  0.3595  0.2215
16093TIP3    H169694   5.420   1.977   5.346  1.9778 -0.1072  0.3649
16093TIP3    H269695   5.358   1.984   5.484  1.3181  1.3874  0.0170
16094TIP3   OH269696   4.465   5.755  13.297  0.4159  0.1599 -0.0798
16094TIP3    H169697   4.409   5.779  13.371  0.4104  1.1171 -0.3830
16094TIP3    H269698   4.426   5.674  13.262  0.3267 -0.2102  0.8547
16095TIP3   OH269699   1.583   0.674   0.477  0.2401 -0.0386 -0.5954
16095TIP3    H169700   1.488   0.680   0.467  0.2142 -0.1638 -0.4077
16095TIP3    H269701   1.597   0.663   0.570  0.4977  1.2846 -0.4548
16096TIP3   OH269702   0.175   5.015   4.830  0.3554  0.0145  0.0770
16096TIP3    H169703   0.213   4.934   4.796 -2.8225 -1.4433 -0.3685
16096TIP3    H269704   0.104   4.986   4.888 -1.0649  2.4382 -0.2986
16097TIP3   OH269705   1.332   2.090  14.260 -0.0138 -0.2460 -0.0931
16097TIP3    H169706   1.318   2.179  14.230 -0.2987 -0.4485 -0.5760
16097TIP3    H269707   1.368   2.044  14.184  1.9002 -0.1071  0.6665
16098TIP3   OH269708   2.553   0.988   1.019  0.5524  0.1949  0.1104
16098TIP3    H169709   2.538   0.893   1.011  0.6894  0.0053  1.7806
16098TIP3    H269710   2.471   1.021   1.057  0.6055  0.7022 -0.2220
16099TIP3   OH269711   4.792   2.044   5.577  0.9159 -0.3559 -0.6302
16099TIP3    H169712   4.877   2.043   5.532  2.1287  1.1826  1.4702
16099TIP3    H269713   4.807   1.994   5.657  0.3891  1.4399  0.6331
16100TIP3   OH269714   4.014   2.358  11.839 -0.0903 -0.0139 -0.2485
16100TIP3    H169715   3.956   2.289  11.806  0.3861  0.4540 -2.2358
16100TIP3    H269716   4.061   2.388  11.761  1.4343  0.9349  0.9779
16101TIP3   OH269717   5.848   1.058  16.953  0.6250  0.0438  0.5393
16101TIP3    H169718   5.878   1.107  17.030 -0.9266 -0.2017  1.3439
16101TIP3    H269719   5.909   1.083  16.883  0.2184  2.7002  1.0421
16102TIP3   OH269720   4.218   1.106   2.904  0.7044 -0.2975 -0.0870
16102TIP3    H169721   4.150   1.110   2.837  0.6370  1.3243  0.0305
16102TIP3    H269722   4.170   1.099   2.987  0.7997 -3.0557 -0.1864
16103TIP3   OH269723   2.006   1.666   4.269 -0.6009 -0.2857  0.3550
16103TIP3    H169724   2.070   1.701   4.206 -2.2592  0.3523 -1.0570
16103TIP3    H269725   2.023   1.571   4.269 -1.5306 -0.5427 -2.3170
16104TIP3   OH269726   4.285   1.341  12.998  0.4012  0.0026 -0.1095
16104TIP3    H169727   4.211   1.381  12.952 -0.0254 -0.8670 -0.2129
16104TIP3    H269728   4.337   1.414  13.029 -0.1877  0.6247 -0.5605
16105TIP3   OH269729   3.757   5.392   1.259  0.7133  0.2154 -0.0264
16105TIP3    H169730   3.753   5.298   1.240 -1.0307  0.0210  1.0676
16105TIP3    H269731   3.731   5.434   1.178  1.6211 -0.2172 -0.5628
16106TIP3   OH269732   1.950   4.750   5.159 -0.2712 -0.0982  0.4719
16106TIP3    H169733   1.946   4.843   5.135  0.8091 -0.5179 -1.5491
16106TIP3    H269734   2.042   4.735   5.184  0.3271 -1.1831 -2.0488
16107TIP3   OH269735   2.426   4.170   5.170  0.4130 -0.1351 -0.4433
16107TIP3    H169736   2.394   4.083   5.194  0.9362  0.1354  1.3961
16107TIP3    H269737   2.356   4.208   5.117 -1.1841 -0.5275  1.2852
16108TIP3   OH269738   2.208   4.849  12.176  0.5854 -0.9184  0.0887
16108TIP3    H169739   2.121   4.848  12.138  0.3023 -2.1074  0.7242
16108TIP3    H269740   2.195   4.871  12.268  1.0690 -0.0444 -0.0385
16109TIP3   OH269741   6.759   5.152   5.652  0.3264 -0.0455  0.2705
16109TIP3    H169742   6.829   5.087   5.640 -1.5975 -1.9428 -1.5226
16109TIP3    H269743   6.718   5.128   5.735  0.2922 -0.4492  0.1393
16110TIP3   OH269744   4.417   0.195   2.256  0.3065  0.2314  0.1350
16110TIP3    H169745   4.387   0.233   2.338 -4.0324 -2.9789  0.3935
16110TIP3    H269746   4.453   0.110   2.280  0.9569  0.1220 -1.1147
16111TIP3   OH269747   2.623   4.625  16.050  0.1386 -0.3667  0.0876
16111TIP3    H169748   2.674   4.698  16.084  0.3482 -0.3698 -0.2197
16111TIP3    H269749   2.614   4.565  16.124  2.3485 -1.3605 -0.3816
16112TIP3   OH269750   2.489   3.481   0.416 -0.0468 -0.3215  0.7238
16112TIP3    H169751   2.575   3.454   0.384  0.1538 -0.8867  1.7115
16112TIP3    H269752   2.501   3.494   0.510 -1.0536 -0.4777  0.8869
16113TIP3   OH269753   4.386   4.586   4.769 -0.3372  0.0507 -0.0620
16113TIP3    H169754   4.320   4.655   4.761  0.7812  1.2330  0.5472
16113TIP3    H269755   4.443   4.598   4.693  0.7579  0.8080  0.8570
16114TIP3   OH269756   5.930   4.685  17.161  0.3460  0.2483 -0.1019
16114TIP3    H169757   5.994   4.722  17.099 -1.4567  0.3877 -1.9927
16114TIP3    H269758   5.912   4.757  17.222 -0.5207  1.3861 -1.6367
16115TIP3   OH269759   0.084   4.735  13.113 -0.1056  0.4082  0.0868
16115TIP3    H169760  -0.004   4.773  13.119 -0.3755 -0.3209  1.0872
16115TIP3    H269761   0.142   4.802  13.147 -0.4791  0.2744  1.0234
16116TIP3   OH269762   3.604   4.590  13.423 -0.2490  0.2816 -0.4585
16116TIP3    H169763   3.535   4.651  13.451  0.6171  0.9920  0.1731
16116TIP3    H269764   3.641   4.558  13.505 -2.5565 -3.3764 -0.6248
16117TIP3   OH269765   3.460   0.730   6.292  0.3636 -0.1356 -0.4069
16117TIP3    H169766   3.526   0.796   6.311  0.5951 -0.2167 -0.9321
16117TIP3    H269767   3.483   0.656   6.348 -0.5998  0.6496  1.1039
16118TIP3   OH269768   2.848   4.826  14.656 -0.6117 -0.1249 -0.0499
16118TIP3    H169769   2.889   4.761  14.713  1.1728 -0.0807 -1.1908
16118TIP3    H269770   2.828   4.778  14.575  0.8070  0.7011 -0.9359
16119TIP3   OH269771   5.072   2.516  16.343 -0.2132  0.3250 -0.2902
16119TIP3    H169772   5.156   2.562  16.332  0.0847  0.2471  1.4164
16119TIP3    H269773   5.015   2.580  16.386 -0.4367 -0.2379  0.2538
16120TIP3   OH269774   5.790   4.055   3.048 -0.0083  0.3576 -0.1023
16120TIP3    H169775   5.714   4.043   3.104 -0.7787 -3.2073 -1.6705
16120TIP3    H269776   5.754   4.070   2.961  0.9193 -2.2966 -1.0496
16121TIP3   OH269777   2.831   4.331  13.400 -0.5147 -0.5584  0.0460
16121TIP3    H169778   2.878   4.253  13.370  0.1837 -0.7241  1.4873
16121TIP3    H269779   2.882   4.363  13.475 -2.2959 -0.3434  1.2348
16122TIP3   OH269780   5.226   5.827   2.720 -0.2873 -0.2835 -0.2794
16122TIP3    H169781   5.308   5.827   2.769 -1.2867 -1.4500  1.5216
16122TIP3    H269782   5.252   5.826   2.628  1.6908 -0.4733  0.2484
16123TIP3   OH269783   5.231   2.817   3.518 -0.1631  0.0978 -0.1813
16123TIP3    H169784   5.300   2.776   3.570 -0.6030  0.2899  0.5666
16123TIP3    H269785   5.259   2.805   3.427 -0.3731 -2.0216 -0.0106
16124TIP3   OH269786   2.007   1.046  12.886 -0.1020  0.1942 -0.5056
16124TIP3    H169787   1.978   1.091  12.807 -1.0613  0.4731 -0.0110
16124TIP3    H269788   2.058   1.111  12.934  0.1292  0.1542 -0.6982
16125TIP3   OH269789   3.500   6.201   0.755  0.5410 -0.0504 -0.1514
16125TIP3    H169790   3.497   6.221   0.662 -0.6644 -0.2422 -0.1727
16125TIP3    H269791   3.495   6.105   0.759  2.8074 -0.2041  0.0582
16126TIP3   OH269792   1.837   1.780   2.545 -0.0848  0.3512  0.8201
16126TIP3    H169793   1.912   1.816   2.591  0.5381 -0.5614  0.5514
16126TIP3    H269794   1.853   1.685   2.544 -0.6420  0.2543 -0.2875
16127TIP3   OH269795   5.636   4.152  12.571  0.4957  0.4405  0.1580
16127TIP3    H169796   5.577   4.212  12.526 -2.3779 -1.6451  0.8306
16127TIP3    H269797   5.717   4.154  12.520 -0.2754  3.0827 -1.1217
16128TIP3   OH269798   3.881   4.354  16.520  0.3243  0.2412 -0.3622
16128TIP3    H169799   3.797   4.315  16.541  0.7359 -1.3369 -1.5105
16128TIP3    H269800   3.907   4.399  16.601 -0.8408 -0.6427  0.5374
16129TIP3   OH269801   5.920   2.528   3.821  0.1734  0.0664  0.9514
16129TIP3    H169802   5.849   2.584   3.790  1.2587 -0.1452 -2.3716
16129TIP3    H269803   5.997   2.585   3.822  0.4770 -0.3489  1.8143
16130TIP3   OH269804   4.241   1.373  12.490 -0.5700  0.2958  0.1425
16130TIP3    H169805   4.162   1.424  12.472 -0.5712  0.5138  0.7600
16130TIP3    H269806   4.270   1.402  12.577 -1.2327 -1.5884  1.0337
16131TIP3   OH269807   2.023   0.616   2.796  0.4996  0.4378 -0.2965
16131TIP3    H169808   2.037   0.614   2.891 -1.0949  0.7699 -0.0368
16131TIP3    H269809   2.061   0.699   2.768  1.4172  0.1219 -0.0483
16132TIP3   OH269810   1.869   5.641   3.953  0.5018 -0.3915 -0.4117
16132TIP3    H169811   1.954   5.648   3.910  0.6808 -1.5336 -0.2742
16132TIP3    H269812   1.869   5.713   4.016  0.4170  1.0445 -1.9521
16133TIP3   OH269813   4.320   3.042  13.734 -0.7874 -0.6273 -0.3569
16133TIP3    H169814   4.289   2.964  13.690 -2.2207 -0.3407  0.0925
16133TIP3    H269815   4.369   3.009  13.810  0.3252 -1.0871 -1.2427
16134TIP3   OH269816   0.777   6.627   5.218  0.2198  0.2393  0.1191
16134TIP3    H169817   0.780   6.708   5.166  0.2401 -0.4441 -0.9716
16134TIP3    H269818   0.865   6.620   5.256  0.5764  0.1799 -0.6761
16135TIP3   OH269819   5.253   3.516   4.639 -0.9081  0.8138  0.2653
16135TIP3    H169820   5.287   3.451   4.577 -0.1929  0.5054  0.9702
16135TIP3    H269821   5.208   3.580   4.584  0.4113  0.9782 -0.6539
16136TIP3   OH269822   6.133   6.046   2.969 -0.3079 -0.5139  0.5792
16136TIP3    H169823   6.121   6.113   3.036 -0.0426 -2.6317  2.8922
16136TIP3    H269824   6.202   6.080   2.912  1.1496  0.4038  2.7829
16137TIP3   OH269825   6.657   4.361  15.885 -0.1603  0.7580  0.4345
16137TIP3    H169826   6.702   4.441  15.912  1.3356  0.5390 -1.2505
16137TIP3    H269827   6.724   4.293  15.889 -1.0432 -0.1427  0.4422
16138TIP3   OH269828   2.094   3.252   0.682  0.2181  0.0829  0.8895
16138TIP3    H169829   2.082   3.338   0.642  0.8082 -0.2839 -0.0872
16138TIP3    H269830   2.080   3.189   0.611  1.2487 -0.5778  1.2405
16139TIP3   OH269831   2.171   3.461  12.669  0.2828  0.6447 -0.2082
16139TIP3    H169832   2.206   3.512  12.597  0.0095 -0.3881 -1.0892
16139TIP3    H269833   2.138   3.381  12.629  0.6514 -0.2145  1.1250
16140TIP3   OH269834   5.235   5.514   1.063 -0.6142  0.7070  0.3433
16140TIP3    H169835   5.295   5.565   1.008  0.0157 -1.4528 -1.1046
16140TIP3    H269836   5.178   5.579   1.104  0.6906  2.5974 -0.7249
16141TIP3   OH269837   1.266   6.721   6.605  0.3934 -0.4248 -0.4893
16141TIP3    H169838   1.201   6.661   6.641  0.2706  0.4271  0.7506
16141TIP3    H269839   1.350   6.688   6.638  0.2980  0.2481  0.4441
16142TIP3   OH269840   2.471   2.520   5.463 -0.6120 -0.5148  0.3049
16142TIP3    H169841   2.475   2.535   5.368  0.4229 -0.0348  0.4119
16142TIP3    H269842   2.432   2.600   5.498 -1.2755 -0.8163  0.2586
16143TIP3   OH269843   2.347   6.023   3.471 -0.2469 -0.2006 -0.1729
16143TIP3    H169844   2.298   6.055   3.394  0.1160 -0.3201 -0.4551
16143TIP3    H269845   2.285   6.032   3.543 -0.0118  1.6365 -0.1359
16144TIP3   OH269846   3.709   1.304   3.860  0.0435 -0.6249  0.5973
16144TIP3    H169847   3.739   1.293   3.770 -1.2681  0.1870  0.0354
16144TIP3    H269848   3.684   1.216   3.888  2.3238 -1.2461  0.9152
16145TIP3   OH269849   6.573   3.925  11.936 -0.2816 -0.5711  0.2654
16145TIP3    H169850   6.528   3.851  11.894 -0.7181 -0.3231  0.2995
16145TIP3    H269851   6.528   3.936  12.020 -0.1885 -0.2959  0.2798
16146TIP3   OH269852   3.207   3.980   1.362 -0.9466 -0.1733  0.3641
16146TIP3    H169853   3.134   4.041   1.367  0.4229  1.6136 -0.2336
16146TIP3    H269854   3.170   3.901   1.324 -1.9588  1.7981 -3.2600
16147TIP3   OH269855   0.229   6.574   1.598 -0.0316 -0.5606 -0.1015
16147TIP3    H169856   0.225   6.663   1.631  0.9326  0.1259 -1.6970
16147TIP3    H269857   0.322   6.560   1.578 -0.3018 -1.5847 -0.7167
16148TIP3   OH269858   5.670   5.851   2.560 -0.4852  0.1257  0.2117
16148TIP3    H169859   5.737   5.806   2.611  0.2454  1.3476  0.3607
16148TIP3    H269860   5.605   5.878   2.626  1.3240  3.2857  0.8938
16149TIP3   OH269861   6.762   6.684  13.453 -1.0461 -0.2736 -0.3464
16149TIP3    H169862   6.687   6.681  13.393 -1.3441  0.6614 -0.0439
16149TIP3    H269863   6.822   6.618  13.419 -0.6375  1.1003 -2.4794
16150TIP3   OH269864   3.957   1.012   3.128  0.4195 -0.5146  0.0682
16150TIP3    H169865   3.951   0.965   3.045 -1.9135 -0.5478  0.1888
16150TIP3    H269866   4.045   0.992   3.161  2.2910  1.2386 -3.3352
16151TIP3   OH269867   6.349   4.519   0.345  0.2677  0.3176  0.0196
16151TIP3    H169868   6.384   4.541   0.258 -0.5329 -0.7831 -0.6187
16151TIP3    H269869   6.272   4.575   0.355  0.8104  1.0096  0.3718
16152TIP3   OH269870   6.153   0.135  17.179  0.4851  0.7192  0.3510
16152TIP3    H169871   6.142   0.115  17.086  1.5938  4.1296 -0.6586
16152TIP3    H269872   6.065   0.150  17.211 -0.2440 -3.2901  0.7669
16153TIP3   OH269873   6.330   6.671   2.776 -0.2722 -1.0034  0.2282
16153TIP3    H169874   6.387   6.747   2.762 -0.1496 -1.3381 -1.2478
16153TIP3    H269875   6.306   6.676   2.868 -0.8614  1.2645  0.0142
16154TIP3   OH269876   2.824   4.508   5.664  0.0170  0.0564  0.2467
16154TIP3    H169877   2.736   4.496   5.628  0.7564 -0.6286 -1.4332
16154TIP3    H269878   2.872   4.430   5.637  0.8709 -0.1114  2.1006
16155TIP3   OH269879   4.827   3.625   2.565  0.1511  0.0262 -0.2425
16155TIP3    H169880   4.818   3.541   2.520 -0.4170 -0.2062  0.2851
16155TIP3    H269881   4.801   3.690   2.500 -0.7468 -0.3101 -0.2404
16156TIP3   OH269882   4.937   1.351  12.484 -0.5861 -0.4619 -0.1011
16156TIP3    H169883   4.905   1.352  12.393 -0.2778 -0.8579 -0.2189
16156TIP3    H269884   4.893   1.277  12.524 -0.0756 -0.8113 -0.1721
16157TIP3   OH269885   1.758   2.576   5.994 -0.0719  0.6657 -0.0658
16157TIP3    H169886   1.829   2.571   5.930  1.8609 -0.3461  2.0210
16157TIP3    H269887   1.726   2.666   5.987  2.0055  1.4335 -0.4842
16158TIP3   OH269888   6.241   5.863  16.566 -0.2576 -0.3460  0.4534
16158TIP3    H169889   6.269   5.876  16.475 -0.1477  0.2303  0.5684
16158TIP3    H269890   6.145   5.863  16.562 -0.2788 -1.8704  0.1233
16159TIP3   OH269891   1.044   4.555  14.240  0.6972  0.2506 -0.3558
16159TIP3    H169892   0.954   4.557  14.205 -0.1408 -1.9367  1.4470
16159TIP3    H269893   1.044   4.622  14.308  1.0477  1.5126 -1.5328
16160TIP3   OH269894   6.750   6.570  12.667  0.1374  0.2865 -0.2554
16160TIP3    H169895   6.661   6.601  12.648 -0.2153  0.1389  1.0802
16160TIP3    H269896   6.778   6.527  12.586 -0.2591  1.9894 -1.3439
16161TIP3   OH269897   3.646   1.183  13.190 -0.2471  0.1527  0.4577
16161TIP3    H169898   3.683   1.216  13.108  0.7200  0.7929  1.1281
16161TIP3    H269899   3.723   1.162  13.244 -0.8600 -1.4902  0.7370
16162TIP3   OH269900   2.769   0.795  16.476 -0.2391 -0.1870  0.1146
16162TIP3    H169901   2.790   0.889  16.473  0.3430 -0.3307 -0.5050
16162TIP3    H269902   2.726   0.777  16.392  3.0838 -1.2299 -1.5448
16163TIP3   OH269903   1.051   2.652   3.406  0.0624 -0.6252 -0.1624
16163TIP3    H169904   1.037   2.696   3.322 -0.0137  0.3030  0.3216
16163TIP3    H269905   0.968   2.661   3.452  0.4305 -0.1818  0.4312
16164TIP3   OH269906   4.029   5.296  16.579 -0.1222 -0.0670  0.0354
16164TIP3    H169907   4.084   5.295  16.658 -0.6165  1.3259  0.4331
16164TIP3    H269908   3.974   5.374  16.589  0.2614  0.5208 -2.0169
16165TIP3   OH269909   2.523   3.151  15.410 -0.2559  0.4832  0.6994
16165TIP3    H169910   2.560   3.144  15.498 -1.0164 -0.4852  0.9701
16165TIP3    H269911   2.486   3.064  15.393 -0.1362  0.6631 -0.5727
16166TIP3   OH269912   2.804   1.683   6.584 -0.2658  0.0912 -0.7540
16166TIP3    H169913   2.794   1.774   6.557 -2.2646  0.0479 -0.2793
16166TIP3    H269914   2.718   1.657   6.616  0.0707 -2.1761 -1.4735
16167TIP3   OH269915   3.887   3.730  16.594  0.4208  0.3588  0.0252
16167TIP3    H169916   3.979   3.734  16.619  0.1890  0.2179  0.9475
16167TIP3    H269917   3.862   3.821  16.579  0.7016  0.3996 -0.1859
16168TIP3   OH269918   4.427   3.926   0.796 -0.2274 -0.2911  0.0429
16168TIP3    H169919   4.464   3.997   0.848  0.1496  0.4372 -1.1668
16168TIP3    H269920   4.488   3.853   0.807  1.1192  0.5852 -1.1502
16169TIP3   OH269921   1.631   3.973   2.124  0.8444  0.1816  0.5830
16169TIP3    H169922   1.675   3.905   2.072 -0.1338 -0.1924  0.2260
16169TIP3    H269923   1.669   4.055   2.093  0.7295 -0.0821 -0.2870
16170TIP3   OH269924   3.960   2.110  16.591 -0.4661 -0.0716  0.1535
16170TIP3    H169925   3.879   2.161  16.593 -1.7138 -1.8956 -0.3782
16170TIP3    H269926   3.979   2.099  16.498  0.6460  0.6663  0.2731
16171TIP3   OH269927   0.472   2.658  12.019 -0.4973 -0.3389  0.0140
16171TIP3    H169928   0.496   2.731  11.961 -3.2032  1.0199  0.4364
16171TIP3    H269929   0.527   2.585  11.990  1.5563  1.5574 -1.1414
16172TIP3   OH269930   1.478   6.228  16.946 -0.6696 -0.2827  0.1056
16172TIP3    H169931   1.454   6.148  16.994 -0.9288  0.1681  0.7430
16172TIP3    H269932   1.394   6.264  16.916 -0.5197 -0.4734 -0.5489
16173TIP3   OH269933   1.744   4.884  13.915  0.0107  0.3970 -0.7276
16173TIP3    H169934   1.790   4.961  13.881  0.0653  0.4370 -0.5658
16173TIP3    H269935   1.799   4.854  13.988 -0.3276  0.5701 -0.3938
16174TIP3   OH269936   2.100   4.381  13.841  0.5474  1.0131  0.9139
16174TIP3    H169937   2.166   4.326  13.798  0.3098  1.6607 -0.3331
16174TIP3    H269938   2.138   4.402  13.926 -0.0403 -2.3828  2.1658
16175TIP3   OH269939   0.741   0.276  14.411 -0.1477  0.7049 -0.0580
16175TIP3    H169940   0.739   0.253  14.318  1.0397 -0.1833  0.0963
16175TIP3    H269941   0.652   0.261  14.442 -0.9562  2.5139 -1.3553
16176TIP3   OH269942   3.823   0.892   6.517 -0.1993 -0.4087  0.4888
16176TIP3    H169943   3.818   0.806   6.476 -0.3660 -0.2903  0.2545
16176TIP3    H269944   3.750   0.941   6.478  0.7971  0.3214 -0.5023
16177TIP3   OH269945   3.373   4.026  14.922 -0.5412 -0.6218  0.2559
16177TIP3    H169946   3.335   3.972  14.853  1.2050  1.5127 -2.5718
16177TIP3    H269947   3.306   4.092  14.941 -1.0761 -1.2936  0.7852
16178TIP3   OH269948   4.915   2.463   2.248 -0.2103 -0.0998  0.0816
16178TIP3    H169949   4.875   2.539   2.205 -0.5491  1.2864  2.6209
16178TIP3    H269950   5.008   2.469   2.226 -0.6851 -1.0131 -2.5465
16179TIP3   OH269951   2.410   1.600  11.789  0.4281 -0.2301  0.2803
16179TIP3    H169952   2.443   1.632  11.873 -0.8647  1.1715  0.3047
16179TIP3    H269953   2.333   1.548  11.812  2.1087 -2.9980  0.1802
16180TIP3   OH269954   4.825   5.066   1.304  0.3557  0.0209  0.2189
16180TIP3    H169955   4.895   5.006   1.333 -1.4025 -0.9442  2.8772
16180TIP3    H269956   4.744   5.018   1.320 -1.0414  2.1342 -0.0976
16181TIP3   OH269957   0.020   3.022  16.551  0.2821 -0.3082 -0.2073
16181TIP3    H169958  -0.002   3.077  16.477  0.5589 -1.3412 -1.0793
16181TIP3    H269959  -0.008   2.934  16.526 -2.0313 -0.3263  1.9578
16182TIP3   OH269960   0.347   2.188  15.841  0.0149 -0.4868  0.0131
16182TIP3    H169961   0.308   2.197  15.754  0.9427  2.1865 -0.2317
16182TIP3    H269962   0.376   2.097  15.845 -2.2984 -1.3858 -1.4400
16183TIP3   OH269963   0.621   6.129  16.940  0.2276 -0.2186 -0.0087
16183TIP3    H169964   0.580   6.100  16.858  1.5753  0.1256 -0.8453
16183TIP3    H269965   0.647   6.048  16.984  1.3554 -0.3865 -0.9368
16184TIP3   OH269966   4.183   2.430   2.295 -0.1056  0.6307  0.0083
16184TIP3    H169967   4.088   2.435   2.301 -0.3431 -2.2852  0.0713
16184TIP3    H269968   4.201   2.342   2.262  2.6076 -0.0266  2.7028
16185TIP3   OH269969   5.635   1.804  12.707  0.0491  0.1591 -0.1421
16185TIP3    H169970   5.622   1.784  12.800  1.7855 -2.1253 -0.2981
16185TIP3    H269971   5.722   1.842  12.702 -0.7555  2.0090 -0.6641
16186TIP3   OH269972   0.889   5.535   4.539 -0.3564 -0.4693 -0.3881
16186TIP3    H169973   0.829   5.481   4.591  0.0773  0.1292  0.7655
16186TIP3    H269974   0.975   5.522   4.580  0.0993 -0.3580 -1.2706
16187TIP3   OH269975   5.498   4.547  13.537 -0.4961  0.3742 -0.6220
16187TIP3    H169976   5.524   4.634  13.566 -0.5257 -0.4622  2.2507
16187TIP3    H269977   5.489   4.555  13.442  0.7687  3.1332 -0.6162
16188TIP3   OH269978   4.171   2.535   4.486  0.0183  0.6267 -0.9384
16188TIP3    H169979   4.200   2.443   4.481 -1.2624  0.2566 -2.4061
16188TIP3    H269980   4.164   2.563   4.394  0.1513  2.1242 -0.5149
16189TIP3   OH269981   1.438   3.925  14.164  0.0401  0.9942 -0.2998
16189TIP3    H169982   1.405   3.858  14.104  1.8347  0.0525 -0.3054
16189TIP3    H269983   1.362   3.950  14.217 -0.5053 -1.6790  0.2980
16190TIP3   OH269984   6.609   6.206   1.295  0.4682 -0.7804 -0.1949
16190TIP3    H169985   6.638   6.285   1.249  3.3409 -1.6000 -0.0308
16190TIP3    H269986   6.585   6.145   1.225  1.1636 -0.7537 -0.4638
16191TIP3   OH269987   5.462   6.162  14.636 -0.1338  0.9808 -0.1599
16191TIP3    H169988   5.473   6.134  14.727  1.9804  0.5129 -0.5033
16191TIP3    H269989   5.446   6.256  14.641 -0.1831  0.9354  0.6856
16192TIP3   OH269990   4.733   5.167  14.906  0.0101 -0.7088 -0.2119
16192TIP3    H169991   4.658   5.144  14.851  0.7926 -0.2601 -1.5148
16192TIP3    H269992   4.765   5.250  14.869 -0.9018  0.9617  2.4358
16193TIP3   OH269993   5.810   3.479   0.572 -0.2019 -0.2170  0.4007
16193TIP3    H169994   5.898   3.484   0.610 -0.4717  0.4540  0.9552
16193TIP3    H269995   5.753   3.518   0.638 -1.0165 -1.2298  0.3287
16194TIP3   OH269996   0.203   3.346   0.037  0.0088  0.3003 -0.4234
16194TIP3    H169997   0.266   3.353   0.109 -1.7893  1.5716  1.1465
16194TIP3    H269998   0.163   3.260   0.048 -0.0101  0.3486 -0.0942
16195TIP3   OH269999   2.917   1.603   2.711 -0.1922 -0.2248  0.4653
16195TIP3    H170000   2.957   1.515   2.711  1.3916  0.4457  1.5310
16195TIP3    H270001   2.922   1.631   2.802 -0.0487  1.2516  0.0148
16196TIP3   OH270002   1.100   5.748  15.126 -0.1777 -0.1788  0.4254
16196TIP3    H170003   1.191   5.777  15.116 -0.2154 -0.2361 -0.1178
16196TIP3    H270004   1.107   5.664  15.172 -0.0259  0.3409  1.3687
16197TIP3   OH270005   5.756   2.518  11.739 -0.5234 -0.4434 -0.2299
16197TIP3    H170006   5.664   2.497  11.721 -1.3166  0.1833  2.5413
16197TIP3    H270007   5.765   2.610  11.715 -0.0103 -1.0132 -2.3833
16198TIP3   OH270008   5.041   5.475  14.542 -0.0169  0.4788 -0.0223
16198TIP3    H170009   5.136   5.478  14.550  0.0433 -0.6569 -0.1519
16198TIP3    H270010   5.025   5.478  14.448 -0.0480 -0.3274 -0.0524
16199TIP3   OH270011   1.133   0.056   0.027  0.4931  0.0994 -0.8064
16199TIP3    H170012   1.077   0.104   0.087  3.0842  0.4958  1.4908
16199TIP3    H270013   1.159   0.121  -0.039 -0.4808  0.2892 -1.0233
16200TIP3   OH270014   6.000   1.449   4.555 -0.7000  0.6136 -0.4894
16200TIP3    H170015   5.922   1.394   4.549  0.3918 -0.8865 -1.6506
16200TIP3    H270016   6.048   1.415   4.631 -1.0291  1.3361  0.0446
16201TIP3   OH270017   1.822   3.116  11.410  0.7999  0.4317  0.1827
16201TIP3    H170018   1.903   3.144  11.368  1.4237  1.3409  1.9093
16201TIP3    H270019   1.756   3.178  11.377  0.8331 -0.0934 -0.9444
16202TIP3   OH270020   3.116   6.614  15.525 -0.7455 -0.2095 -0.2228
16202TIP3    H170021   3.189   6.552  15.519 -0.4094  0.0883  0.5551
16202TIP3    H270022   3.128   6.673  15.451  1.6792  1.7614  1.5479
16203TIP3   OH270023   1.074   5.544   5.469  0.0293 -0.1371  0.0206
16203TIP3    H170024   1.050   5.601   5.396  0.9903 -0.2371 -0.3827
16203TIP3    H270025   0.990   5.515   5.505 -0.4694 -0.4875 -1.3608
16204TIP3   OH270026   0.196   1.928   0.162 -0.4303 -0.3902 -0.2912
16204TIP3    H170027   0.181   1.834   0.153 -1.8012 -0.4007  1.4218
16204TIP3    H270028   0.241   1.936   0.246 -2.4875  0.5800  0.8093
16205TIP3   OH270029   0.599   5.044   0.029 -0.6925 -0.3999  0.9129
16205TIP3    H170030   0.689   5.075   0.035 -0.7073  0.4273 -1.9190
16205TIP3    H270031   0.546   5.120   0.052 -0.6485  0.7153 -2.1658
16206TIP3   OH270032   0.274   2.974   5.078 -0.6758 -0.0304  0.2849
16206TIP3    H170033   0.188   2.957   5.039 -0.6615  2.1519 -0.9007
16206TIP3    H270034   0.271   2.931   5.164 -2.5554 -0.8585 -0.1449
16207TIP3   OH270035   6.415   0.778  11.810  0.2567  0.3328 -0.3837
16207TIP3    H170036   6.504   0.789  11.777  0.1272  0.0496 -0.8492
16207TIP3    H270037   6.417   0.811  11.899  1.2714 -1.3106  0.2510
16208TIP3   OH270038   3.777   0.761   4.849  0.5745  0.1371 -0.0626
16208TIP3    H170039   3.832   0.815   4.905  0.5725 -1.2882  1.4051
16208TIP3    H270040   3.692   0.759   4.894  0.9618 -2.1556  0.7114
16209TIP3   OH270041   5.600   0.411  16.084  0.0580  0.8633 -0.1113
16209TIP3    H170042   5.556   0.343  16.032 -0.8986  0.4078  1.2513
16209TIP3    H270043   5.529   0.456  16.130  0.7990  1.9414  0.0200
16210TIP3   OH270044   2.294   2.648   4.540  0.0162  1.1885 -0.0595
16210TIP3    H170045   2.228   2.717   4.549 -1.6383 -0.3298  0.0386
16210TIP3    H270046   2.281   2.613   4.452  0.3724  0.5436  0.1375
16211TIP3   OH270047   0.212   3.078  13.862 -0.6754 -0.3499  0.3943
16211TIP3    H170048   0.224   3.011  13.795  2.7523 -1.0672  1.5295
16211TIP3    H270049   0.187   3.029  13.941 -2.0143  0.1983  0.3400
16212TIP3   OH270050   0.726   0.804  12.573  0.0362  0.1403 -0.9454
16212TIP3    H170051   0.655   0.851  12.529  0.4926  1.6080 -0.1702
16212TIP3    H270052   0.805   0.826  12.523  0.1732 -0.2870 -0.9265
16213TIP3   OH270053   4.687   0.067  17.249 -0.3592 -0.1208  0.0827
16213TIP3    H170054   4.757   0.132  17.237 -1.5844  1.3689  0.6024
16213TIP3    H270055   4.691   0.013  17.170  1.5748 -0.3036  0.2544
16214TIP3   OH270056   3.609   5.684  13.206 -0.0091  0.4209  0.1141
16214TIP3    H170057   3.683   5.662  13.149  0.5617  2.4754 -0.0198
16214TIP3    H270058   3.647   5.737  13.276 -1.3831  1.8256 -0.1550
16215TIP3   OH270059   6.700   1.488  13.423 -0.3205  0.4279  0.1864
16215TIP3    H170060   6.752   1.484  13.503  1.6815 -0.4635 -1.1012
16215TIP3    H270061   6.618   1.530  13.450  0.2339  0.0416  2.7122
16216TIP3   OH270062   1.942   5.118   5.706  0.0856 -0.0245  0.4214
16216TIP3    H170063   1.999   5.137   5.781  0.4750  0.5378 -0.0064
16216TIP3    H270064   1.936   5.023   5.705  2.0648 -0.1973 -0.2654
16217TIP3   OH270065   1.942   1.380  13.703 -0.2304 -0.4814 -0.4930
16217TIP3    H170066   1.977   1.331  13.629  1.6422 -0.6774  0.4619
16217TIP3    H270067   2.017   1.395  13.760 -1.3626  0.7976  0.7554
16218TIP3   OH270068   1.719   6.510   1.239  0.1307  0.8089 -0.5198
16218TIP3    H170069   1.788   6.538   1.179  2.5181 -0.1256  1.5937
16218TIP3    H270070   1.765   6.464   1.309 -2.6771  0.1166  1.0469
16219TIP3   OH270071   3.398   1.604   2.081 -0.2600  0.6589 -0.0504
16219TIP3    H170072   3.433   1.632   1.996  2.6579  0.0001  0.8123
16219TIP3    H270073   3.379   1.685   2.127  0.2911  1.0613 -0.5178
16220TIP3   OH270074   5.759   5.250  16.457  0.1742 -0.4688 -0.0378
16220TIP3    H170075   5.778   5.250  16.363 -0.6806 -0.0253 -0.2240
16220TIP3    H270076   5.663   5.247  16.461 -0.1296  3.7373  0.7125
16221TIP3   OH270077   1.761   4.495  13.607 -0.1846  0.3644 -0.2376
16221TIP3    H170078   1.759   4.443  13.687 -0.8710  0.6180 -0.0855
16221TIP3    H270079   1.852   4.488  13.576 -0.0608 -0.2143  0.2392
16222TIP3   OH270080   2.031   6.144   5.616  0.0902  0.4821  0.7692
16222TIP3    H170081   2.048   6.122   5.524 -2.3892  0.7192  0.1961
16222TIP3    H270082   1.992   6.064   5.653 -1.2155  1.1687  0.9232
16223TIP3   OH270083   2.029   3.718  14.078  0.2432  0.7621  0.9203
16223TIP3    H170084   1.935   3.738  14.080  0.0888  0.6323 -1.7524
16223TIP3    H270085   2.056   3.720  14.170 -2.4359  0.4438  1.7875
16224TIP3   OH270086   6.434   6.050   3.473 -0.8981  0.5886  0.2437
16224TIP3    H170087   6.357   6.070   3.418  0.3714 -0.3518 -2.0184
16224TIP3    H270088   6.432   5.955   3.482 -0.1037  0.5767  0.3021
16225TIP3   OH270089   3.616   0.240   3.770 -0.0116  0.1637 -0.3443
16225TIP3    H170090   3.558   0.181   3.818  0.9935 -2.6945 -2.3531
16225TIP3    H270091   3.579   0.244   3.682  2.0379 -0.7380 -1.3267
16226TIP3   OH270092   5.343   6.403  12.261 -0.0259 -0.1603 -0.0922
16226TIP3    H170093   5.353   6.335  12.194  0.0411  1.1709 -1.5040
16226TIP3    H270094   5.250   6.426  12.259 -0.5420 -1.7780  2.0457
16227TIP3   OH270095   1.670   0.972   3.274  0.0675 -0.0160 -0.2076
16227TIP3    H170096   1.625   0.929   3.347 -0.2305 -0.0952 -0.4371
16227TIP3    H270097   1.762   0.973   3.300 -0.3577  2.7162  1.5989
16228TIP3   OH270098   6.294   6.538   1.305  0.0041 -0.1699  0.2921
16228TIP3    H170099   6.262   6.480   1.375  0.1939 -0.7522 -0.1024
16228TIP3    H270100   6.343   6.606   1.352 -2.1799  1.0394  0.9685
16229TIP3   OH270101   2.718   6.518   1.457 -0.1196 -0.1718  0.0092
16229TIP3    H170102   2.679   6.578   1.520  0.0089 -0.7455  0.6377
16229TIP3    H270103   2.799   6.489   1.498 -0.3309 -1.0184 -0.1426
16230TIP3   OH270104   6.306   1.739   2.044  0.8405  0.5575 -0.2513
16230TIP3    H170105   6.277   1.680   1.975 -0.9107  2.4959 -1.2815
16230TIP3    H270106   6.247   1.721   2.118  1.1918  0.1111 -0.0732
16231TIP3   OH270107   3.646   3.820  14.363 -0.7762 -0.3416  0.2374
16231TIP3    H170108   3.572   3.826  14.423  0.2330 -1.5336  1.6772
16231TIP3    H270109   3.711   3.880  14.398  0.0099 -1.4106  0.6573
16232TIP3   OH270110   5.221   1.124   2.959  0.0878 -0.6378  0.1014
16232TIP3    H170111   5.245   1.065   3.031 -1.5805 -0.0739  1.1660
16232TIP3    H270112   5.269   1.205   2.977 -1.4140  0.0070  1.4460
16233TIP3   OH270113   5.577   1.105  12.580 -0.7296 -0.0616 -0.1617
16233TIP3    H170114   5.502   1.072  12.630 -1.2024  1.6382  0.3356
16233TIP3    H270115   5.638   1.032  12.576 -1.1072 -0.5513  2.0671
16234TIP3   OH270116   5.824   4.037  15.864  0.0865  0.2074  0.3646
16234TIP3    H170117   5.815   3.945  15.840  0.3872  0.2942 -0.0953
16234TIP3    H270118   5.793   4.041  15.954 -0.1989 -0.2931  0.2957
16235TIP3   OH270119   0.480   3.856  12.111  0.3583  0.4521 -0.3586
16235TIP3    H170120   0.571   3.827  12.123 -0.3069 -1.0742  1.9002
16235TIP3    H270121   0.479   3.900  12.027  3.2984  0.9735 -0.2230
16236TIP3   OH270122   6.192   6.522   3.293 -0.0246 -0.1108  0.3308
16236TIP3    H170123   6.149   6.482   3.369  0.8915 -0.7672  0.5161
16236TIP3    H270124   6.278   6.549   3.325  0.0414  0.4029 -0.2552
16237TIP3   OH270125   2.895   5.136   1.687 -0.1832 -0.2919 -0.4282
16237TIP3    H170126   2.815   5.186   1.706  1.1042  0.5013  4.0108
16237TIP3    H270127   2.945   5.192   1.628 -2.0078  0.0682 -1.7214
16238TIP3   OH270128   3.120   5.189   3.952 -0.1428  0.1571  0.1084
16238TIP3    H170129   3.205   5.215   3.915 -0.4181 -1.6642 -2.0226
16238TIP3    H270130   3.059   5.202   3.880 -1.0976 -1.5854  0.5570
16239TIP3   OH270131   5.906   5.568   4.881  0.4195 -0.1964 -0.6047
16239TIP3    H170132   5.988   5.608   4.909 -1.0728  3.3244 -0.6371
16239TIP3    H270133   5.899   5.590   4.788 -1.3301  1.2784 -0.1868
16240TIP3   OH270134   5.475   3.506  12.603 -0.2681  0.4438  0.0364
16240TIP3    H170135   5.549   3.459  12.640 -0.2066  1.5443  1.3943
16240TIP3    H270136   5.404   3.495  12.667 -0.4107  1.6957  0.1255
16241TIP3   OH270137   4.078   2.407   0.130  0.1753  0.1102  0.4668
16241TIP3    H170138   4.082   2.311   0.134  0.3896  0.1382  1.1220
16241TIP3    H270139   3.985   2.426   0.119  0.0536 -0.1674  0.9527
16242TIP3   OH270140   3.212   0.733  12.373 -0.0383 -0.8324 -0.0407
16242TIP3    H170141   3.268   0.723  12.296 -1.5168 -0.4769 -1.2186
16242TIP3    H270142   3.144   0.666  12.361 -0.0974 -0.9962  1.1390
16243TIP3   OH270143   2.328   3.723   0.528  0.3087 -0.2990  0.0344
16243TIP3    H170144   2.371   3.786   0.586 -0.7380  2.4243 -1.9472
16243TIP3    H270145   2.396   3.699   0.465  0.3173  0.0181 -0.0797
16244TIP3   OH270146   4.877   0.951  11.527  0.3308 -0.0877  0.1442
16244TIP3    H170147   4.923   0.949  11.443  1.2245 -0.8506  0.6261
16244TIP3    H270148   4.888   1.041  11.558 -0.6310  0.4142 -0.8566
16245TIP3   OH270149   3.174   0.338   5.594  0.2463  0.1555  1.0826
16245TIP3    H170150   3.257   0.355   5.551 -0.3195  2.2818  0.7433
16245TIP3    H270151   3.176   0.390   5.674 -0.0813 -1.1474  1.9844
16246TIP3   OH270152   4.895   0.929  12.970  0.3314 -0.3447 -0.3253
16246TIP3    H170153   4.895   1.018  12.936 -3.1635 -0.6873 -1.5667
16246TIP3    H270154   4.958   0.931  13.043  2.2216  2.4129 -1.8614
16247TIP3   OH270155   3.346   4.807  12.381 -0.1883 -0.1365  0.0407
16247TIP3    H170156   3.321   4.899  12.383 -0.0556 -0.0838 -0.5643
16247TIP3    H270157   3.440   4.807  12.398 -0.2053 -0.1673  0.1340
16248TIP3   OH270158   0.459   5.069   1.487  0.2072 -0.4254  0.7399
16248TIP3    H170159   0.417   5.121   1.419 -0.9254 -0.5747  1.3044
16248TIP3    H270160   0.391   5.009   1.517  1.5189 -2.4154 -0.0328
16249TIP3   OH270161   1.058   1.173   4.032 -0.2130 -0.1944 -0.0613
16249TIP3    H170162   1.095   1.192   4.118 -0.9957 -0.0541  0.2528
16249TIP3    H270163   1.001   1.248   4.013 -0.9375 -0.7797 -0.1905
16250TIP3   OH270164   5.408   0.445   1.882 -0.4313  0.0280  0.3301
16250TIP3    H170165   5.436   0.389   1.954 -1.5129 -0.3820  0.4468
16250TIP3    H270166   5.447   0.530   1.901 -0.0680 -0.2786  0.9830
16251TIP3   OH270167   2.100   6.507   0.664 -0.4467  0.7389 -0.5796
16251TIP3    H170168   2.093   6.465   0.749  0.4089  0.6171 -0.5633
16251TIP3    H270169   2.023   6.564   0.659 -2.5953 -2.0135 -1.3021
16252TIP3   OH270170   2.544   3.041   5.260  0.4084  0.2462  0.0889
16252TIP3    H170171   2.512   2.982   5.192 -0.5891  0.2774  0.5107
16252TIP3    H270172   2.496   3.123   5.245 -0.2956  0.0621  1.1777
16253TIP3   OH270173   2.729   6.355   3.410 -0.1394  0.0549  0.2378
16253TIP3    H170174   2.769   6.278   3.450 -1.2842  0.0234  1.3791
16253TIP3    H270175   2.644   6.324   3.378  0.8516 -0.0251 -2.6715
16254TIP3   OH270176   3.607   3.009  11.670  0.6164 -0.0185 -0.1392
16254TIP3    H170177   3.687   3.042  11.629  0.2113  0.7608 -0.3039
16254TIP3    H270178   3.638   2.944  11.733  1.3400 -0.1608 -0.6224
16255TIP3   OH270179   4.288   6.286   5.129 -0.0013  0.0427  0.2835
16255TIP3    H170180   4.353   6.320   5.191 -0.5881 -1.9153  2.0953
16255TIP3    H270181   4.203   6.307   5.169 -0.4719  0.6770 -0.9872
16256TIP3   OH270182   4.014   3.594   0.220  0.0006 -0.1687 -0.4038
16256TIP3    H170183   4.083   3.536   0.189 -1.0840 -0.4590 -2.4966
16256TIP3    H270184   4.005   3.574   0.313  2.9326  0.1486  0.0229
16257TIP3   OH270185   2.897   3.046  15.446 -0.0399 -0.1202  0.5670
16257TIP3    H170186   2.974   2.990  15.459 -0.3051 -0.7303 -0.3877
16257TIP3    H270187   2.934   3.130  15.416  0.2939 -0.1983  0.7559
16258TIP3   OH270188   5.751   0.373   0.201 -0.2158 -0.3965  0.5191
16258TIP3    H170189   5.718   0.321   0.128 -0.2664  0.6892 -0.2681
16258TIP3    H270190   5.831   0.414   0.167  0.3764 -0.7485  1.4514
16259TIP3   OH270191   3.777   4.864  10.938  0.3870  0.0436  1.1847
16259TIP3    H170192   3.732   4.806  10.999  0.2390 -1.0345  0.0934
16259TIP3    H270193   3.868   4.837  10.941  0.3164 -0.2668  0.6626
16260TIP3   OH270194   4.582   2.817  11.849 -0.2293  0.6045 -0.4545
16260TIP3    H170195   4.636   2.819  11.928  0.8985 -0.7016 -1.1442
16260TIP3    H270196   4.493   2.832  11.881 -0.0282 -1.4505  1.3341
16261TIP3   OH270197   0.162   3.696   4.011  0.0265  0.1899 -0.0491
16261TIP3    H170198   0.216   3.722   3.936  2.2683  1.6380  1.9096
16261TIP3    H270199   0.097   3.765   4.018 -2.1374 -1.4532 -2.2964
16262TIP3   OH270200   4.158   6.472  13.933  0.4047  0.1560 -0.7644
16262TIP3    H170201   4.191   6.463  14.023  1.9821 -1.5422 -1.4576
16262TIP3    H270202   4.210   6.542  13.895 -0.2160  0.8286 -0.3968
16263TIP3   OH270203   5.616   0.701   5.171  0.6800 -0.2322 -0.6617
16263TIP3    H170204   5.625   0.662   5.257 -1.7441 -0.7189 -0.5583
16263TIP3    H270205   5.590   0.629   5.114 -2.2170  0.8044 -0.8098
16264TIP3   OH270206   3.258   3.402  14.476 -0.2453 -0.1817 -0.2305
16264TIP3    H170207   3.167   3.393  14.504  0.3845 -0.8911  1.7556
16264TIP3    H270208   3.259   3.481  14.422 -2.2043 -0.7456 -1.1711
16265TIP3   OH270209   4.920   4.749   5.191  0.3630  0.1101 -0.0543
16265TIP3    H170210   4.910   4.834   5.235  1.7459  0.4609 -0.3834
16265TIP3    H270211   4.842   4.742   5.136  0.6567  1.5898 -0.7000
16266TIP3   OH270212   3.869   0.517  16.498  0.2852  0.0490 -0.0213
16266TIP3    H170213   3.815   0.472  16.562  0.5779  1.0346  0.9585
16266TIP3    H270214   3.891   0.601  16.540  2.7054 -0.3695 -0.2925
16267TIP3   OH270215   6.744   4.926  14.840 -0.1414  0.1434  0.6700
16267TIP3    H170216   6.689   4.883  14.775  0.6244  3.6451 -2.6647
16267TIP3    H270217   6.683   4.957  14.907 -1.6788  0.5771 -0.8902
16268TIP3   OH270218   1.041   1.242  12.429 -0.3350 -0.5408 -0.7121
16268TIP3    H170219   1.032   1.257  12.335  1.0149 -1.9307 -1.0873
16268TIP3    H270220   1.135   1.236  12.444 -0.5024  0.1514  0.8280
16269TIP3   OH270221   0.020   1.676  14.902  0.4601  0.4533  0.0127
16269TIP3    H170222   0.017   1.618  14.978  1.5665  1.4494  0.8407
16269TIP3    H270223   0.064   1.754  14.933  2.8292  0.1033 -2.1808
16270TIP3   OH270224   2.102   1.830   5.296 -0.6846 -0.2599 -0.0383
16270TIP3    H170225   2.025   1.826   5.352 -0.8437 -0.8619 -0.2878
16270TIP3    H270226   2.175   1.845   5.355 -1.1943  2.6325  0.0321
16271TIP3   OH270227   4.946   6.052   0.248  0.0747  0.5243  0.4426
16271TIP3    H170228   5.019   6.111   0.269  0.9937 -1.6134  4.2084
16271TIP3    H270229   4.983   5.988   0.188 -0.1986  2.1346 -1.5489
16272TIP3   OH270230   5.246   3.437   0.364  0.2320 -0.3269  0.2460
16272TIP3    H170231   5.173   3.389   0.403 -0.4241 -0.6458 -1.3014
16272TIP3    H270232   5.204   3.507   0.313  0.7883 -1.9345 -2.6260
16273TIP3   OH270233   4.558   6.495   1.849  0.0845 -0.0480 -0.1532
16273TIP3    H170234   4.563   6.558   1.777  0.3640 -0.8381 -0.8419
16273TIP3    H270235   4.496   6.429   1.819  1.7226 -1.4803 -0.5784
16274TIP3   OH270236   3.099   2.626  14.206  0.5055 -0.5607 -0.7112
16274TIP3    H170237   3.040   2.573  14.259  1.0366 -3.0644 -2.4142
16274TIP3    H270238   3.045   2.655  14.132  0.5099  0.3806 -0.3624
16275TIP3   OH270239   0.764   4.191  14.546 -0.6273  0.0543 -0.5066
16275TIP3    H170240   0.684   4.210  14.595 -0.7594 -0.6428 -0.4432
16275TIP3    H270241   0.816   4.270  14.554 -1.6018  0.7841 -1.1256
16276TIP3   OH270242   1.387   1.292   1.815  0.7175 -0.0628 -0.5251
16276TIP3    H170243   1.363   1.299   1.908  1.3173 -2.0787 -0.1762
16276TIP3    H270244   1.308   1.259   1.772  1.3920 -2.3936 -0.1153
16277TIP3   OH270245   4.601   1.343  15.826 -0.3413 -0.2039  1.0132
16277TIP3    H170246   4.598   1.266  15.769 -0.0107  0.4055  0.1530
16277TIP3    H270247   4.510   1.372  15.833 -0.2970  0.1564  0.1705
16278TIP3   OH270248   5.306   3.990   5.189  1.1428 -0.0106 -0.2888
16278TIP3    H170249   5.267   3.904   5.176 -1.3442  1.0700 -0.6776
16278TIP3    H270250   5.325   3.995   5.282 -1.4786  0.0212  0.3148
16279TIP3   OH270251   5.037   2.558   5.202  0.1630  0.5306  0.6398
16279TIP3    H170252   4.961   2.506   5.176  0.3665  0.6475 -0.2216
16279TIP3    H270253   5.082   2.503   5.266  1.2244 -1.1187 -1.3706
16280TIP3   OH270254   2.186   3.375  13.098  0.4443 -0.3777 -0.7216
16280TIP3    H170255   2.124   3.301  13.100  0.6971 -0.5862  0.8405
16280TIP3    H270256   2.174   3.418  13.183  0.5377  1.2145 -1.4740
16281TIP3   OH270257   6.192   6.365  16.962 -0.3113 -0.3918 -0.3154
16281TIP3    H170258   6.154   6.382  16.876 -0.5736 -0.0602 -0.1371
16281TIP3    H270259   6.283   6.342  16.944 -0.8849 -2.4846 -0.8619
16282TIP3   OH270260   5.595   4.306   5.703  0.0292  0.0672 -0.0723
16282TIP3    H170261   5.587   4.333   5.611  0.2306  0.6990  0.0908
16282TIP3    H270262   5.526   4.242   5.715 -0.8688  0.9652 -0.3057
16283TIP3   OH270263   4.560   6.309   5.737 -0.5756 -0.0867 -0.6072
16283TIP3    H170264   4.580   6.402   5.739 -1.7961  0.1721  1.4326
16283TIP3    H270265   4.645   6.266   5.751 -0.3981  0.8066  1.2516
16284TIP3   OH270266   0.013   5.842  12.253  0.1000  0.1614  0.6178
16284TIP3    H170267   0.054   5.817  12.336 -0.4786  1.6827  1.4069
16284TIP3    H270268   0.036   5.934  12.242 -0.1814  0.0862 -0.7098
16285TIP3   OH270269   1.976   1.674   1.040 -0.1804 -0.2117 -0.7122
16285TIP3    H170270   2.022   1.620   0.976  0.2393  0.0154 -0.5998
16285TIP3    H270271   1.984   1.763   1.008  3.3400  0.4637  1.5468
16286TIP3   OH270272   3.735   0.532   2.034 -0.6045  0.3912  1.0465
16286TIP3    H170273   3.807   0.534   2.098  0.0579 -0.4755  0.3664
16286TIP3    H270274   3.774   0.567   1.954 -0.2903 -1.9472  0.0995
16287TIP3   OH270275   4.040   6.299  16.848  0.2579 -0.1022  0.0080
16287TIP3    H170276   4.005   6.239  16.914 -1.4365 -0.0757 -0.8166
16287TIP3    H270277   4.086   6.242  16.786  2.9591 -0.0276  1.7423
16288TIP3   OH270278   6.565   4.936   1.832  0.0962  0.7397 -0.0776
16288TIP3    H170279   6.600   4.851   1.861  2.5539  1.2031 -1.4022
16288TIP3    H270280   6.539   4.979   1.913  0.1860 -0.7085  0.7685
16289TIP3   OH270281   5.096   0.450   5.882 -0.1291 -0.4479  0.7247
16289TIP3    H170282   5.019   0.396   5.900 -0.0838 -0.1591  1.8052
16289TIP3    H270283   5.071   0.538   5.911  1.0785 -0.6092  2.3799
16290TIP3   OH270284   1.930   0.136  16.191  0.8770 -0.1318  0.6355
16290TIP3    H170285   1.957   0.227  16.196  1.9398 -0.3689 -0.4548
16290TIP3    H270286   2.009   0.086  16.212  0.6192 -0.8128  0.0264
16291TIP3   OH270287   3.726   2.083  16.863 -0.5634  0.5104  0.5876
16291TIP3    H170288   3.719   2.040  16.948 -1.6965 -0.6212 -0.0413
16291TIP3    H270289   3.765   2.017  16.806 -1.7392  0.5104 -0.2504
16292TIP3   OH270290   2.852   1.630   4.950 -0.4423  0.0942 -0.4198
16292TIP3    H170291   2.938   1.667   4.931  0.0249 -0.4563  0.5522
16292TIP3    H270292   2.827   1.584   4.870  0.9357 -1.1675 -0.1743
16293TIP3   OH270293   4.023   3.446   3.802 -0.4696  0.3353  0.1155
16293TIP3    H170294   4.074   3.433   3.883  0.2073 -0.8326 -0.4616
16293TIP3    H270295   3.960   3.374   3.802 -0.5462  0.4003 -0.3371
16294TIP3   OH270296   5.108   1.508   4.340 -0.0290 -0.0404  0.1299
16294TIP3    H170297   5.095   1.540   4.429  0.0824  1.1789 -0.2737
16294TIP3    H270298   5.128   1.587   4.289 -1.7147 -0.4688 -1.2856
16295TIP3   OH270299   3.364   6.345  11.465  0.3216  0.2400 -0.0167
16295TIP3    H170300   3.426   6.360  11.536  1.9442 -0.6714 -1.1761
16295TIP3    H270301   3.332   6.432  11.442  0.2926  0.6122  1.3228
16296TIP3   OH270302   1.576   3.181  12.641 -0.0839 -0.2777 -0.1010
16296TIP3    H170303   1.566   3.261  12.693 -1.7913 -0.9168  0.6364
16296TIP3    H270304   1.581   3.211  12.551 -0.7180  0.6857  0.1642
16297TIP3   OH270305   5.263   2.233   4.629  0.7360  0.4006 -0.4593
16297TIP3    H170306   5.203   2.211   4.558  0.5149 -0.0127 -0.1452
16297TIP3    H270307   5.268   2.154   4.682  1.7425  0.3457 -0.6080
16298TIP3   OH270308   2.160   5.052  13.479  0.5349 -0.3680  0.2119
16298TIP3    H170309   2.157   5.023  13.570  0.5088 -1.6227 -0.1646
16298TIP3    H270310   2.186   4.974  13.430 -2.3320 -0.5549 -1.2016
16299TIP3   OH270311   2.546   5.507   3.330 -0.1670 -0.1731  0.0705
16299TIP3    H170312   2.617   5.454   3.366 -1.5993 -0.6381  2.4619
16299TIP3    H270313   2.545   5.586   3.384 -0.1800  0.7905 -1.2903
16300TIP3   OH270314   6.479   3.474  11.323 -0.3939 -0.1880  0.3538
16300TIP3    H170315   6.491   3.387  11.361  0.8560  0.6324  1.9471
16300TIP3    H270316   6.540   3.530  11.370 -1.9423  1.7944  0.1696
16301TIP3   OH270317   5.261   1.830  17.074 -0.4768 -0.0341  0.3604
16301TIP3    H170318   5.281   1.800  16.986 -1.3034 -1.7629  0.7224
16301TIP3    H270319   5.165   1.826  17.080 -0.6219  2.3808  0.5802
16302TIP3   OH270320   6.088   4.803  16.428 -0.2458 -0.1187  0.4684
16302TIP3    H170321   6.060   4.714  16.407 -0.5099  0.6337 -2.7701
16302TIP3    H270322   6.022   4.859  16.387  1.3672  1.5917  0.1198
16303TIP3   OH270323   4.773   0.126  12.038 -0.5124  0.8915 -0.0843
16303TIP3    H170324   4.721   0.047  12.052  1.0858  0.0521  1.4985
16303TIP3    H270325   4.808   0.148  12.124  1.8967  1.2749 -1.0637
16304TIP3   OH270326   3.478   0.252   5.764 -0.7061  0.1033  0.3564
16304TIP3    H170327   3.474   0.339   5.723  1.2145  0.2721  0.4521
16304TIP3    H270328   3.449   0.267   5.854 -1.5904  0.3797  0.0431
16305TIP3   OH270329   2.248   1.692  13.235 -0.4874  0.5604 -0.4506
16305TIP3    H170330   2.241   1.785  13.257  2.2602  1.3880 -2.4748
16305TIP3    H270331   2.294   1.691  13.151  1.0948 -2.6948  0.3081
16306TIP3   OH270332   3.517   3.734   0.897 -0.2817  0.2338  0.0030
16306TIP3    H170333   3.453   3.664   0.888 -0.9809  0.7474  0.8112
16306TIP3    H270334   3.556   3.719   0.984  1.3530 -0.5891 -0.8167
16307TIP3   OH270335   5.770   1.744  11.095  0.0471 -0.5956  0.0494
16307TIP3    H170336   5.675   1.738  11.103  0.0249 -0.2104  0.0919
16307TIP3    H270337   5.785   1.782  11.009  0.1717 -0.8760 -0.0551
16308TIP3   OH270338   5.874   3.308  15.711  0.0590  0.4529  0.0077
16308TIP3    H170339   5.950   3.284  15.658  0.6811  0.6161  0.8053
16308TIP3    H270340   5.799   3.291  15.654  0.7256  1.3250 -1.2028
16309TIP3   OH270341   3.962   5.124  15.807 -0.1133 -0.0413 -0.1429
16309TIP3    H170342   3.950   5.118  15.712  1.5198 -0.6658 -0.3324
16309TIP3    H270343   4.013   5.046  15.830 -0.1077  0.3292  1.1912
16310TIP3   OH270344   2.485   0.239   4.243  0.1837 -0.3308 -0.1034
16310TIP3    H170345   2.548   0.287   4.297 -2.2138  1.0891  1.6308
16310TIP3    H270346   2.474   0.294   4.165 -0.2363  0.3720  0.4403
16311TIP3   OH270347   1.777   1.977  11.425  0.1498 -0.1153 -0.0149
16311TIP3    H170348   1.720   2.042  11.465 -1.5846 -0.5249 -1.6929
16311TIP3    H270349   1.817   2.023  11.351 -1.1450 -0.8976 -1.2592
16312TIP3   OH270350   0.393   0.477   0.922 -0.1443 -0.6547  0.1201
16312TIP3    H170351   0.366   0.429   1.000  0.6717  0.2462  0.9927
16312TIP3    H270352   0.488   0.485   0.930  0.1899 -1.9356 -1.7994
16313TIP3   OH270353   3.671   2.112  16.319 -0.5131 -0.3275 -0.1125
16313TIP3    H170354   3.581   2.111  16.287  0.2346  0.5404 -2.4192
16313TIP3    H270355   3.706   2.026  16.297 -0.4664 -0.2939 -0.1695
16314TIP3   OH270356   0.129   0.480  15.371  0.3419  0.8897 -0.7598
16314TIP3    H170357   0.178   0.437  15.300  0.3792  2.1626 -1.5503
16314TIP3    H270358   0.188   0.476  15.446  1.1161  1.1913 -1.3305
16315TIP3   OH270359   1.420   0.220  15.790 -0.4658  0.0008 -0.1634
16315TIP3    H170360   1.374   0.242  15.871 -0.9487 -1.1514 -0.1117
16315TIP3    H270361   1.464   0.301  15.766 -0.7661  0.5239  0.9502
16316TIP3   OH270362   5.855   4.902   5.816  0.1710  0.2927 -0.1007
16316TIP3    H170363   5.825   4.904   5.907 -0.1939  0.0424 -0.2127
16316TIP3    H270364   5.798   4.964   5.771 -0.8084 -0.8681 -0.4965
16317TIP3   OH270365   2.695   4.569  12.708 -0.3906  0.4210  0.4726
16317TIP3    H170366   2.615   4.564  12.656 -1.8793  0.1489  2.6326
16317TIP3    H270367   2.687   4.651  12.757  0.3964  0.1432  1.0991
16318TIP3   OH270368   1.029   1.152   1.911 -0.2808 -0.4189 -0.0796
16318TIP3    H170369   0.998   1.062   1.902 -0.1397 -0.4394 -0.3556
16318TIP3    H270370   0.952   1.201   1.942  0.0544 -0.9366  1.6914
16319TIP3   OH270371   2.617   3.672  11.488 -0.7868  0.4966  0.0625
16319TIP3    H170372   2.561   3.652  11.413 -2.9521  1.0689  1.4497
16319TIP3    H270373   2.600   3.765  11.507  1.3943  0.9725 -0.0402
16320TIP3   OH270374   6.619   1.620  15.619 -0.8408 -0.0213  0.3095
16320TIP3    H170375   6.592   1.642  15.530 -1.2683 -1.0552  0.1645
16320TIP3    H270376   6.540   1.583  15.659 -0.3152 -0.7345  0.7093
16321TIP3   OH270377   2.011   1.282  16.264  0.0049 -0.1332 -0.3850
16321TIP3    H170378   1.937   1.244  16.217 -0.3318 -0.6892  0.5641
16321TIP3    H270379   2.064   1.324  16.196 -1.5251  0.8780 -1.0173
16322TIP3   OH270380   6.606   3.830   5.704 -0.4124 -0.0175  0.3810
16322TIP3    H170381   6.699   3.854   5.703 -0.1793 -0.7983 -2.0614
16322TIP3    H270382   6.605   3.741   5.741 -0.4838  0.7418  2.3639
16323TIP3   OH270383   5.146   6.757   0.856  0.2342 -0.0094 -0.4251
16323TIP3    H170384   5.067   6.792   0.815 -0.3791 -1.0716 -0.1966
16323TIP3    H270385   5.209   6.829   0.852 -1.0217  1.1795  0.1959
16324TIP3   OH270386   3.645   1.130   0.419 -0.0420  0.2967 -0.6211
16324TIP3    H170387   3.722   1.106   0.369  0.0704  0.9772 -0.7792
16324TIP3    H270388   3.590   1.051   0.418 -0.4227  0.5435 -2.5113
16325TIP3   OH270389   5.216   4.001  16.283  0.0179  0.2409  0.3616
16325TIP3    H170390   5.263   4.076  16.246  0.2050  0.0910  0.2898
16325TIP3    H270391   5.258   3.925  16.242  0.1646  0.0775  0.8094
16326TIP3   OH270392   4.170   2.132  15.309  0.0503 -0.7284  0.0140
16326TIP3    H170393   4.259   2.163  15.324  0.5997 -2.6665  1.2425
16326TIP3    H270394   4.119   2.168  15.382  0.0887 -0.5219 -0.0631
16327TIP3   OH270395   5.292   1.804   3.127 -0.6663  0.2990 -0.0733
16327TIP3    H170396   5.280   1.757   3.210  0.6882  0.6030  0.3170
16327TIP3    H270397   5.204   1.831   3.102 -1.3441 -1.4386  0.2875
16328TIP3   OH270398   2.574   5.122   5.554 -0.3364 -0.0241  0.0069
16328TIP3    H170399   2.486   5.124   5.590  0.4740 -1.1240  2.2410
16328TIP3    H270400   2.611   5.207   5.577 -0.2092 -0.2842  0.8027
16329TIP3   OH270401   4.365   5.958  14.936 -0.2583 -0.3249 -0.0204
16329TIP3    H170402   4.384   5.981  14.845 -1.8181 -0.4406 -0.4044
16329TIP3    H270403   4.413   6.022  14.987 -1.4212  1.4143 -1.0014
16330TIP3   OH270404   5.785   5.804  12.891 -0.0183 -0.8411 -0.6622
16330TIP3    H170405   5.798   5.719  12.932 -4.3159 -1.5942 -0.3794
16330TIP3    H270406   5.749   5.783  12.805  0.9925  0.7741 -1.5318
16331TIP3   OH270407   0.133   3.660   1.565  0.1949  0.1856  0.0430
16331TIP3    H170408   0.130   3.722   1.492  0.4521  0.3627  0.1802
16331TIP3    H270409   0.188   3.588   1.533  1.6217  0.9807  0.5959
16332TIP3   OH270410   4.701   5.544   2.302  0.8631 -0.4710  0.3222
16332TIP3    H170411   4.621   5.504   2.267 -0.4231  1.9072  0.2878
16332TIP3    H270412   4.763   5.541   2.229 -0.0334 -0.2006 -0.4772
16333TIP3   OH270413   4.804   4.553  10.849 -0.4810  0.1154  0.3981
16333TIP3    H170414   4.801   4.459  10.829  0.7341  0.2959 -0.7636
16333TIP3    H270415   4.842   4.593  10.771 -0.3892  1.5104  1.1286
16334TIP3   OH270416   1.205   3.964   1.352  0.2341 -0.4408 -0.3145
16334TIP3    H170417   1.274   4.019   1.315 -0.6293 -0.1887 -1.5776
16334TIP3    H270418   1.252   3.905   1.412  1.2573  1.2583  0.6527
16335TIP3   OH270419   5.847   3.870  14.229  0.3963 -0.1648  0.0799
16335TIP3    H170420   5.816   3.922  14.155 -0.9574 -0.0326  0.6883
16335TIP3    H270421   5.879   3.789  14.190  0.2400  0.1392 -0.7005
16336TIP3   OH270422   4.211   6.438  12.867  0.5568  0.2785 -0.1436
16336TIP3    H170423   4.117   6.437  12.849  0.4350  1.7387  0.2838
16336TIP3    H270424   4.252   6.424  12.782 -0.0265 -1.0712 -0.2302
16337TIP3   OH270425   1.808   5.585  13.294 -0.4215  0.0435 -0.2535
16337TIP3    H170426   1.891   5.572  13.339 -0.9248 -0.0326  0.6821
16337TIP3    H270427   1.744   5.592  13.365 -1.3520 -0.8584 -0.9854
16338TIP3   OH270428   0.368   4.488   5.336 -0.8102 -0.1066 -0.1732
16338TIP3    H170429   0.414   4.568   5.309 -0.5585 -0.5545 -1.0837
16338TIP3    H270430   0.420   4.456   5.410 -1.3920  1.0135  0.7654
16339TIP3   OH270431   2.476   6.768  13.664 -0.5794  0.2985  0.2827
16339TIP3    H170432   2.535   6.748  13.736 -0.6614 -1.5815 -0.1001
16339TIP3    H270433   2.421   6.689  13.656 -0.9275  0.6734 -1.4746
16340TIP3   OH270434   6.062   5.825   5.270  0.5514  0.0873  0.3208
16340TIP3    H170435   6.063   5.732   5.292 -2.4555  0.0675  0.9204
16340TIP3    H270436   6.019   5.829   5.184  0.3985  0.9091  0.4260
16341TIP3   OH270437   3.779   0.086   0.148  0.3772  0.2763 -0.2136
16341TIP3    H170438   3.772   0.039   0.230 -1.3310 -0.6503 -0.8415
16341TIP3    H270439   3.867   0.067   0.116  0.2999 -1.1209  0.3617
16342TIP3   OH270440   5.534   1.005   4.674  0.4254 -0.1696 -0.3931
16342TIP3    H170441   5.555   1.073   4.610 -2.1756  1.5873  0.4705
16342TIP3    H270442   5.608   1.005   4.734  0.6950  1.6376 -0.6726
16343TIP3   OH270443   1.633   5.159   1.604 -1.0244 -0.7880 -0.1880
16343TIP3    H170444   1.722   5.157   1.639 -0.5385 -0.9272 -1.3800
16343TIP3    H270445   1.577   5.161   1.681  0.0435  1.2964  0.6195
16344TIP3   OH270446   2.970   4.324  17.218  0.1360  0.1823 -0.3955
16344TIP3    H170447   2.988   4.315  17.311 -1.6332 -0.2823 -0.0481
16344TIP3    H270448   2.876   4.342  17.214 -0.0865 -1.1194 -2.1331
16345TIP3   OH270449   4.948   3.881   5.288 -0.3035  0.0513 -0.2734
16345TIP3    H170450   5.010   3.857   5.220  0.3708 -0.3681  0.4712
16345TIP3    H270451   4.961   3.816   5.357 -1.5804 -0.0473 -0.1003
16346TIP3   OH270452   5.317   2.026  11.175  0.5988 -0.1560 -0.3797
16346TIP3    H170453   5.300   2.034  11.081 -1.0539 -1.1086 -0.2075
16346TIP3    H270454   5.243   2.071  11.217  1.8181  1.1181  0.4935
16347TIP3   OH270455   1.820   0.450   4.314 -0.3995  0.1840 -0.4054
16347TIP3    H170456   1.751   0.479   4.374 -0.1402 -0.0781  0.0224
16347TIP3    H270457   1.892   0.510   4.328 -0.3369  0.1208 -0.4529
16348TIP3   OH270458   6.124   5.458  13.998  0.3680  0.2807  0.0174
16348TIP3    H170459   6.099   5.537  14.045  2.0008 -0.3045  2.0392
16348TIP3    H270460   6.105   5.386  14.059  2.5253 -0.5165 -0.1380
16349TIP3   OH270461   2.708   4.439   0.634  0.2102  0.1745  0.3366
16349TIP3    H170462   2.736   4.358   0.677  1.2454  0.7607  0.7906
16349TIP3    H270463   2.715   4.419   0.540 -1.4837 -0.9059  0.3968
16350TIP3   OH270464   0.937   5.741   1.149 -0.1878 -0.3160  0.1609
16350TIP3    H170465   0.873   5.682   1.189 -0.7598  0.4482  0.3755
16350TIP3    H270466   0.886   5.814   1.115  0.4698 -0.1469 -0.5055
16351TIP3   OH270467   1.486   1.833  13.355  0.4008  0.0247  0.5939
16351TIP3    H170468   1.556   1.836  13.290 -1.7373 -1.7201 -1.9990
16351TIP3    H270469   1.489   1.744  13.390 -0.9723 -0.3555 -0.1750
16352TIP3   OH270470   2.127   5.394   2.973 -0.5685 -0.1300 -0.3838
16352TIP3    H170471   2.165   5.461   2.916  0.2344 -0.2940 -0.0657
16352TIP3    H270472   2.135   5.313   2.923  0.4223 -0.3261  0.0610
16353TIP3   OH270473   4.843   5.722   3.731  0.0727  0.0846  0.5761
16353TIP3    H170474   4.866   5.632   3.708 -0.1898 -0.0654  0.8948
16353TIP3    H270475   4.914   5.775   3.695  1.0021 -0.3840  1.6636
16354TIP3   OH270476   5.993   4.047  12.149  0.4866 -0.3653 -0.3482
16354TIP3    H170477   5.914   4.054  12.095 -0.9882 -1.6639  1.5024
16354TIP3    H270478   6.024   3.958  12.131  1.9100  0.3231 -1.4802
16355TIP3   OH270479   6.121   1.867  16.610 -0.5003  0.0751  0.5124
16355TIP3    H170480   6.069   1.811  16.552  1.2837 -0.6560 -0.4398
16355TIP3    H270481   6.146   1.941  16.555 -0.7060  0.5387  1.0367
16356TIP3   OH270482   0.306   3.950  16.547  0.5018  0.4821  0.0557
16356TIP3    H170483   0.334   3.898  16.471  3.1390  2.5493 -0.5219
16356TIP3    H270484   0.272   4.031  16.509  1.1194  1.2120  1.0092
16357TIP3   OH270485   0.416   0.071  15.419  0.2295  0.0020 -0.2525
16357TIP3    H170486   0.386   0.033  15.502  0.6490 -0.4035 -0.2803
16357TIP3    H270487   0.367   0.024  15.352  0.3258 -0.0863 -0.2611
16358TIP3   OH270488   0.002   5.152  14.597 -0.2337 -0.2682 -0.0009
16358TIP3    H170489  -0.048   5.074  14.621 -1.6201  0.7904  0.6317
16358TIP3    H270490  -0.044   5.225  14.639  2.0865  0.7292  1.0275
16359TIP3   OH270491   0.266   2.662  15.497 -0.0908  0.2851 -0.2919
16359TIP3    H170492   0.185   2.686  15.452 -1.4848  0.7752  2.2935
16359TIP3    H270493   0.248   2.577  15.537  1.4431 -0.5904 -1.3362
16360TIP3   OH270494   5.127   5.070   1.512  0.4005 -0.1171 -0.0074
16360TIP3    H170495   5.217   5.101   1.496 -0.0106  1.1762  0.0346
16360TIP3    H270496   5.104   5.109   1.597  0.1260 -1.2317  0.4445
16361TIP3   OH270497   4.781   0.707  13.077  0.7399  0.0658 -0.3942
16361TIP3    H170498   4.730   0.763  13.134  1.3119  0.1617  0.0349
16361TIP3    H270499   4.818   0.765  13.011  0.7761  0.0914 -0.3518
16362TIP3   OH270500   5.256   0.451   5.603  0.3205 -0.1773  0.6508
16362TIP3    H170501   5.250   0.458   5.698  0.3213  1.6726  0.5446
16362TIP3    H270502   5.165   0.457   5.573  0.3110 -0.8482  0.5154
16363TIP3   OH270503   0.195   4.380  17.253  0.2241 -0.3210 -0.3576
16363TIP3    H170504   0.161   4.310  17.308  0.9585 -0.4227 -0.0182
16363TIP3    H270505   0.205   4.340  17.167 -1.0379 -0.1289 -0.6099
16364TIP3   OH270506   6.393   0.874  14.893  0.3482  0.6382  0.2649
16364TIP3    H170507   6.434   0.957  14.917 -1.6069  1.2719  1.6951
16364TIP3    H270508   6.382   0.828  14.976  0.3518 -0.5610 -0.3743
16365TIP3   OH270509   4.641   5.161  14.269 -0.1643  0.0721 -0.0221
16365TIP3    H170510   4.599   5.083  14.232  0.5348  0.1373 -0.9961
16365TIP3    H270511   4.728   5.130  14.297  0.0099  0.4356 -0.1592
16366TIP3   OH270512   0.680   5.202  10.974  0.0649 -0.6553 -0.0395
16366TIP3    H170513   0.602   5.239  10.935 -0.7979 -0.7208  1.5454
16366TIP3    H270514   0.670   5.218  11.068  1.1525 -2.1249  0.3682
16367TIP3   OH270515   4.504   0.959  16.003 -0.4310  0.1885 -0.7368
16367TIP3    H170516   4.423   0.970  16.053  0.5667 -0.5883  1.1355
16367TIP3    H270517   4.478   0.907  15.927 -1.4190 -1.6370  0.7518
16368TIP3   OH270518   0.594   2.743  14.299 -0.2375 -0.4025  0.0788
16368TIP3    H170519   0.685   2.728  14.274 -0.6827 -0.8200 -1.3475
16368TIP3    H270520   0.543   2.704  14.229 -1.5166  1.1734  0.0672
16369TIP3   OH270521   5.792   2.967  15.072 -0.2267 -0.6381 -0.1519
16369TIP3    H170522   5.731   2.959  14.999  0.7668 -0.5192 -1.0070
16369TIP3    H270523   5.850   3.038  15.047  0.5301 -1.0289  0.4607
16370TIP3   OH270524   5.220   4.326  12.101  0.1394 -0.3678  0.0538
16370TIP3    H170525   5.293   4.354  12.155 -0.7336 -0.0526  1.1013
16370TIP3    H270526   5.212   4.394  12.034  0.3959 -0.0715  0.3238
16371TIP3   OH270527   2.903   5.417   1.850  0.3537  0.1837  0.3153
16371TIP3    H170528   2.860   5.347   1.899  0.3303  0.2777  0.4305
16371TIP3    H270529   2.973   5.447   1.907  1.5264 -0.9657 -0.4742
16372TIP3   OH270530   4.004   5.088   6.962 -0.1946  0.1592 -0.1845
16372TIP3    H170531   4.079   5.120   6.912 -1.0518  0.4683 -1.3197
16372TIP3    H270532   3.956   5.166   6.988  0.6137  0.0459  1.8000
16373TIP3   OH270533   4.298   4.261   3.776 -0.7778 -0.5329  0.4759
16373TIP3    H170534   4.225   4.319   3.797  1.1546  1.9553  0.8279
16373TIP3    H270535   4.285   4.235   3.685 -1.7851  0.3516  0.3620
16374TIP3   OH270536   0.922   4.960  12.981 -0.3624 -0.1937 -0.0250
16374TIP3    H170537   0.925   4.880  12.927 -0.0704 -0.7750  0.8271
16374TIP3    H270538   0.865   4.937  13.054 -0.0484  0.2851  0.3762
16375TIP3   OH270539   6.603   0.342  16.024  0.8597  0.0230 -0.4616
16375TIP3    H170540   6.605   0.433  15.994  0.4038  0.1385 -0.1534
16375TIP3    H270541   6.512   0.327  16.048  1.1647 -0.1260  0.6624
16376TIP3   OH270542   3.501   0.579   3.600 -0.0431  0.4096  0.5531
16376TIP3    H170543   3.487   0.591   3.506 -3.6072  0.7919  0.9817
16376TIP3    H270544   3.596   0.567   3.609  0.4712  0.6532 -3.0127
16377TIP3   OH270545   0.759   4.551  11.439  0.9557 -0.0439 -0.5497
16377TIP3    H170546   0.719   4.518  11.519 -0.1622  1.0125 -0.6532
16377TIP3    H270547   0.815   4.623  11.468 -0.4401  1.1856 -0.8239
16378TIP3   OH270548   3.820   3.688  10.766 -0.1589 -0.2058  0.1932
16378TIP3    H170549   3.832   3.769  10.816 -2.7066  0.2949  0.1293
16378TIP3    H270550   3.901   3.639  10.781  1.4207  2.2352  0.3692
16379TIP3   OH270551   2.828   6.166  14.885 -0.0807  0.2997  0.0416
16379TIP3    H170552   2.905   6.113  14.905 -0.2824 -0.1260 -0.3060
16379TIP3    H270553   2.755   6.105  14.888 -0.0495 -0.0401 -2.9215
16380TIP3   OH270554   0.423   6.369  14.632  0.3202 -0.2118  0.0755
16380TIP3    H170555   0.373   6.288  14.632  0.2588 -0.2239  2.0950
16380TIP3    H270556   0.380   6.424  14.698  0.8918  1.1315 -0.6251
16381TIP3   OH270557   3.782   1.797   5.572  0.6439  0.8281  0.1094
16381TIP3    H170558   3.863   1.816   5.524  2.0680  0.0008  2.0744
16381TIP3    H270559   3.784   1.858   5.646  0.2200 -0.1938  0.9704
16382TIP3   OH270560   4.558   4.397  12.654  0.9157  0.0112 -0.0267
16382TIP3    H170561   4.541   4.483  12.692  0.2678  0.5149 -1.3744
16382TIP3    H270562   4.653   4.387  12.660  0.7988 -0.2421  2.2697
16383TIP3   OH270563   4.917   6.124  12.793  0.1281 -0.0619  0.2211
16383TIP3    H170564   4.975   6.189  12.752 -0.6647  0.3215 -0.3043
16383TIP3    H270565   4.976   6.069  12.844  0.9378  0.4497 -0.1414
16384TIP3   OH270566   6.209   3.458  11.426 -0.1107 -0.0519  0.0241
16384TIP3    H170567   6.165   3.417  11.352 -1.0621 -0.9119  1.0419
16384TIP3    H270568   6.299   3.474  11.394 -0.4261 -0.6107 -1.2161
16385TIP3   OH270569   5.396   4.738   4.993 -0.3223 -0.2013 -0.1068
16385TIP3    H170570   5.324   4.701   5.044 -1.5243 -0.0664 -1.6518
16385TIP3    H270571   5.396   4.688   4.911 -0.0116  1.1753 -0.9785
16386TIP3   OH270572   5.895   1.086  13.845  0.6619 -0.2762 -0.2004
16386TIP3    H170573   5.911   1.153  13.777 -0.9670 -0.8257 -1.1774
16386TIP3    H270574   5.918   1.003  13.802  1.0190 -0.5186  0.4388
16387TIP3   OH270575   2.188   1.843   4.629 -0.0741  0.0504  0.0834
16387TIP3    H170576   2.266   1.844   4.573  0.7174  0.3566  1.1582
16387TIP3    H270577   2.222   1.824   4.717 -1.2200  0.1479  0.5635
16388TIP3   OH270578   4.732   2.523   5.176 -0.0282 -0.0372  0.2208
16388TIP3    H170579   4.747   2.432   5.200 -2.3557 -0.4088  0.5386
16388TIP3    H270580   4.734   2.570   5.259 -0.1371 -0.0229  0.2155
16389TIP3   OH270581   5.033   2.344  12.093 -0.0076 -0.3239  0.4958
16389TIP3    H170582   4.999   2.424  12.053  0.0719 -0.4678  0.1444
16389TIP3    H270583   5.021   2.276  12.027 -0.0635 -0.6039  0.7875
16390TIP3   OH270584   5.876   4.261  13.738 -0.1855 -0.1344 -0.3687
16390TIP3    H170585   5.793   4.294  13.772 -0.1683 -1.8319  1.4871
16390TIP3    H270586   5.870   4.274  13.643 -1.5080  2.0127 -0.0557
16391TIP3   OH270587   4.369   5.082  12.635 -0.0226  0.2654 -0.3116
16391TIP3    H170588   4.374   5.063  12.541  0.9911  0.9811 -0.4154
16391TIP3    H270589   4.439   5.145  12.650 -1.0334  1.1906  0.6857
16392TIP3   OH270590   4.864   4.030   0.437  0.6282  0.2222  0.1445
16392TIP3    H170591   4.841   4.100   0.376  0.3089  0.7531  0.8507
16392TIP3    H270592   4.823   3.952   0.402 -0.0943  0.6535  0.0166
16393TIP3   OH270593   4.698   2.834  14.872 -0.7275 -0.2586  0.1787
16393TIP3    H170594   4.625   2.772  14.878 -0.2276 -0.9018 -0.2560
16393TIP3    H270595   4.672   2.895  14.803 -0.7919 -0.5710 -0.0742
16394TIP3   OH270596   6.538   6.227  14.548  0.4330 -0.6315 -0.6301
16394TIP3    H170597   6.624   6.233  14.590 -0.1444  0.2354  0.4887
16394TIP3    H270598   6.499   6.313  14.561 -0.0732 -0.5767 -2.3529
16395TIP3   OH270599   2.704   5.960  16.726  0.0886  0.6626  0.3886
16395TIP3    H170600   2.704   6.055  16.738 -1.0561  0.5903  1.1644
16395TIP3    H270601   2.729   5.925  16.811  0.1635  0.2657  0.2054
16396TIP3   OH270602   3.780   0.932  12.293  0.0142  0.1199 -0.0118
16396TIP3    H170603   3.714   0.898  12.232 -0.2244  1.6328 -0.6522
16396TIP3    H270604   3.837   0.987  12.239  1.5551 -0.8041  0.6191
16397TIP3   OH270605   0.893   2.576   5.748 -0.2229  0.0959  0.2557
16397TIP3    H170606   0.859   2.487   5.740 -0.8106  0.3131  0.2272
16397TIP3    H270607   0.956   2.585   5.676 -1.8550  0.4464 -1.2020
16398TIP3   OH270608   4.828   4.656  11.319 -0.3520  0.4655  0.2866
16398TIP3    H170609   4.868   4.641  11.233 -1.0372  0.9788 -0.1335
16398TIP3    H270610   4.790   4.571  11.342 -1.2589  0.6343 -0.5128
16399TIP3   OH270611   3.995   5.384   4.815  0.1861  0.1995 -0.0692
16399TIP3    H170612   3.956   5.313   4.866 -2.4566  0.3370 -1.7332
16399TIP3    H270613   3.982   5.462   4.868 -3.9347  0.6061 -1.3324
16400TIP3   OH270614   3.410   6.124   0.056 -0.2515 -0.3291  0.0962
16400TIP3    H170615   3.361   6.115   0.138 -0.4433 -1.6430 -0.1362
16400TIP3    H270616   3.466   6.200   0.070 -1.7962  0.7491  0.6532
16401TIP3   OH270617   3.924   6.257  14.451 -0.0155 -0.8916 -0.5295
16401TIP3    H170618   3.835   6.225  14.434  1.1331 -4.5605 -0.4282
16401TIP3    H270619   3.921   6.292  14.540 -1.8084  1.2194 -1.3344
16402TIP3   OH270620   0.245   6.634  17.244  0.3001  0.5219  0.3391
16402TIP3    H170621   0.315   6.613  17.306  0.4886  2.4855  0.8478
16402TIP3    H270622   0.264   6.579  17.168  2.5409  1.1066  0.3902
16403TIP3   OH270623   1.922   0.159   5.724 -0.4103  0.2464 -0.6581
16403TIP3    H170624   2.005   0.160   5.770 -0.9672 -2.0953  0.5241
16403TIP3    H270625   1.860   0.198   5.785 -0.5368  0.2542 -0.7891
16404TIP3   OH270626   0.988   1.800  13.481  0.1799  0.5858 -0.2447
16404TIP3    H170627   0.969   1.882  13.434 -0.0275  0.8565  0.2996
16404TIP3    H270628   0.937   1.733  13.436  1.2363  0.5426 -1.4088
16405TIP3   OH270629   5.730   5.686   1.477  0.4389 -0.3067  0.6677
16405TIP3    H170630   5.656   5.638   1.441  2.0553 -1.6186 -1.0498
16405TIP3    H270631   5.761   5.742   1.406  1.8880 -0.7469  0.9103
16406TIP3   OH270632   2.934   1.457  16.296 -0.2841 -0.3153  0.2137
16406TIP3    H170633   2.999   1.401  16.255 -0.4582  0.7493 -1.6451
16406TIP3    H270634   2.972   1.544  16.295 -1.7549  0.3727 -1.1144
16407TIP3   OH270635   2.697   1.831  12.210  0.2538  0.2227 -0.3241
16407TIP3    H170636   2.766   1.894  12.187  0.9839 -0.6697 -0.6250
16407TIP3    H270637   2.737   1.775  12.276  0.4115 -1.3516 -1.6924
16408TIP3   OH270638   5.960   1.688  14.712 -0.0827 -0.3121 -0.4802
16408TIP3    H170639   6.042   1.675  14.758  0.3934  3.2833  0.0002
16408TIP3    H270640   5.984   1.739  14.635 -1.7714  0.2278 -0.6842
16409TIP3   OH270641   6.131   3.391   0.634  0.1421 -0.1543 -0.1697
16409TIP3    H170642   6.099   3.310   0.596 -1.0268 -0.2232  0.9236
16409TIP3    H270643   6.155   3.445   0.558 -3.1360  0.1380 -1.1244
16410TIP3   OH270644   2.795   4.494  15.843  0.0727 -0.1151  0.4386
16410TIP3    H170645   2.729   4.552  15.880  0.0033  0.3684 -0.4038
16410TIP3    H270646   2.803   4.523  15.752  1.1216 -0.4577  0.4115
16411TIP3   OH270647   2.402   2.922  14.512 -0.5485 -0.0101 -0.2082
16411TIP3    H170648   2.493   2.894  14.518 -0.6497 -0.0611  2.0824
16411TIP3    H270649   2.355   2.844  14.482 -0.2970 -1.2384  2.3289
16412TIP3   OH270650   5.594   0.133   4.188  0.0978 -0.1269 -0.1125
16412TIP3    H170651   5.511   0.103   4.225  0.0117 -0.1501 -0.3218
16412TIP3    H270652   5.584   0.227   4.178 -1.9613 -0.5793 -5.0254
16413TIP3   OH270653   6.085   3.957   2.681 -0.1488  0.2479  0.1297
16413TIP3    H170654   5.999   3.982   2.647 -0.2163 -0.4780 -0.2461
16413TIP3    H270655   6.092   4.003   2.765  0.0880  2.2196 -0.9020
16414TIP3   OH270656   1.032   4.933   1.620  0.6648 -0.4628  0.1600
16414TIP3    H170657   1.108   4.911   1.673  0.6664 -1.0815 -0.0865
16414TIP3    H270658   0.958   4.927   1.680  1.1143  4.0512  1.4647
16415TIP3   OH270659   1.668   0.309   3.592  0.8565  0.1453  0.1339
16415TIP3    H170660   1.574   0.309   3.608  1.0090 -0.0900  1.0525
16415TIP3    H270661   1.681   0.377   3.525 -0.2032 -1.1621 -1.4903
16416TIP3   OH270662   4.951   3.875   3.347 -0.0468 -0.0218  0.3125
16416TIP3    H170663   4.867   3.856   3.303  0.2973  1.2938 -1.0205
16416TIP3    H270664   4.931   3.949   3.405  0.4987  1.5281 -1.3589
16417TIP3   OH270665   2.251   6.435  14.178  0.2055  0.0521  0.1686
16417TIP3    H170666   2.299   6.517  14.167  0.0055 -0.0620 -1.9007
16417TIP3    H270667   2.159   6.459  14.167  0.2303 -0.6041 -1.7749
16418TIP3   OH270668   0.450   0.557  15.302  0.3840  0.3243  0.3184
16418TIP3    H170669   0.441   0.511  15.386 -1.0123  1.6192  0.9172
16418TIP3    H270670   0.389   0.512  15.244  2.6353 -1.7362 -0.6038
16419TIP3   OH270671   2.202   0.671  13.890 -0.0087 -0.6337 -0.1752
16419TIP3    H170672   2.249   0.604  13.839 -0.3573 -1.0433  0.0350
16419TIP3    H270673   2.267   0.739  13.905  0.0900 -0.4798 -1.2172
16420TIP3   OH270674   4.824   5.227  14.545 -0.2611 -0.4881 -0.0196
16420TIP3    H170675   4.861   5.314  14.558  0.3649 -0.6183 -0.8030
16420TIP3    H270676   4.865   5.173  14.612 -0.3472 -0.2717  0.2116
16421TIP3   OH270677   1.417   1.817  16.370  0.2063  0.5119  0.4148
16421TIP3    H170678   1.490   1.791  16.313  1.0241 -0.3375  1.7972
16421TIP3    H270679   1.357   1.743  16.366 -1.4521  1.8413 -1.9714
16422TIP3   OH270680   1.499   2.213  10.595  0.7972  0.4479  0.0084
16422TIP3    H170681   1.439   2.276  10.555  0.9224  0.6516  0.1393
16422TIP3    H270682   1.586   2.238  10.562  1.0403  1.2499  1.1815
16423TIP3   OH270683   5.316   3.509  11.030 -0.3882 -0.2528 -0.0896
16423TIP3    H170684   5.393   3.538  10.981 -0.7020  3.5850  1.3602
16423TIP3    H270685   5.244   3.516  10.967 -0.2317  0.9432 -0.1581
16424TIP3   OH270686   3.492   1.387  11.404 -0.5149 -0.2385  0.3528
16424TIP3    H170687   3.539   1.304  11.410 -2.1033 -1.2876 -0.9851
16424TIP3    H270688   3.526   1.428  11.325 -0.7445 -0.3010  0.2192
16425TIP3   OH270689   0.543   5.349   2.575  0.1710  1.1341  0.3682
16425TIP3    H170690   0.632   5.325   2.601  0.1512  0.2916 -0.2931
16425TIP3    H270691   0.538   5.443   2.590  1.8409  1.5608 -1.4703
16426TIP3   OH270692   6.541   1.438  11.886  0.4502 -0.3253 -0.9626
16426TIP3    H170693   6.450   1.438  11.913  1.3713  0.0618  2.5350
16426TIP3    H270694   6.555   1.350  11.850 -0.7429 -1.2496  0.6929
16427TIP3   OH270695   3.208   1.687   3.687 -0.1787  0.4928 -0.1079
16427TIP3    H170696   3.234   1.772   3.720  0.7580 -0.1394  0.8617
16427TIP3    H270697   3.290   1.637   3.682 -1.1155 -1.8655  3.8643
16428TIP3   OH270698   1.100   5.083   1.367  0.4243  0.4922 -0.2742
16428TIP3    H170699   1.106   5.016   1.298 -1.2472  0.4763 -0.4287
16428TIP3    H270700   1.136   5.040   1.444  0.1233 -0.3215 -0.5672
16429TIP3   OH270701   4.660   3.235   0.536 -0.3462 -0.2710  0.0257
16429TIP3    H170702   4.754   3.234   0.558 -0.1427  1.5106 -0.5968
16429TIP3    H270703   4.629   3.318   0.571 -1.8921 -1.1642  0.8620
16430TIP3   OH270704   2.919   0.503  13.317  0.0677  0.2920  0.1049
16430TIP3    H170705   2.916   0.577  13.257  0.5274  0.9856  0.9219
16430TIP3    H270706   3.010   0.499  13.345 -0.2771  0.4082  1.2792
16431TIP3   OH270707   2.325   0.454   3.285 -0.4628 -0.4156  0.0700
16431TIP3    H170708   2.273   0.521   3.330  1.8364  0.2652  1.9281
16431TIP3    H270709   2.405   0.500   3.260  0.8744 -2.2569  0.7500
16432TIP3   OH270710   4.901   1.945  15.447  0.0737  0.3614  0.0669
16432TIP3    H170711   4.858   2.016  15.399  0.7553  0.2679 -0.7006
16432TIP3    H270712   4.832   1.910  15.504 -0.1085  2.0227  0.9254
16433TIP3   OH270713   3.009   6.376   6.297  0.2597  0.0351 -0.1431
16433TIP3    H170714   3.004   6.416   6.211  1.6276  0.1233 -0.2100
16433TIP3    H270715   2.927   6.400   6.340  1.3667  3.8619  0.2048
16434TIP3   OH270716   5.766   6.766  12.913  0.1507 -0.3193 -0.6339
16434TIP3    H170717   5.777   6.861  12.912  0.9193 -0.3778  0.6294
16434TIP3    H270718   5.735   6.746  13.001 -0.6600 -1.1830 -1.1008
16435TIP3   OH270719   5.100   1.695   4.940 -0.2488 -0.1879  0.5316
16435TIP3    H170720   5.126   1.742   5.019 -1.6199 -0.7074  1.3244
16435TIP3    H270721   5.047   1.758   4.891  1.3584  0.4495 -0.4723
16436TIP3   OH270722   0.594   1.454  16.322 -0.3265  0.8722 -0.1222
16436TIP3    H170723   0.635   1.368  16.318  1.5624  1.7242 -0.5091
16436TIP3    H270724   0.582   1.471  16.416 -0.1381  0.4366 -0.0193
16437TIP3   OH270725   4.723   5.333   5.457 -0.5698  0.1457 -0.3278
16437TIP3    H170726   4.630   5.358   5.462 -0.8822 -0.8340 -1.0515
16437TIP3    H270727   4.726   5.267   5.388  0.7258  0.4007 -0.5276
16438TIP3   OH270728   5.779   4.078  11.962 -0.2125 -0.3480 -0.2800
16438TIP3    H170729   5.763   4.042  11.875  0.7197 -1.6604  0.0533
16438TIP3    H270730   5.696   4.118  11.987 -0.7365 -0.6672 -1.4341
16439TIP3   OH270731   4.814   5.435   3.905 -0.1762 -0.2558 -0.2536
16439TIP3    H170732   4.886   5.485   3.944  0.7981 -0.0322 -2.2299
16439TIP3    H270733   4.855   5.355   3.874 -0.5376  0.2903 -2.2628
16440TIP3   OH270734   3.745   6.081  10.687  0.0488  0.0175 -0.3792
16440TIP3    H170735   3.715   6.021  10.755 -0.1569  0.0653 -0.4281
16440TIP3    H270736   3.806   6.029  10.635 -1.0435 -0.5290 -1.1510
16441TIP3   OH270737   4.921   4.567  16.363  0.0571  0.1207  0.2600
16441TIP3    H170738   4.931   4.483  16.408 -1.0268  0.6399  1.5598
16441TIP3    H270739   4.828   4.589  16.373  0.0061  0.7719 -1.3688
16442TIP3   OH270740   3.502   0.287   2.733 -0.1660 -0.0356  0.0232
16442TIP3    H170741   3.454   0.260   2.655 -0.6564 -2.0366  0.9587
16442TIP3    H270742   3.433   0.310   2.796  0.1583 -0.5614  0.5788
16443TIP3   OH270743   4.561   1.747   3.253  0.1080 -0.0619 -0.0708
16443TIP3    H170744   4.609   1.692   3.192  0.2342  0.7158 -0.6869
16443TIP3    H270745   4.483   1.774   3.205  0.2629  0.6475  0.0661
16444TIP3   OH270746   4.592   0.598   2.202  0.3998 -0.0381  0.1253
16444TIP3    H170747   4.673   0.638   2.171 -1.0467  1.8768 -1.4883
16444TIP3    H270748   4.595   0.508   2.168  0.5019  0.9359 -2.6824
16445TIP3   OH270749   0.178   4.494  14.356 -0.0691 -0.5540  0.2249
16445TIP3    H170750   0.182   4.576  14.405  0.0187 -0.2241 -0.3194
16445TIP3    H270751   0.103   4.505  14.297  1.1855 -0.0029 -1.3440
16446TIP3   OH270752   2.628   2.903   0.511  0.1298  0.0952  0.5618
16446TIP3    H170753   2.554   2.917   0.452  0.9557 -0.1342 -0.5751
16446TIP3    H270754   2.600   2.939   0.595 -1.2973 -0.0842  0.1818
16447TIP3   OH270755   5.847   4.653  12.945  0.7406 -0.2493  0.0191
16447TIP3    H170756   5.779   4.600  12.902  0.6251  0.1497 -0.2905
16447TIP3    H270757   5.822   4.743  12.927  1.2230 -0.0955  0.1093
16448TIP3   OH270758   2.195   0.321  11.894  0.2453  0.0258  0.3785
16448TIP3    H170759   2.204   0.226  11.880  1.2654  0.0889  0.5459
16448TIP3    H270760   2.261   0.342  11.960 -0.3430  0.7709  0.7475
16449TIP3   OH270761   3.198   6.591  11.431  0.4746 -0.3760  0.4162
16449TIP3    H170762   3.291   6.607  11.447  0.8204 -0.7743 -1.1009
16449TIP3    H270763   3.157   6.602  11.517  1.5907  2.0159  0.7160
16450TIP3   OH270764   0.838   2.553  16.725 -0.2230 -0.3949  0.1531
16450TIP3    H170765   0.863   2.574  16.815  0.5805  0.3283 -0.2214
16450TIP3    H270766   0.748   2.586  16.717 -0.1386 -0.0546  0.5585
16451TIP3   OH270767   6.417   2.568  14.632  0.6563 -0.0784 -0.0035
16451TIP3    H170768   6.503   2.526  14.623  1.2679  1.0314  0.4743
16451TIP3    H270769   6.436   2.659  14.655 -0.6481  0.0134  0.8722
16452TIP3   OH270770   4.906   4.838   2.992 -0.2189  0.0555  0.2464
16452TIP3    H170771   4.816   4.818   2.965  0.3515 -1.8698 -0.3356
16452TIP3    H270772   4.951   4.859   2.910  0.3133 -0.8528  0.3046
16453TIP3   OH270773   4.816   3.366   2.429  0.3616 -0.2669  0.5674
16453TIP3    H170774   4.723   3.364   2.449  0.3181  0.3066  0.4368
16453TIP3    H270775   4.831   3.288   2.375  0.0318 -0.5554  0.8957
16454TIP3   OH270776   5.430   2.885  12.683 -0.1020 -0.1968  0.3799
16454TIP3    H170777   5.354   2.928  12.644 -1.0961 -2.4700 -0.3242
16454TIP3    H270778   5.502   2.905  12.623 -1.0858 -1.5199 -1.3191
16455TIP3   OH270779   0.606   1.665  14.091  0.0972  0.0751  0.1184
16455TIP3    H170780   0.513   1.647  14.074  0.1064  0.5692 -0.4959
16455TIP3    H270781   0.606   1.733  14.158  0.0377 -0.7270  0.9497
16456TIP3   OH270782   1.119   1.705  14.049 -0.0426 -0.0886 -0.4284
16456TIP3    H170783   1.040   1.666  14.086 -0.9009  1.0728 -0.9909
16456TIP3    H270784   1.098   1.797  14.037  2.2190  0.8282  1.6826
16457TIP3   OH270785   2.968   1.958  15.468 -0.8055  0.0177 -0.3184
16457TIP3    H170786   2.875   1.963  15.493 -0.4967 -0.5288  1.0098
16457TIP3    H270787   2.977   1.872  15.428 -0.1267 -1.5954  3.0217
16458TIP3   OH270788   5.361   5.183   1.771 -0.2640 -0.1397 -0.4373
16458TIP3    H170789   5.331   5.238   1.843  0.8098 -1.1938  0.8623
16458TIP3    H270790   5.326   5.225   1.692 -2.5780  0.3496  0.7493
16459TIP3   OH270791   0.181   6.769  12.655 -0.1316 -0.1137  0.2585
16459TIP3    H170792   0.126   6.758  12.733 -0.7110  2.4700  0.3192
16459TIP3    H270793   0.123   6.812  12.591  1.0186  0.0456 -0.7150
16460TIP3   OH270794   2.280   2.285  16.872  0.7225 -0.3764  0.5449
16460TIP3    H170795   2.225   2.208  16.854 -1.2829  0.3223  3.0932
16460TIP3    H270796   2.227   2.359  16.843  1.6945  0.1991  0.1781
16461TIP3   OH270797   0.183   2.717   3.694  0.3077  0.2406 -0.5656
16461TIP3    H170798   0.141   2.799   3.721  0.3930 -0.1539  0.8393
16461TIP3    H270799   0.112   2.664   3.661 -0.4910 -0.5767  2.1685
16462TIP3   OH270800   0.320   3.730  13.295 -0.0072 -0.3196  0.6293
16462TIP3    H170801   0.314   3.794  13.224  0.7468 -0.6860  0.2260
16462TIP3    H270802   0.374   3.772  13.361  1.0943 -0.7946  0.0584
16463TIP3   OH270803   2.685   1.979  10.223 -0.6496 -0.4786  0.5678
16463TIP3    H170804   2.756   1.945  10.278  1.1319 -0.0545 -1.3404
16463TIP3    H270805   2.728   2.042  10.165 -2.7043  0.1777 -0.3178
16464TIP3   OH270806   0.674   2.431  14.284  0.1358 -0.3058  0.2805
16464TIP3    H170807   0.594   2.379  14.281 -1.0705  1.3248  1.9607
16464TIP3    H270808   0.698   2.432  14.377 -0.9157  3.4661  0.6732
16465TIP3   OH270809   6.306   3.320   0.309 -0.0754  0.2339 -0.6075
16465TIP3    H170810   6.249   3.268   0.367 -0.8281 -0.5378 -1.9874
16465TIP3    H270811   6.273   3.410   0.318  0.5493  0.3389  0.9875
16466TIP3   OH270812   2.982   0.305   0.308 -0.1290 -0.3792  0.1865
16466TIP3    H170813   3.053   0.277   0.365  0.0933  0.6204  0.4297
16466TIP3    H270814   2.936   0.225   0.285  0.8985 -1.0072  0.2618
16467TIP3   OH270815   3.026   5.955  14.896  0.1910  0.2375  0.3222
16467TIP3    H170816   3.009   5.905  14.976 -0.2390  0.4269  0.3526
16467TIP3    H270817   2.967   5.917  14.831 -0.8270  1.2958  0.5888
16468TIP3   OH270818   1.028   4.379   1.024 -0.2132  0.0257  0.2275
16468TIP3    H170819   0.980   4.461   1.016  0.6508  0.4373 -1.1747
16468TIP3    H270820   1.031   4.344   0.935  0.6716 -0.7885  0.5553
16469TIP3   OH270821   1.862   1.714  16.162 -0.7995  0.3162 -0.4132
16469TIP3    H170822   1.816   1.633  16.183 -1.6583  0.9860  0.3588
16469TIP3    H270823   1.793   1.779  16.153 -0.1326  0.9248 -1.2554
16470TIP3   OH270824   2.208   3.755  11.801 -0.6897  0.2398  0.7249
16470TIP3    H170825   2.193   3.703  11.880  0.2783  0.8433  1.3307
16470TIP3    H270826   2.135   3.817  11.799 -0.6768  0.2771  1.1963
16471TIP3   OH270827   1.497   1.474  15.782  0.0423 -0.0173 -0.6714
16471TIP3    H170828   1.446   1.521  15.717 -2.7303 -0.4410  1.0049
16471TIP3    H270829   1.464   1.506  15.866  0.1500 -2.7095  0.5175
16472TIP3   OH270830   4.342   1.415   1.615  0.4723 -0.6372 -0.1108
16472TIP3    H170831   4.277   1.427   1.684  0.3078  0.3899 -0.4395
16472TIP3    H270832   4.341   1.321   1.598  0.2823 -0.8664  1.0545
16473TIP3   OH270833   4.775   1.763  12.024  0.5602  0.2171  0.1499
16473TIP3    H170834   4.782   1.674  12.058 -1.1223  0.1699  0.4416
16473TIP3    H270835   4.733   1.753  11.938  0.6730  0.7139  0.0318
16474TIP3   OH270836   1.936   6.037   3.985 -0.2256 -0.4373  0.8167
16474TIP3    H170837   1.920   6.130   4.002 -0.2667 -0.4166  0.6698
16474TIP3    H270838   2.022   6.034   3.943  0.0687 -0.5288  1.4128
16475TIP3   OH270839   3.083   3.070  12.636  0.2727  0.0012 -0.1606
16475TIP3    H170840   3.001   3.094  12.594  0.9519  1.6429 -0.6551
16475TIP3    H270841   3.151   3.102  12.576  1.2583 -0.3656  0.7308
16476TIP3   OH270842   5.647   3.378   0.383 -0.0040 -0.0961  0.2261
16476TIP3    H170843   5.662   3.376   0.288 -1.1393  0.1639  0.0271
16476TIP3    H270844   5.724   3.423   0.418  1.2933 -1.7594 -0.3643
16477TIP3   OH270845   0.851   6.416  15.168 -0.1658  0.3081  0.1651
16477TIP3    H170846   0.781   6.480  15.161 -0.8495 -0.2632  1.5455
16477TIP3    H270847   0.897   6.422  15.083 -1.5980  0.9823 -0.5971
16478TIP3   OH270848   1.848   1.499  14.085 -0.8666  0.0510  0.2086
16478TIP3    H170849   1.772   1.518  14.140 -0.3021  0.4084  0.8875
16478TIP3    H270850   1.839   1.407  14.062 -0.4402 -0.4912  2.0113
16479TIP3   OH270851   4.071   4.316   4.663 -0.1067  0.2333  0.0416
16479TIP3    H170852   4.034   4.265   4.591 -0.0983 -0.4605  0.5114
16479TIP3    H270853   3.995   4.353   4.707 -0.1822 -0.1978  0.2857
16480TIP3   OH270854   6.567   0.976   1.055 -0.0843  1.2516  0.7470
16480TIP3    H170855   6.506   0.989   1.127 -0.3431  3.2720  0.2314
16480TIP3    H270856   6.525   1.018   0.980  2.5409  4.2663  0.7279
16481TIP3   OH270857   6.290   6.395  12.719 -0.0214 -0.0206 -0.2885
16481TIP3    H170858   6.345   6.317  12.716 -0.0023 -0.0255  0.1477
16481TIP3    H270859   6.319   6.447  12.644  0.9843  0.2447  0.2599
16482TIP3   OH270860   2.685   0.908   5.392  0.0756 -0.6538  0.1183
16482TIP3    H170861   2.715   0.959   5.468  0.8829 -2.9020  1.4129
16482TIP3    H270862   2.613   0.855   5.426 -1.2362  0.0862 -1.3802
16483TIP3   OH270863   5.550   5.730  13.116  0.2643  0.0746  0.0278
16483TIP3    H170864   5.638   5.714  13.084 -0.2245  0.5147 -1.6535
16483TIP3    H270865   5.562   5.768  13.203  1.7125 -0.1399 -0.0568
16484TIP3   OH270866   3.538   5.143  12.442  0.1855  0.5708  0.1274
16484TIP3    H170867   3.619   5.172  12.399  0.2952 -1.0639 -0.8224
16484TIP3    H270868   3.556   5.053  12.469 -1.0112  0.4988  0.7703
16485TIP3   OH270869   0.387   3.771   6.589 -0.3028 -0.0664 -0.2595
16485TIP3    H170870   0.463   3.792   6.644 -0.4265  0.5301 -0.3067
16485TIP3    H270871   0.398   3.679   6.567  0.8374  0.2028 -0.9049
16486TIP3   OH270872   6.365   0.757   6.519 -0.1954 -0.4971 -0.3299
16486TIP3    H170873   6.392   0.845   6.494  2.6300 -1.1304  0.1332
16486TIP3    H270874   6.421   0.735   6.593 -0.5300 -2.8445 -0.7006
16487TIP3   OH270875   1.408   0.075   5.678  0.6078 -0.0624 -0.0761
16487TIP3    H170876   1.430   0.002   5.735  3.9142 -0.7401 -1.9459
16487TIP3    H270877   1.317   0.060   5.653  0.7860 -2.8221  0.6355
16488TIP3   OH270878   1.094   3.972   2.670  0.0355 -0.5012 -0.0271
16488TIP3    H170879   1.118   3.944   2.582 -0.8372 -0.1692 -0.3781
16488TIP3    H270880   1.056   3.894   2.710  0.8629 -0.7813  0.2221
16489TIP3   OH270881   3.394   2.172   2.531  0.0678 -0.9186 -0.7014
16489TIP3    H170882   3.337   2.203   2.601  0.4263  0.5646 -1.0093
16489TIP3    H270883   3.482   2.193   2.562  0.2423 -0.5116 -1.4485
16490TIP3   OH270884   6.423   6.224   2.556 -0.0789  0.1314  0.2571
16490TIP3    H170885   6.483   6.298   2.551 -0.1117  0.0758 -1.7393
16490TIP3    H270886   6.352   6.247   2.497  0.1009 -1.6272 -0.7144
16491TIP3   OH270887   5.866   5.448  16.773 -0.3822  0.2455 -0.1460
16491TIP3    H170888   5.846   5.395  16.850  0.1716 -1.4498 -1.1154
16491TIP3    H270889   5.954   5.482  16.790 -0.5955  0.5729  0.3222
16492TIP3   OH270890   2.933   0.658   2.852  0.0845  0.2765 -0.1639
16492TIP3    H170891   3.003   0.682   2.912 -0.8675  1.5225  0.4969
16492TIP3    H270892   2.884   0.590   2.899  1.4026 -1.3787 -1.0603
16493TIP3   OH270893   3.124   6.424   0.383 -0.5247  0.5347 -0.6736
16493TIP3    H170894   3.035   6.455   0.366 -1.1430 -0.7616  0.0718
16493TIP3    H270895   3.125   6.335   0.349  0.2141  0.2164  0.1523
16494TIP3   OH270896   0.426   3.576  11.826 -0.1143 -0.0398  0.5150
16494TIP3    H170897   0.454   3.542  11.741  0.5993 -2.1926  1.5412
16494TIP3    H270898   0.495   3.636  11.852  0.4179 -0.5189  0.2319
16495TIP3   OH270899   4.366   1.118   1.569 -0.1542  0.8101 -0.6001
16495TIP3    H170900   4.372   1.046   1.632 -0.9785  0.7838 -0.5408
16495TIP3    H270901   4.436   1.101   1.506  0.4794  0.6632  0.1283
16496TIP3   OH270902   5.134   0.845   0.419 -0.2264 -0.5668  0.0897
16496TIP3    H170903   5.061   0.906   0.430 -0.6782 -1.2601  1.1085
16496TIP3    H270904   5.119   0.805   0.333 -0.1761  0.4041 -0.3887
16497TIP3   OH270905   0.908   3.348   3.726  0.3658 -0.2307  0.2756
16497TIP3    H170906   0.972   3.391   3.782  2.0745 -0.6115 -1.3156
16497TIP3    H270907   0.959   3.295   3.665 -1.2481  1.1655 -2.5507
16498TIP3   OH270908   4.903   0.726   3.642 -0.1466 -0.5895  0.3395
16498TIP3    H170909   4.855   0.668   3.583  1.3633 -1.0986 -0.4601
16498TIP3    H270910   4.874   0.814   3.619 -1.0170 -0.8969  0.2122
16499TIP3   OH270911   1.775   4.999  17.273 -0.0079 -0.1953  0.2867
16499TIP3    H170912   1.825   5.029  17.197 -1.6362 -0.0256 -0.7597
16499TIP3    H270913   1.841   4.990  17.343  1.0842  2.6046 -0.2307
16500TIP3   OH270914   5.099   3.243  16.280  0.4962  0.4266  0.1716
16500TIP3    H170915   5.111   3.210  16.191 -1.4465  0.7043 -0.2542
16500TIP3    H270916   5.011   3.280  16.280  0.9411  1.6134  1.8701
16501TIP3   OH270917   3.680   1.201   1.998 -0.0911  0.3555  0.2445
16501TIP3    H170918   3.739   1.198   1.923  0.3705  2.6110  0.4670
16501TIP3    H270919   3.732   1.164   2.070  0.1777  0.0663 -0.0940
16502TIP3   OH270920   0.729   5.093   4.159 -0.1842 -0.2123  0.7856
16502TIP3    H170921   0.788   5.050   4.098  0.3453  1.2502  0.2009
16502TIP3    H270922   0.783   5.113   4.236  0.0211  0.8244  0.3888
16503TIP3   OH270923   1.722   2.973  12.999  0.0138 -0.2752  0.4715
16503TIP3    H170924   1.798   2.984  13.056  1.5647 -1.7081 -1.2166
16503TIP3    H270925   1.752   2.999  12.912 -0.1195 -4.4082 -1.0292
16504TIP3   OH270926   1.489   2.584   3.931 -0.0041 -0.2498 -0.5037
16504TIP3    H170927   1.428   2.650   3.964  0.9714  2.0201 -2.9282
16504TIP3    H270928   1.434   2.524   3.881 -0.8966 -1.4198  1.7164
16505TIP3   OH270929   5.614   3.565   3.179 -0.0248  0.2601  0.4143
16505TIP3    H170930   5.582   3.475   3.186 -0.8775  0.4975 -0.2258
16505TIP3    H270931   5.547   3.617   3.223 -0.0925  0.6834 -0.1849
16506TIP3   OH270932   3.328   3.057  12.255  0.3098 -0.7042 -0.3402
16506TIP3    H170933   3.285   3.011  12.183 -1.4183 -3.2923  2.1166
16506TIP3    H270934   3.399   2.998  12.282 -0.4856 -0.9122  1.4278
16507TIP3   OH270935   0.509   6.204   6.258 -0.0220  0.1065 -0.4481
16507TIP3    H170936   0.504   6.182   6.164  1.4376  0.9429 -0.7497
16507TIP3    H270937   0.599   6.233   6.271  0.5278 -2.2179  1.7237
16508TIP3   OH270938   2.029   0.905  11.217 -0.2950 -0.1970 -0.1849
16508TIP3    H170939   2.122   0.883  11.217 -0.2990 -0.2167 -0.0125
16508TIP3    H270940   2.003   0.899  11.309 -0.6229 -0.8571 -0.3102
16509TIP3   OH270941   1.869   4.299  12.451 -0.4488  0.5691  0.3948
16509TIP3    H170942   1.946   4.355  12.465 -0.6937  2.1632 -3.2726
16509TIP3    H270943   1.796   4.361  12.452 -0.7940  0.4052 -3.1634
16510TIP3   OH270944   4.160   3.049   4.194  0.1635  0.1331  0.2613
16510TIP3    H170945   4.155   2.960   4.229  1.5527 -0.0737 -0.0190
16510TIP3    H270946   4.126   3.104   4.266 -0.7846 -0.5998  0.4045
16511TIP3   OH270947   5.681   6.487   4.062 -0.6224  0.3536 -1.0871
16511TIP3    H170948   5.755   6.518   4.114 -1.0344 -0.6485  0.1369
16511TIP3    H270949   5.715   6.482   3.972  1.2847 -1.5857 -0.3322
16512TIP3   OH270950   3.049   2.626   4.771  0.3693  0.2880 -0.2444
16512TIP3    H170951   3.075   2.716   4.790 -1.2436  0.6492  0.4519
16512TIP3    H270952   2.975   2.610   4.830  1.2239 -1.8234  0.3266
16513TIP3   OH270953   5.436   3.133   5.816 -0.0385  0.1342 -0.5755
16513TIP3    H170954   5.480   3.203   5.769  1.5044  0.4579  1.2254
16513TIP3    H270955   5.351   3.171   5.840 -0.5643  0.1993 -2.3856
16514TIP3   OH270956   5.093   5.562   5.765 -0.1394  0.4631 -0.1562
16514TIP3    H170957   5.026   5.584   5.830 -0.2482  1.7508 -0.6732
16514TIP3    H270958   5.120   5.646   5.729 -0.6306 -0.2388 -2.3218
16515TIP3   OH270959   6.600   6.010   4.305 -0.5602  0.6675 -0.3430
16515TIP3    H170960   6.627   5.952   4.234 -0.7166  0.0456  0.0981
16515TIP3    H270961   6.506   6.023   4.291 -0.4640  1.0810 -0.6267
16516TIP3   OH270962   6.467   0.403   0.910 -0.8014  0.8218  0.9775
16516TIP3    H170963   6.552   0.401   0.954  0.7235  2.2535 -1.6455
16516TIP3    H270964   6.437   0.312   0.911  2.9244 -0.6706 -1.7768
16517TIP3   OH270965   1.690   4.827  16.266 -0.2451 -0.5321 -0.0444
16517TIP3    H170966   1.699   4.783  16.350  1.0348  1.1277  0.7467
16517TIP3    H270967   1.723   4.915  16.281  1.7099 -0.6775 -2.6966
16518TIP3   OH270968   2.673   0.575   1.782  0.0510 -0.2586  0.4214
16518TIP3    H170969   2.696   0.659   1.821  0.3310 -0.1202 -0.0498
16518TIP3    H270970   2.756   0.528   1.775 -0.0398 -0.3887  0.2317
16519TIP3   OH270971   3.804   4.955  12.048 -0.6168  0.0250 -0.0960
16519TIP3    H170972   3.852   4.999  11.979  1.2306 -0.4985  0.8056
16519TIP3    H270973   3.833   4.996  12.129 -0.7261 -1.1453  0.5687
16520TIP3   OH270974   0.661   6.491  13.941  0.4612  0.2955  0.1211
16520TIP3    H170975   0.642   6.500  13.848 -0.0492  2.3549  0.3711
16520TIP3    H270976   0.713   6.411  13.948  0.0837 -0.1626 -1.8528
16521TIP3   OH270977   3.502   2.602  15.632 -0.4038  0.1027  0.1347
16521TIP3    H170978   3.523   2.684  15.589 -1.6048  0.4356  0.1620
16521TIP3    H270979   3.463   2.628  15.716 -1.3567 -0.4686 -0.1137
16522TIP3   OH270980   2.433   2.215  10.774  0.2631 -0.2109 -0.6375
16522TIP3    H170981   2.347   2.242  10.805 -0.1828 -0.4303 -1.6507
16522TIP3    H270982   2.486   2.295  10.775 -0.0235 -0.0275 -0.2516
16523TIP3   OH270983   3.578   1.466  14.614  0.1786 -0.5551 -0.0958
16523TIP3    H170984   3.559   1.372  14.616 -0.7570 -0.4155 -1.3464
16523TIP3    H270985   3.527   1.502  14.686 -1.1494 -0.7482 -0.9048
16524TIP3   OH270986   4.159   1.266   2.571  0.2307  0.7683  0.1345
16524TIP3    H170987   4.192   1.319   2.644 -1.2396 -0.4999  1.8080
16524TIP3    H270988   4.186   1.314   2.493  0.7243  2.9125  1.5241
16525TIP3   OH270989   5.780   4.393  14.990  0.5232  0.0158  0.1829
16525TIP3    H170990   5.753   4.406  14.899  1.2519  0.2233 -0.0110
16525TIP3    H270991   5.814   4.478  15.017  1.0778 -0.2605  0.3762
16526TIP3   OH270992   1.925   2.341  10.789  0.0399  0.3471  0.0224
16526TIP3    H170993   1.983   2.329  10.714  0.1928 -0.4550  0.2584
16526TIP3    H270994   1.984   2.340  10.865 -0.3898 -2.0002  0.3877
16527TIP3   OH270995   6.197   4.540  14.157  0.0780 -0.1332 -0.0561
16527TIP3    H170996   6.192   4.635  14.152 -0.5163 -0.2086 -1.8712
16527TIP3    H270997   6.194   4.511  14.065 -1.0135 -1.9474  0.4800
16528TIP3   OH270998   1.400   0.470   4.196 -0.5027 -0.1192 -0.0342
16528TIP3    H170999   1.421   0.560   4.222  0.2142 -0.0785 -0.7322
16528TIP3    H271000   1.312   0.477   4.157 -1.3058 -0.0686  1.6839
16529TIP3   OH271001   3.509   3.197  14.772  0.7757  1.1631  0.4748
16529TIP3    H171002   3.569   3.156  14.834 -0.1500  1.4662  1.5996
16529TIP3    H271003   3.488   3.128  14.709  2.4816  1.1263 -0.0914
16530TIP3   OH271004   3.171   4.749  15.819  0.9818 -0.3420  0.1195
16530TIP3    H171005   3.265   4.762  15.832  1.2899 -0.0990 -1.9328
16530TIP3    H271006   3.130   4.805  15.885  2.3085  1.1458 -0.2327
16531TIP3   OH271007   0.989   3.307   4.466 -0.1448 -0.5563  0.3330
16531TIP3    H171008   1.055   3.298   4.535 -0.4507 -1.0939  0.5644
16531TIP3    H271009   0.972   3.401   4.461  0.0064 -0.4942  0.8741
16532TIP3   OH271010   2.611   5.068  14.609 -0.0845 -0.4910  0.3570
16532TIP3    H171011   2.624   4.996  14.547 -0.4217 -2.2594  2.2547
16532TIP3    H271012   2.695   5.077  14.654 -0.2085 -0.0619  0.5055
16533TIP3   OH271013   3.102   5.705   4.175 -0.2217  0.1508  0.4647
16533TIP3    H171014   3.191   5.738   4.168 -0.0802 -0.3250 -0.0279
16533TIP3    H271015   3.110   5.610   4.168 -0.7559  0.0992  0.4891
16534TIP3   OH271016   1.633   0.945   0.861  0.0013 -0.3874  0.5107
16534TIP3    H171017   1.675   0.938   0.947  0.0841 -3.1294  0.3509
16534TIP3    H271018   1.562   1.008   0.875  0.7925  0.2064  2.2323
16535TIP3   OH271019   6.140   4.830  15.183 -0.0497 -0.5732  0.3734
16535TIP3    H171020   6.116   4.765  15.249 -1.9904 -2.1650 -1.7178
16535TIP3    H271021   6.212   4.790  15.134 -1.8039 -1.7003 -1.4643
16536TIP3   OH271022   5.866   3.933  13.090  0.0139 -0.0534 -0.4059
16536TIP3    H171023   5.846   3.971  13.004  1.6752  0.0050 -0.7981
16536TIP3    H271024   5.957   3.959  13.107 -0.1006 -0.5745  1.1032
16537TIP3   OH271025   5.813   3.240   6.459  0.1868  0.3486 -0.3349
16537TIP3    H171026   5.831   3.333   6.449  0.7759  0.2587 -0.1192
16537TIP3    H271027   5.759   3.234   6.537 -0.5627  0.5903 -0.8269
16538TIP3   OH271028   1.548   0.293  11.191  0.7215  0.7350  0.5079
16538TIP3    H171029   1.613   0.241  11.238  0.2990  0.5969  0.9465
16538TIP3    H271030   1.541   0.251  11.105  0.7662  0.3874  0.6754
16539TIP3   OH271031   6.358   4.205  13.647 -0.4784 -0.0785 -0.3401
16539TIP3    H171032   6.440   4.162  13.671 -1.2544 -0.2733  2.2989
16539TIP3    H271033   6.322   4.151  13.576  0.8279 -1.0138 -0.3152
16540TIP3   OH271034   2.072   4.704   4.087  0.4403 -0.1489 -0.6695
16540TIP3    H171035   2.073   4.735   4.178  1.6346 -1.1050 -0.3246
16540TIP3    H271036   2.113   4.774   4.037 -0.3740  0.4566 -0.5146
16541TIP3   OH271037   3.926   4.211   1.220  0.0914  0.0336  0.3309
16541TIP3    H171038   3.843   4.259   1.225  0.9469  1.4800  1.4866
16541TIP3    H271039   3.964   4.238   1.136 -0.3561 -0.2239  0.0407
16542TIP3   OH271040   4.078   0.016   5.018 -0.0420 -0.3153 -0.0634
16542TIP3    H171041   4.060  -0.065   4.970  2.3661  1.1946 -4.0533
16542TIP3    H271042   4.147  -0.008   5.081 -0.0778 -1.5721 -0.4821
16543TIP3   OH271043   1.212   5.847   0.701 -0.0121  0.0632  0.1230
16543TIP3    H171044   1.218   5.851   0.605  0.8635  0.7277  0.1857
16543TIP3    H271045   1.119   5.859   0.720 -0.1806  0.0442 -0.6419
16544TIP3   OH271046   4.898   4.967  16.174 -0.1844  0.5677 -0.5590
16544TIP3    H171047   4.868   4.925  16.255  0.3411 -2.5031 -1.8228
16544TIP3    H271048   4.984   5.003  16.196 -0.2534  0.2070  0.3725
16545TIP3   OH271049   4.866   4.202   5.846  0.7319 -0.4450 -0.7351
16545TIP3    H171050   4.878   4.119   5.894  1.6662 -0.2294 -0.5883
16545TIP3    H271051   4.892   4.269   5.908  0.7747 -0.0865 -1.1404
16546TIP3   OH271052   0.402   2.951   1.913 -0.4220  0.3934  0.2574
16546TIP3    H171053   0.461   2.906   1.973  0.2703  0.3372 -0.4502
16546TIP3    H271054   0.423   3.044   1.923  0.6743  0.2986 -0.8745
16547TIP3   OH271055   0.534   2.071   6.146  0.0246 -0.6548 -0.0493
16547TIP3    H171056   0.493   2.157   6.137  0.1530 -0.7704 -2.3297
16547TIP3    H271057   0.573   2.072   6.234 -0.8297  1.2125  0.3565
16548TIP3   OH271058   4.588   2.262   6.456  0.2191 -0.3558 -0.2857
16548TIP3    H171059   4.554   2.192   6.513  1.9249 -1.2256 -0.2931
16548TIP3    H271060   4.595   2.221   6.370  1.1421 -0.1424 -0.3137
16549TIP3   OH271061   6.316   5.358   1.258  0.0535  0.0933 -0.5328
16549TIP3    H171062   6.387   5.333   1.316  0.6182 -0.0425 -1.2605
16549TIP3    H271063   6.344   5.440   1.219 -1.5432  1.6563  1.4058
16550TIP3   OH271064   0.623   5.638  15.038  0.6882  0.6719  0.1687
16550TIP3    H171065   0.535   5.672  15.023  0.6913  1.8862  2.4833
16550TIP3    H271066   0.677   5.717  15.046  1.7900 -0.0414 -0.0946
16551TIP3   OH271067   5.790   0.991  10.962  0.1158 -0.0687 -0.0886
16551TIP3    H171068   5.870   0.939  10.958 -0.4341 -1.0027  0.6878
16551TIP3    H271069   5.801   1.045  11.041  0.6569  0.9722 -0.8557
16552TIP3   OH271070   0.296   5.259   4.835  0.1933  0.3419 -0.6016
16552TIP3    H171071   0.273   5.167   4.849 -0.4483  0.5178 -0.4283
16552TIP3    H271072   0.269   5.276   4.745  0.8163  0.2178 -0.8131
16553TIP3   OH271073   1.351   2.614   3.044 -0.2370  0.9585  0.0349
16553TIP3    H171074   1.312   2.690   3.000 -2.1302 -0.6928 -1.3386
16553TIP3    H271075   1.422   2.587   2.987  0.8551  2.0169  0.8485
16554TIP3   OH271076   5.264   0.341  14.985 -0.4228  0.3264 -0.4566
16554TIP3    H171077   5.193   0.351  15.048  0.1768 -1.6575  0.6333
16554TIP3    H271078   5.308   0.427  14.985  0.9360 -0.1267  3.6699
16555TIP3   OH271079   0.478   4.870  12.119  0.3202 -0.4400 -0.2200
16555TIP3    H171080   0.465   4.907  12.032  1.6545 -1.3013 -0.8158
16555TIP3    H271081   0.536   4.932  12.163  1.3185 -1.0149 -0.6879
16556TIP3   OH271082   5.670   2.621  17.023 -0.6414  0.0395  0.3858
16556TIP3    H171083   5.605   2.609  16.954 -1.0790 -0.2027  0.8337
16556TIP3    H271084   5.754   2.624  16.977 -0.9103 -0.3271 -0.1361
16557TIP3   OH271085   2.922   2.746   3.133  0.2039 -0.0114 -0.3726
16557TIP3    H171086   2.893   2.778   3.219  0.3569 -1.0141  0.0649
16557TIP3    H271087   2.875   2.801   3.070 -1.9786 -0.9503  0.3226
16558TIP3   OH271088   5.996   6.431   4.994 -0.2296 -0.2298 -0.2732
16558TIP3    H171089   6.078   6.383   5.000 -0.8330 -1.5074 -1.3616
16558TIP3    H271090   6.009   6.491   4.921 -0.6900 -1.4668 -1.4322
16559TIP3   OH271091   1.724   4.519  12.076  0.0431  0.3527 -0.5123
16559TIP3    H171092   1.660   4.449  12.086 -0.6195  1.2717  3.1266
16559TIP3    H271093   1.702   4.559  11.992 -4.1326  0.4533  0.3669
16560TIP3   OH271094   6.648   0.863  12.225  0.3474  0.6456 -0.3146
16560TIP3    H171095   6.735   0.884  12.193  0.0694  0.5594 -1.1693
16560TIP3    H271096   6.642   0.768  12.218  0.5310  0.5481  0.6896
16561TIP3   OH271097   2.633   1.088   4.640  0.0697  0.2557 -0.2666
16561TIP3    H171098   2.676   1.172   4.628 -0.4537  0.5580 -0.0706
16561TIP3    H271099   2.630   1.049   4.553 -0.5614  0.8738 -0.5289
16562TIP3   OH271100   4.380   4.495  15.325  0.2391 -0.2149  0.5376
16562TIP3    H171101   4.441   4.457  15.263  0.9191  1.5243  0.1047
16562TIP3    H271102   4.433   4.552  15.381 -1.2000  3.3456 -1.4294
16563TIP3   OH271103   4.920   3.699  11.960 -0.4872 -0.0407 -0.3472
16563TIP3    H171104   4.878   3.630  11.908 -0.1608 -0.6991  0.2455
16563TIP3    H271105   4.847   3.747  11.999 -0.7228 -1.1419  0.6355
16564TIP3   OH271106   2.039   1.807   1.623 -0.4586 -0.8188 -0.6007
16564TIP3    H171107   2.126   1.767   1.614 -0.8260 -1.5963 -0.8044
16564TIP3    H271108   2.043   1.852   1.707  0.7326  0.7066 -1.4153
16565TIP3   OH271109   3.838   5.763   3.687 -0.5211 -1.0636  0.4958
16565TIP3    H171110   3.878   5.730   3.607  0.2658 -0.3270  0.5718
16565TIP3    H271111   3.764   5.816   3.657  0.6406  0.4249  0.1526
16566TIP3   OH271112   4.515   0.386   6.117 -0.5334  0.2303 -0.2590
16566TIP3    H171113   4.451   0.320   6.146  0.7521 -0.9918 -0.0706
16566TIP3    H271114   4.579   0.389   6.188  0.7312 -0.1438 -1.3492
16567TIP3   OH271115   1.379   4.394   1.582 -0.0666  0.8897  0.2210
16567TIP3    H171116   1.327   4.359   1.654  0.2074 -0.0691 -0.0342
16567TIP3    H271117   1.453   4.436   1.624  0.4106 -0.1879  0.5008
16568TIP3   OH271118   1.335   4.970  11.813 -0.2343  0.2949 -0.5492
16568TIP3    H171119   1.324   4.903  11.745 -1.3356 -0.3544  0.2419
16568TIP3    H271120   1.413   4.941  11.861 -0.6035 -0.3325 -0.3175
16569TIP3   OH271121   5.301   0.918  11.934 -0.3645 -0.2913 -0.0624
16569TIP3    H171122   5.344   1.004  11.929 -0.9882  0.0273 -0.0359
16569TIP3    H271123   5.304   0.896  12.027  1.1385 -1.0023 -0.2569
16570TIP3   OH271124   4.038   6.181  17.214  0.2144  0.6955 -0.1758
16570TIP3    H171125   4.120   6.150  17.252  0.5163  0.0353 -1.3301
16570TIP3    H271126   4.028   6.131  17.133 -0.8622  1.4295 -0.5243
16571TIP3   OH271127   6.616   1.092  16.453  0.3300  0.4620  0.5103
16571TIP3    H171128   6.645   1.057  16.368  1.9389 -1.0630  1.6171
16571TIP3    H271129   6.591   1.182  16.434 -0.1166 -0.0604 -1.7325
16572TIP3   OH271130   1.635   0.688  13.528  0.1764  0.5863 -0.1091
16572TIP3    H171131   1.650   0.679  13.434 -0.3109  2.3839 -0.3922
16572TIP3    H271132   1.681   0.768  13.552  0.2449  0.1769  1.1809
16573TIP3   OH271133   2.564   0.700  14.988  0.3684  0.0970 -0.5032
16573TIP3    H171134   2.569   0.625  15.047  0.9192 -0.0248 -0.6943
16573TIP3    H271135   2.531   0.664  14.906  0.1988  0.1472 -0.4564
16574TIP3   OH271136   6.248   5.042   4.286  0.1583  0.1162 -0.1525
16574TIP3    H171137   6.311   4.970   4.275  0.1780 -0.0261  0.8533
16574TIP3    H271138   6.163   5.000   4.283  0.0773  0.3373 -1.7460
16575TIP3   OH271139   6.744   0.097  16.762 -0.3451  0.0804  0.5763
16575TIP3    H171140   6.683   0.032  16.727 -2.5245  2.1759  0.2425
16575TIP3    H271141   6.804   0.114  16.691 -0.6086 -0.5448  0.1918
16576TIP3   OH271142   3.954   5.774   4.119 -0.0532 -0.8036 -0.2791
16576TIP3    H171143   3.879   5.716   4.112 -0.6741  0.0576 -1.0419
16576TIP3    H271144   4.026   5.717   4.145 -0.9363 -1.6627  0.3469
16577TIP3   OH271145   4.026   1.802  14.048  0.1270 -0.5362 -0.0852
16577TIP3    H171146   3.942   1.801  14.003  0.3904 -1.1116 -0.5711
16577TIP3    H271147   4.081   1.859  13.995 -0.3554  1.0156  0.9992
16578TIP3   OH271148   4.193   0.138  11.686  0.6354  0.2190 -0.3591
16578TIP3    H171149   4.209   0.217  11.635  0.9568  1.0998  1.0584
16578TIP3    H271150   4.274   0.088  11.680  0.2502 -0.2795 -1.6925
16579TIP3   OH271151   2.086   1.822  13.706  0.0503  0.1652  0.4901
16579TIP3    H171152   2.132   1.809  13.789  1.0344  0.2227 -0.0240
16579TIP3    H271153   2.112   1.747  13.653  0.0190  0.5138 -0.0196
16580TIP3   OH271154   2.558   5.032   3.804 -0.3398 -0.7957  0.0827
16580TIP3    H171155   2.486   5.046   3.864  0.6670  0.9833  0.9664
16580TIP3    H271156   2.541   5.093   3.732 -0.5830 -1.6086 -0.5709
16581TIP3   OH271157   6.617   0.517  10.966  0.5715 -0.3240  0.7556
16581TIP3    H171158   6.635   0.470  10.885  0.9651  1.0456  0.0087
16581TIP3    H271159   6.524   0.501  10.982  0.1274  0.4718 -0.7448
16582TIP3   OH271160   4.909   4.192  11.817 -0.2822  0.2221  0.0354
16582TIP3    H171161   4.999   4.223  11.807  0.0061 -0.5756  0.0889
16582TIP3    H271162   4.855   4.264  11.784  0.4208  0.0896 -1.4790
16583TIP3   OH271163   2.114   4.752   0.744 -0.4143 -0.5599 -0.2924
16583TIP3    H171164   2.034   4.801   0.725  0.1552  0.3621 -0.3424
16583TIP3    H271165   2.184   4.802   0.702  0.5168  0.0105  1.8147
16584TIP3   OH271166   6.604   4.571   6.089  0.9648  0.5110  0.9868
16584TIP3    H171167   6.589   4.609   6.175  0.7067  0.8333  0.8021
16584TIP3    H271168   6.699   4.564   6.081  1.0945  2.3974  0.4767
16585TIP3   OH271169   0.136   6.090  16.740 -0.5821 -0.4530  0.2794
16585TIP3    H171170   0.196   6.142  16.685 -0.4021  1.2137  1.9326
16585TIP3    H271171   0.049   6.113  16.708 -0.4918  0.7294  0.8037
16586TIP3   OH271172   6.652   4.432  12.497 -0.0085 -0.5835 -0.4830
16586TIP3    H171173   6.686   4.379  12.569  0.9853  1.2498  0.4866
16586TIP3    H271174   6.727   4.444  12.438 -0.5433 -1.2126 -1.3192
16587TIP3   OH271175   0.226   6.182  11.636  0.1043 -0.2218 -0.3186
16587TIP3    H171176   0.138   6.150  11.656 -0.0708 -0.6293 -1.6290
16587TIP3    H271177   0.211   6.257  11.579  0.6037 -0.7083 -1.1050
16588TIP3   OH271178   1.197   5.780  13.644  0.0535 -0.5161 -0.1726
16588TIP3    H171179   1.198   5.875  13.628  0.0036 -0.7729 -1.9282
16588TIP3    H271180   1.258   5.744  13.579 -0.9058 -1.7888 -0.4085
16589TIP3   OH271181   6.242   6.492   4.306  0.6574 -0.4452 -0.2346
16589TIP3    H171182   6.252   6.427   4.236  2.7304 -1.5942  1.0337
16589TIP3    H271183   6.147   6.500   4.317  0.1692  0.4651 -3.6983
16590TIP3   OH271184   3.513   3.004  17.291 -0.0876  0.2615  0.0938
16590TIP3    H171185   3.506   2.954  17.373  0.5640 -0.3988 -0.2411
16590TIP3    H271186   3.454   3.079  17.304 -2.4909 -1.4852 -0.0416
16591TIP3   OH271187   3.866   5.633   3.149  0.2644  0.7320 -0.3618
16591TIP3    H171188   3.905   5.547   3.168  2.7741  1.8946  0.2069
16591TIP3    H271189   3.882   5.646   3.056  0.5374  0.8609 -0.2995
16592TIP3   OH271190   3.517   6.439  13.875 -0.0392  0.1425  0.1313
16592TIP3    H171191   3.570   6.480  13.944  0.2230 -0.2414  0.1611
16592TIP3    H271192   3.541   6.486  13.795 -0.0871  0.3596  0.2438
16593TIP3   OH271193   4.905   1.657   0.645  0.0772 -0.3656 -0.1433
16593TIP3    H171194   4.833   1.616   0.596  1.5051 -1.1122 -1.7295
16593TIP3    H271195   4.862   1.722   0.701 -1.5952  2.6611 -4.3856
16594TIP3   OH271196   5.855   3.951  15.081  0.8288  0.1712 -0.2429
16594TIP3    H171197   5.881   3.893  15.009  0.5827 -0.4719  0.1774
16594TIP3    H271198   5.904   3.920  15.156 -0.0080 -0.0997  0.2065
16595TIP3   OH271199   0.512   6.340  15.370  0.9042 -0.0293 -0.2394
16595TIP3    H171200   0.483   6.255  15.404  0.9440  0.7535  1.8938
16595TIP3    H271201   0.582   6.367  15.430  0.3727  1.8360 -0.4190
16596TIP3   OH271202   3.859   6.361  11.187  0.0653  0.2522  0.0221
16596TIP3    H171203   3.788   6.389  11.244 -2.8073 -2.6759 -1.7147
16596TIP3    H271204   3.914   6.306  11.242 -0.1207  0.9694  0.9520
16597TIP3   OH271205   1.924   5.745   5.335  0.0625  0.1875 -0.0900
16597TIP3    H171206   1.947   5.676   5.397  0.4946 -0.7533 -1.2729
16597TIP3    H271207   1.830   5.737   5.324 -0.2602  1.3095  1.5298
16598TIP3   OH271208   5.061   1.050   0.637 -0.0059 -0.4454 -0.2697
16598TIP3    H171209   5.081   1.144   0.630  0.1803 -0.5462 -1.1835
16598TIP3    H271210   5.143   1.010   0.665 -0.0503 -0.3494 -0.0050
16599TIP3   OH271211   0.333   3.067  10.530  0.0258  0.1933  0.2531
16599TIP3    H171212   0.314   2.982  10.570  0.5053  1.2073  2.8312
16599TIP3    H271213   0.259   3.084  10.472  0.1904 -2.1983 -0.7682
16600TIP3   OH271214   3.969   5.962   4.328  0.1673  0.9037  0.5708
16600TIP3    H171215   3.961   5.904   4.253  0.7103  1.3925  0.1285
16600TIP3    H271216   4.042   6.020   4.307 -1.3685  2.8475  0.2382
16601TIP3   OH271217   5.102   4.276   4.627  0.8745 -0.2885 -0.1924
16601TIP3    H171218   5.026   4.221   4.606  0.4557 -0.4873  1.6058
16601TIP3    H271219   5.178   4.221   4.608  0.5595 -0.4028 -1.1933
16602TIP3   OH271220   1.388   4.033  13.557 -0.2553  0.0372  0.1981
16602TIP3    H171221   1.387   4.066  13.467  0.0236 -1.0886 -0.2321
16602TIP3    H271222   1.324   3.962  13.557 -0.0746 -0.1307  0.8324
16603TIP3   OH271223   0.965   5.014   6.621  0.3860 -0.0512 -0.1324
16603TIP3    H171224   0.911   4.940   6.648 -0.3683  0.1591 -0.9940
16603TIP3    H271225   0.963   5.073   6.696  1.2927 -1.0461  0.7050
16604TIP3   OH271226   0.291   0.454   4.851  0.0835  0.1074  0.5568
16604TIP3    H171227   0.311   0.383   4.790 -0.8527  0.0611  0.2917
16604TIP3    H271228   0.288   0.411   4.937 -2.5868 -0.6188  0.1683
16605TIP3   OH271229   1.250   3.625  14.613  0.5168  0.5877 -0.1685
16605TIP3    H171230   1.309   3.595  14.682  1.5664  0.1460 -1.2225
16605TIP3    H271231   1.308   3.646  14.540 -0.6014  0.6151 -1.0667
16606TIP3   OH271232   6.052   0.469   4.794 -0.0913 -0.1351 -0.5355
16606TIP3    H171233   6.083   0.489   4.882 -1.3529  1.6120 -0.4284
16606TIP3    H271234   6.132   0.451   4.744  0.5802 -2.3143  1.1685
16607TIP3   OH271235   6.207   2.646   3.821 -0.6908 -0.3649 -0.0368
16607TIP3    H171236   6.257   2.643   3.739 -0.5784 -2.4709  0.0579
16607TIP3    H271237   6.245   2.719   3.869  1.1270 -0.8158 -0.7063
16608TIP3   OH271238   4.974   0.875  14.698  0.3237  0.5450 -0.0712
16608TIP3    H171239   5.068   0.858  14.693  0.5004 -0.1683  3.1413
16608TIP3    H271240   4.967   0.964  14.731 -0.1293  0.5768 -0.2446
16609TIP3   OH271241   5.626   3.186   4.045 -0.4085 -0.2839 -0.5084
16609TIP3    H171242   5.680   3.120   4.090 -0.8478  0.5291  1.3170
16609TIP3    H271243   5.543   3.142   4.030  0.0343 -0.8536 -1.3822
16610TIP3   OH271244   0.698   2.681   6.500 -0.1767  0.0437  0.8676
16610TIP3    H171245   0.615   2.635   6.513 -0.0337  0.3375  3.3035
16610TIP3    H271246   0.746   2.626   6.439 -0.8031 -2.0554  2.1454
16611TIP3   OH271247   3.194   5.697   4.922  0.1865  0.1109 -0.5040
16611TIP3    H171248   3.146   5.712   5.003 -0.5673 -2.8908 -0.2775
16611TIP3    H271249   3.274   5.652   4.950  1.0106  1.0522 -1.2745
16612TIP3   OH271250   5.834   1.736  13.175  0.4273 -0.3272  0.4311
16612TIP3    H171251   5.881   1.818  13.192  3.5067 -2.1973  1.9914
16612TIP3    H271252   5.777   1.725  13.251 -0.7941  0.8159 -0.2907
16613TIP3   OH271253   3.442   2.179   2.832 -0.3486  0.7176 -0.7223
16613TIP3    H171254   3.475   2.268   2.843 -0.8875  0.8433 -0.0547
16613TIP3    H271255   3.351   2.183   2.860 -0.3112 -0.0896 -0.4441
16614TIP3   OH271256   4.876   1.677   3.762 -0.4610  0.1461 -0.2817
16614TIP3    H171257   4.837   1.688   3.848 -1.8546 -1.0904 -0.7134
16614TIP3    H271258   4.967   1.705   3.773 -1.0916  1.7955  1.0924
16615TIP3   OH271259   1.369   3.437  14.876  0.0946  0.0001  0.4375
16615TIP3    H171260   1.286   3.453  14.921 -0.5622  0.0528 -0.7584
16615TIP3    H271261   1.393   3.348  14.901 -0.1577  0.0845  1.0178
16616TIP3   OH271262   1.566   3.758  15.970 -0.1969  0.4526 -0.0475
16616TIP3    H171263   1.633   3.700  15.934  1.5179  2.7184 -0.7355
16616TIP3    H271264   1.586   3.763  16.063 -0.1772  0.1841 -0.0363
16617TIP3   OH271265   5.683   1.163   4.981  0.2731  0.4558 -0.2042
16617TIP3    H171266   5.668   1.219   5.057 -0.4521  0.0263 -0.0174
16617TIP3    H271267   5.665   1.074   5.013 -2.2502  0.4516 -1.4046
16618TIP3   OH271268   4.710   5.093  12.363 -0.0420 -0.2058  0.1733
16618TIP3    H171269   4.734   5.037  12.289  0.1937 -2.0026  1.5434
16618TIP3    H271270   4.615   5.083  12.371  0.3219 -3.3810  2.5417
16619TIP3   OH271271   6.547   1.347   0.572  0.0984  0.4352  0.3383
16619TIP3    H171272   6.463   1.362   0.614  0.6368  1.9890  0.9169
16619TIP3    H271273   6.533   1.370   0.480 -0.9991 -2.6829 -0.4188
16620TIP3   OH271274   1.421   2.523  11.471 -0.0616  0.1342 -0.2268
16620TIP3    H171275   1.487   2.473  11.520 -0.3393 -1.4507 -1.3870
16620TIP3    H271276   1.448   2.514  11.380 -0.5714  1.5006 -0.5373
16621TIP3   OH271277   6.594   6.579  15.839  0.2006 -0.2800 -0.1820
16621TIP3    H171278   6.572   6.618  15.755  0.1637 -0.8985 -0.4637
16621TIP3    H271279   6.520   6.521  15.859 -0.3600  0.7670  0.8545
16622TIP3   OH271280   4.770   3.572   0.683  0.2850  0.1472 -0.8109
16622TIP3    H171281   4.788   3.566   0.589 -0.0906  0.0377 -0.8785
16622TIP3    H271282   4.855   3.562   0.724  0.4244 -0.0183 -1.1339
16623TIP3   OH271283   0.941   0.504   4.254 -0.0939 -0.2880 -0.1284
16623TIP3    H171284   0.859   0.550   4.273  0.2335  1.5512 -2.5712
16623TIP3    H271285   0.930   0.418   4.293 -1.5369  1.1673  3.0909
16624TIP3   OH271286   6.070   4.970  17.152 -0.1814 -0.2629 -0.5661
16624TIP3    H171287   5.975   4.983  17.151 -0.2776 -0.9330 -0.8649
16624TIP3    H271288   6.106   5.053  17.122 -0.6625  0.0699 -0.2447
16625TIP3   OH271289   1.908   0.253  11.521  0.2028  0.1983  0.4966
16625TIP3    H171290   1.877   0.262  11.611  1.4031 -1.3663  1.1146
16625TIP3    H271291   1.986   0.198  11.528 -0.1223 -0.6084 -1.5881
16626TIP3   OH271292   1.325   3.397   3.944  0.4481 -0.1957  0.0230
16626TIP3    H171293   1.296   3.323   3.997 -0.7252  1.2072  1.4620
16626TIP3    H271294   1.342   3.466   4.008  1.3502  0.8404 -1.2883
16627TIP3   OH271295   1.718   4.687  11.474 -0.4857  0.2060  0.4561
16627TIP3    H171296   1.687   4.629  11.544  2.3069  0.2242  1.8290
16627TIP3    H271297   1.800   4.648  11.445  0.0573  1.9873 -0.5353
16628TIP3   OH271298   1.022   1.009  15.842 -0.1846 -0.4206  0.2217
16628TIP3    H171299   0.961   1.044  15.908  0.5681 -0.6496  1.0535
16628TIP3    H271300   1.016   0.914  15.852  1.9969 -0.4448  1.9295
16629TIP3   OH271301   4.527   1.903   5.061  1.1176 -0.6447 -0.6442
16629TIP3    H171302   4.582   1.831   5.092  0.9426 -0.3359  0.4205
16629TIP3    H271303   4.450   1.860   5.025  0.8943 -0.9924  0.2263
16630TIP3   OH271304   5.081   2.012   3.207  0.5398 -0.1895 -0.3610
16630TIP3    H171305   5.071   2.073   3.134  0.3944  2.1427  1.4753
16630TIP3    H271306   4.992   2.001   3.241  0.6732 -0.8052 -0.2015
16631TIP3   OH271307   4.096   0.135   5.745  0.1669 -0.0220  0.2450
16631TIP3    H171308   4.150   0.202   5.703  0.4926  0.0481  0.7778
16631TIP3    H271309   4.132   0.126   5.833 -1.1365  0.5578  0.8704
16632TIP3   OH271310   4.686   5.129   2.029 -0.2711 -0.0116 -0.0583
16632TIP3    H171311   4.688   5.092   2.117 -1.5129 -2.0263 -0.7784
16632TIP3    H271312   4.602   5.174   2.024  0.6152  1.7505  0.3467
16633TIP3   OH271313   5.107   1.268   0.216  0.3483  0.1601  0.8875
16633TIP3    H171314   5.142   1.328   0.281 -0.6742  0.2806  1.3500
16633TIP3    H271315   5.023   1.239   0.252 -1.0477  1.4841 -1.0785
16634TIP3   OH271316   2.058   1.112   2.280 -0.2419  0.0829  0.1524
16634TIP3    H171317   2.105   1.116   2.197 -0.6778 -0.8906 -0.1553
16634TIP3    H271318   1.989   1.047   2.266 -0.2288 -0.2117  1.3191
16635TIP3   OH271319   4.438   1.991  12.044  0.2980  0.4080 -0.2472
16635TIP3    H171320   4.446   2.084  12.023 -0.8118  0.5501 -0.1045
16635TIP3    H271321   4.381   1.989  12.120 -0.1969 -0.4312 -0.6342
16636TIP3   OH271322   2.115   0.414  12.835  0.5804  0.0127 -0.0326
16636TIP3    H171323   2.059   0.457  12.899  0.8728 -0.8624  0.8278
16636TIP3    H271324   2.204   0.428  12.868  0.7940  0.2961 -0.7127
16637TIP3   OH271325   0.182   6.357  14.886 -0.2373  0.3376  0.9211
16637TIP3    H171326   0.168   6.388  14.975  1.4395 -0.2379  1.4321
16637TIP3    H271327   0.271   6.321  14.887  0.2573  1.3162 -1.2644
16638TIP3   OH271328   5.186   1.678   3.345 -0.4025  0.2612  0.0465
16638TIP3    H171329   5.216   1.588   3.354 -0.9754 -0.1347 -1.6600
16638TIP3    H271330   5.090   1.673   3.348 -0.4353  1.1354  2.3388
16639TIP3   OH271331   5.710   4.632  14.085 -0.6532  0.6838  0.3289
16639TIP3    H171332   5.653   4.589  14.021  0.0254 -0.6911  0.6043
16639TIP3    H271333   5.651   4.690  14.134 -2.2138 -1.8064  1.6315
16640TIP3   OH271334   6.073   0.617  10.704  0.0399  0.0102 -0.1401
16640TIP3    H171335   6.000   0.637  10.762  0.7649  1.3385  0.3675
16640TIP3    H271336   6.138   0.574  10.760  0.4667  0.6890 -0.1010
16641TIP3   OH271337   6.245   0.320   0.193 -0.3032 -0.1904 -0.5400
16641TIP3    H171338   6.198   0.403   0.197 -1.0232 -0.5975 -0.5459
16641TIP3    H271339   6.184   0.258   0.154  0.2934 -0.6860 -0.7164
16642TIP3   OH271340   1.176   2.089  12.298 -0.6525 -0.3660  0.8454
16642TIP3    H171341   1.152   2.093  12.391 -0.7770  0.0787  0.7982
16642TIP3    H271342   1.101   2.127  12.252 -0.5475 -0.4853  0.5687
16643TIP3   OH271343   6.363   0.624   0.169 -0.5717 -0.0059 -0.2115
16643TIP3    H171344   6.427   0.648   0.236 -0.7225 -0.0378 -0.0559
16643TIP3    H271345   6.406   0.556   0.118 -0.4327  0.0616 -0.1862
16644TIP3   OH271346   1.572   6.604   2.625  0.1506 -0.1275 -0.2169
16644TIP3    H171347   1.565   6.602   2.721  4.2775 -0.5031  0.2592
16644TIP3    H271348   1.611   6.519   2.602  1.2519  0.7977 -1.9679
16645TIP3   OH271349   3.246   2.227   3.033  0.2783  0.3109  0.3202
16645TIP3    H171350   3.232   2.144   2.988  1.0367  0.4840 -0.2529
16645TIP3    H271351   3.292   2.204   3.113  0.8125  0.2080 -0.0123
16646TIP3   OH271352   0.616   6.225   1.928  0.0823  0.8862 -0.4762
16646TIP3    H171353   0.575   6.140   1.914 -0.9439  1.4388 -0.9348
16646TIP3    H271354   0.676   6.236   1.854  2.0106 -0.4257  0.7913
16647TIP3   OH271355   3.856   2.871  15.835 -0.0973 -0.2732 -0.7233
16647TIP3    H171356   3.921   2.800  15.837  1.4313  1.0867 -0.0555
16647TIP3    H271357   3.786   2.841  15.893  1.1997 -0.6491  0.7090
16648TIP3   OH271358   4.878   6.314   1.767  0.6344 -0.0500 -0.6829
16648TIP3    H171359   4.971   6.302   1.785  0.4940  1.3915  1.4402
16648TIP3    H271360   4.872   6.401   1.728 -0.0353  1.7383  2.9127
16649TIP3   OH271361   5.813   4.067  16.198  0.2142 -0.3795  0.4600
16649TIP3    H171362   5.777   4.076  16.286  0.4329  0.4297  0.4716
16649TIP3    H271363   5.884   4.132  16.194 -0.2310  0.0704 -0.5317
16650TIP3   OH271364   6.213   4.574   5.079 -0.1204 -0.6924  0.7128
16650TIP3    H171365   6.209   4.514   5.005 -0.7212  0.2017 -0.0043
16650TIP3    H271366   6.121   4.585   5.105 -0.1600  0.8521  0.0328
16651TIP3   OH271367   3.715   2.545  12.853 -1.0763 -0.2325  0.0516
16651TIP3    H171368   3.782   2.613  12.862  0.8880 -1.9404 -0.9010
16651TIP3    H271369   3.635   2.594  12.830  0.3365  1.7462 -0.9948
16652TIP3   OH271370   4.938   0.292   6.336 -0.1315  1.1468 -0.3746
16652TIP3    H171371   5.026   0.325   6.353 -0.1307  0.9096  0.1051
16652TIP3    H271372   4.952   0.213   6.283  0.0044  0.6041  0.4455
16653TIP3   OH271373   2.585   4.600  11.698 -0.2914 -0.1174  0.4995
16653TIP3    H171374   2.646   4.559  11.760 -1.8898  0.0059  2.2443
16653TIP3    H271375   2.557   4.528  11.642  0.1529 -0.5234  0.7816
16654TIP3   OH271376   5.948   4.166   5.122  0.0782  0.4384 -0.0852
16654TIP3    H171377   6.009   4.203   5.186 -1.2568 -0.9783  2.1648
16654TIP3    H271378   5.997   4.096   5.079  0.2603 -0.3261  1.3037
16655TIP3   OH271379   5.341   0.653  15.837  0.4502 -0.0956 -0.1658
16655TIP3    H171380   5.347   0.626  15.745  0.7283 -0.5578 -0.0125
16655TIP3    H271381   5.431   0.676  15.861  0.0873  2.0362 -0.6043
16656TIP3   OH271382   2.393   2.627  10.455 -0.1300  0.3408  0.0301
16656TIP3    H171383   2.486   2.605  10.443 -0.0612  1.4751 -2.0065
16656TIP3    H271384   2.378   2.617  10.549  2.3690  1.2606  0.6135
16657TIP3   OH271385   1.188   0.469  14.876  0.1409 -0.4057  0.4069
16657TIP3    H171386   1.169   0.458  14.783 -2.5510 -0.7832  0.8972
16657TIP3    H271387   1.114   0.426  14.921  1.1988  0.0098  2.7087
16658TIP3   OH271388   0.115   3.576   6.026 -0.1873  0.3123  0.4808
16658TIP3    H171389   0.180   3.641   6.000  0.3462 -0.6365 -0.6775
16658TIP3    H271390   0.168   3.499   6.049 -0.8713 -0.2724  0.1203
16659TIP3   OH271391   4.339   4.918  13.932  0.2267  0.4417 -0.0382
16659TIP3    H171392   4.286   4.997  13.940  0.0942  0.2882  0.6474
16659TIP3    H271393   4.282   4.855  13.889  0.0464  0.4526  0.1884
16660TIP3   OH271394   4.519   4.243   3.070  0.0197 -0.5477 -0.0431
16660TIP3    H171395   4.534   4.304   3.142 -1.2100 -0.9185  0.5533
16660TIP3    H271396   4.570   4.278   2.997 -1.4420  1.7878 -0.0367
16661TIP3   OH271397   3.529   2.355  12.074 -0.3238  0.0812 -0.1504
16661TIP3    H171398   3.480   2.275  12.056  0.0661 -0.2067  0.0602
16661TIP3    H271399   3.528   2.403  11.991 -1.2020  0.2177 -0.0759
16662TIP3   OH271400   0.314   3.348  15.898  0.4024 -0.4693  0.1977
16662TIP3    H171401   0.237   3.333  15.953  1.6840  0.0611  2.2456
16662TIP3    H271402   0.298   3.295  15.820 -2.3593  0.2027  0.1887
16663TIP3   OH271403   3.443   6.754  11.904 -0.5312  0.6100  0.3670
16663TIP3    H171404   3.525   6.711  11.880 -0.5119  1.0161 -0.3152
16663TIP3    H271405   3.468   6.819  11.970 -0.3701  0.4534  0.4611
16664TIP3   OH271406   2.021   0.133   6.017  0.0730 -0.5430  0.6211
16664TIP3    H171407   1.990   0.109   6.104  1.2605  0.3635  1.3375
16664TIP3    H271408   2.003   0.226   6.010  0.4769 -0.4996  0.1111
16665TIP3   OH271409   6.142   0.739   0.372  0.1570  0.9688  0.3183
16665TIP3    H171410   6.047   0.727   0.379  0.3012 -0.3269  0.2958
16665TIP3    H271411   6.161   0.721   0.280  1.1488 -5.3390  1.2909
16666TIP3   OH271412   6.303   5.206   1.553  0.0867 -0.5981  0.5753
16666TIP3    H171413   6.233   5.272   1.547 -0.8816 -1.7224 -1.8316
16666TIP3    H271414   6.260   5.129   1.592  0.7999 -0.3736  1.8645
16667TIP3   OH271415   1.302   1.525  14.453  0.4935 -0.0667  0.3120
16667TIP3    H171416   1.286   1.596  14.515  0.5629 -0.8204  1.2278
16667TIP3    H271417   1.279   1.561  14.367  0.6182  1.0793  0.7445
16668TIP3   OH271418   3.958   5.551   1.155 -0.3388  0.0831  0.6568
16668TIP3    H171419   3.888   5.499   1.196  0.9801 -2.3502 -0.0095
16668TIP3    H271420   4.015   5.576   1.228 -0.3760 -0.4017  0.8568
16669TIP3   OH271421   4.714   5.575  15.190  0.2229 -0.2405  0.3522
16669TIP3    H171422   4.669   5.649  15.149 -0.2453 -1.4788 -1.4471
16669TIP3    H271423   4.670   5.566  15.275 -2.7462 -1.0863 -1.1125
16670TIP3   OH271424   3.260   5.823   3.795 -0.1369 -0.0534 -0.3238
16670TIP3    H171425   3.225   5.839   3.882 -0.2828  1.7249 -0.6747
16670TIP3    H271426   3.355   5.828   3.806 -0.0412 -2.0144  0.0971
16671TIP3   OH271427   6.688   6.536   0.576 -0.3587 -0.2224  0.4679
16671TIP3    H171428   6.713   6.581   0.657  0.1914 -0.7538  0.5972
16671TIP3    H271429   6.599   6.567   0.558 -0.0336  0.8404  0.6109
16672TIP3   OH271430   2.436   5.531   3.076  0.8068  0.2121 -0.1819
16672TIP3    H171431   2.489   5.520   3.155  1.4112  0.8135 -0.4917
16672TIP3    H271432   2.388   5.613   3.090 -1.0160 -0.9196  0.6223
16673TIP3   OH271433   5.285   2.393  10.943 -0.0441 -0.3754 -0.5505
16673TIP3    H171434   5.284   2.384  10.848 -2.3073  2.6154 -0.9649
16673TIP3    H271435   5.192   2.400  10.967  0.4824 -0.7028  1.8646
16674TIP3   OH271436   4.290   6.092  17.240  0.2589 -0.3970 -0.4472
16674TIP3    H171437   4.333   6.033  17.178  0.5158  0.2185 -0.8657
16674TIP3    H271438   4.342   6.173  17.237 -0.5740  0.1527 -0.5230
16675TIP3   OH271439   0.995   6.125   5.298 -0.2214 -0.0091 -0.0202
16675TIP3    H171440   1.079   6.117   5.252 -0.4181  1.1626 -0.6306
16675TIP3    H271441   0.947   6.193   5.249 -0.2532  1.6708  2.1711
16676TIP3   OH271442   5.590   6.322  11.614 -0.1118  0.3211  0.6018
16676TIP3    H171443   5.661   6.258  11.607  0.5501  0.8316  2.1264
16676TIP3    H271444   5.524   6.277  11.667 -0.7315  0.0327 -0.3912
16677TIP3   OH271445   2.464   5.954  12.824 -0.2797 -0.1364  0.2785
16677TIP3    H171446   2.473   5.968  12.730  1.2640 -2.6389 -0.0338
16677TIP3    H271447   2.416   5.872  12.832 -4.1114  2.0055  1.8351
16678TIP3   OH271448   0.044   5.039  13.438 -0.3023  0.1981  0.1588
16678TIP3    H171449  -0.038   5.013  13.480  0.0339  1.8440  2.0129
16678TIP3    H271450   0.022   5.119  13.390  0.3057  1.0585  1.2552
16679TIP3   OH271451   4.421   4.416  14.407  0.1903  0.0644  0.0955
16679TIP3    H171452   4.460   4.380  14.487  1.5188 -1.2805 -1.1035
16679TIP3    H271453   4.477   4.491  14.384  2.5338 -2.0941 -1.8404
16680TIP3   OH271454   5.820   1.133   0.436 -0.2311 -0.4387 -0.3062
16680TIP3    H171455   5.899   1.185   0.423 -0.0834 -1.2762 -3.4280
16680TIP3    H271456   5.748   1.192   0.416 -0.2242 -0.5370 -0.6274
16681TIP3   OH271457   4.649   1.170  16.138  0.0457  0.1334 -0.4268
16681TIP3    H171458   4.683   1.108  16.202 -0.2359  1.0876  0.6981
16681TIP3    H271459   4.595   1.118  16.079  1.2556 -0.9595 -0.5979
16682TIP3   OH271460   1.719   2.924  17.164  0.4025  0.1691 -0.1493
16682TIP3    H171461   1.735   2.987  17.234  0.0294  0.4107 -0.2780
16682TIP3    H271462   1.674   2.974  17.096 -1.4944 -0.6093  0.4672
16683TIP3   OH271463   4.387   1.877   3.046  0.3696 -0.3300  0.1778
16683TIP3    H171464   4.330   1.924   3.106 -0.4433 -0.5524 -0.4043
16683TIP3    H271465   4.360   1.906   2.959  0.0718 -1.6099 -0.1757
16684TIP3   OH271466   4.897   3.379  11.874  0.5176 -0.6015 -0.1519
16684TIP3    H171467   4.903   3.316  11.802 -0.5183 -0.1599 -0.6498
16684TIP3    H271468   4.804   3.381  11.897  0.5785  0.4989  0.0746
16685TIP3   OH271469   6.613   4.392   1.668  0.1303  0.0524  0.0672
16685TIP3    H171470   6.622   4.365   1.759  3.6421 -0.6902 -0.3453
16685TIP3    H271471   6.583   4.313   1.623  0.0653 -0.0726  0.3258
16686TIP3   OH271472   3.345   2.055   5.044 -0.0057 -0.4214 -0.3592
16686TIP3    H171473   3.307   2.130   4.998  0.3091  0.5073  0.8414
16686TIP3    H271474   3.361   1.991   4.975 -0.4811  0.5256 -1.3940
16687TIP3   OH271475   4.290   3.381   4.938 -0.2558  0.2689 -0.5981
16687TIP3    H171476   4.259   3.291   4.949 -1.3205  0.4462 -1.9315
16687TIP3    H271477   4.239   3.432   5.000 -0.7925  0.1816 -0.9651
16688TIP3   OH271478   4.552   2.289  14.326 -0.2131  0.1750  0.1113
16688TIP3    H171479   4.521   2.276  14.416 -1.0195 -0.7624 -0.2841
16688TIP3    H271480   4.636   2.333  14.336 -0.2340 -0.0240  1.3320
16689TIP3   OH271481   1.401   3.465   3.432  0.2360  0.5343  0.3207
16689TIP3    H171482   1.449   3.386   3.456  0.0347  0.4261  0.3702
16689TIP3    H271483   1.312   3.435   3.413  0.6477  0.4338 -1.6780
16690TIP3   OH271484   1.417   1.755   2.836 -0.7609  0.3098  0.4169
16690TIP3    H171485   1.449   1.787   2.752  0.8806 -2.8411 -0.3135
16690TIP3    H271486   1.490   1.768   2.896 -1.5509  1.5780  1.1454
16691TIP3   OH271487   4.095   1.726   3.453  0.2590  0.0791  0.1408
16691TIP3    H171488   4.159   1.708   3.523  0.9936  0.2916 -0.4624
16691TIP3    H271489   4.061   1.640   3.429  1.4714 -0.2201 -0.5902
16692TIP3   OH271490   3.731   0.106  14.348 -0.1069  0.4456 -0.3043
16692TIP3    H171491   3.668   0.096  14.419  0.8968 -0.0882  0.5377
16692TIP3    H271492   3.814   0.123  14.393  0.7511 -0.9402 -1.3022
16693TIP3   OH271493   6.221   4.438  13.682  0.3046 -0.0361 -0.5911
16693TIP3    H171494   6.285   4.370  13.661 -0.4719 -0.5192 -1.4621
16693TIP3    H271495   6.155   4.430  13.613 -1.2774 -0.2807  0.9017
16694TIP3   OH271496   3.438   2.947  13.470 -0.0252  0.0115 -0.1016
16694TIP3    H171497   3.480   3.006  13.407  0.4258 -2.0193 -1.8278
16694TIP3    H271498   3.501   2.940  13.542  0.1789  1.1140 -0.1426
16695TIP3   OH271499   3.170   5.688  15.402 -0.2126  0.4995 -0.5413
16695TIP3    H171500   3.084   5.695  15.358  0.6132  0.3075 -2.2737
16695TIP3    H271501   3.172   5.763  15.461 -1.7349  0.2843 -0.1557
16696TIP3   OH271502   2.277   2.894  10.455 -0.1811  0.2983 -0.1467
16696TIP3    H171503   2.233   2.919  10.536  0.1698  0.5077 -0.0165
16696TIP3    H271504   2.302   2.803  10.468 -0.1133  0.3356 -0.0133
16697TIP3   OH271505   4.851   3.910   3.923 -0.3687 -0.6399 -0.3105
16697TIP3    H171506   4.817   3.988   3.966  1.1225  0.3940 -0.9469
16697TIP3    H271507   4.786   3.889   3.855 -0.8853 -0.0970  0.0101
16698TIP3   OH271508   5.802   5.382   3.471 -0.1359  0.0148  0.5590
16698TIP3    H171509   5.830   5.462   3.426 -0.3497  0.5018  1.2927
16698TIP3    H271510   5.710   5.396   3.490  0.0236 -0.0633  1.4128
16699TIP3   OH271511   1.204   1.439   2.290 -0.2431 -0.1663 -0.1478
16699TIP3    H171512   1.126   1.487   2.263  0.0219 -1.0288 -2.7189
16699TIP3    H271513   1.173   1.374   2.353 -1.1958  0.8534  0.4757
16700TIP3   OH271514   4.667   4.699   0.869  0.1265  0.5228  0.8167
16700TIP3    H171515   4.708   4.772   0.914  2.3835  0.4373 -0.9372
16700TIP3    H271516   4.736   4.633   0.863 -1.2913 -1.0196  0.6591
16701TIP3   OH271517   2.103   2.873   4.511 -0.4980 -0.2030  0.9678
16701TIP3    H171518   2.102   2.960   4.472 -0.3613 -1.0049 -0.9577
16701TIP3    H271519   2.011   2.851   4.524 -0.7682 -1.0611 -1.7764
16702TIP3   OH271520   0.746   4.034   0.078 -0.1003 -0.0184  0.1739
16702TIP3    H171521   0.805   4.098   0.038 -2.7574  2.0727 -0.7048
16702TIP3    H271522   0.788   3.949   0.063  1.7828  1.1913 -1.9515
16703TIP3   OH271523   3.945   4.482   3.281  0.3655 -0.1174  0.1369
16703TIP3    H171524   3.877   4.423   3.250  0.3619  0.1059 -0.2848
16703TIP3    H271525   3.907   4.524   3.359  0.1727 -0.2866  0.1328
16704TIP3   OH271526   2.959   3.003  14.868 -0.0433  0.2590 -0.2349
16704TIP3    H171527   2.869   2.975  14.882  0.6922 -1.3339  1.7347
16704TIP3    H271528   3.003   2.986  14.951  2.3276 -0.0073 -1.4529
16705TIP3   OH271529   2.729   0.032   4.662  0.2259  0.3939 -0.3706
16705TIP3    H171530   2.721   0.123   4.690 -1.0352 -0.4098  2.1552
16705TIP3    H271531   2.640   0.005   4.641  0.4629 -0.4694 -0.3122
16706TIP3   OH271532   2.550   6.522  17.209  0.0261  0.0978 -0.0051
16706TIP3    H171533   2.502   6.516  17.291  0.8295 -1.1636  0.3832
16706TIP3    H271534   2.635   6.481  17.226  0.2857 -0.0141 -1.3977
16707TIP3   OH271535   3.562   2.458  14.744  0.0597 -0.0586 -0.3042
16707TIP3    H171536   3.519   2.513  14.809  2.4786  1.7246 -0.0658
16707TIP3    H271537   3.648   2.438  14.783  1.0797 -0.0203 -2.4011
16708TIP3   OH271538   3.875   4.069   1.953 -0.1997  0.4513  0.2175
16708TIP3    H171539   3.961   4.035   1.976 -0.1738  0.1167 -0.3548
16708TIP3    H271540   3.873   4.157   1.990  0.0928  0.1830  0.8902
16709TIP3   OH271541   1.567   0.201  11.469 -0.3610  0.7351 -0.3445
16709TIP3    H171542   1.658   0.197  11.441 -1.0169  1.3237 -2.7935
16709TIP3    H271543   1.539   0.109  11.473 -0.0854  0.6153 -1.1206
16710TIP3   OH271544   3.418   3.022   3.451 -0.3763 -0.2817  0.7490
16710TIP3    H171545   3.383   2.957   3.390 -3.6435  0.5640  1.5326
16710TIP3    H271546   3.471   3.080   3.396 -1.0392 -1.0690 -0.7912
16711TIP3   OH271547   5.304   2.847   1.012  0.1015  0.1825  0.5981
16711TIP3    H171548   5.335   2.757   1.019  1.4132  0.5330 -0.4282
16711TIP3    H271549   5.281   2.858   0.920  1.0893  1.2459  0.4588
16712TIP3   OH271550   1.781   5.469  13.787 -0.8249 -0.2335 -0.3320
16712TIP3    H171551   1.860   5.448  13.837 -2.0055  0.4713  1.9241
16712TIP3    H271552   1.807   5.454  13.696  1.2584 -2.0237  0.4680
16713TIP3   OH271553   2.768   2.016  14.536 -0.0683 -0.1610 -0.2717
16713TIP3    H171554   2.805   1.958  14.602 -2.5886 -0.2275  1.2202
16713TIP3    H271555   2.721   1.958  14.476 -0.2260  0.1108 -0.4132
16714TIP3   OH271556   6.465   3.223  16.687 -0.0215 -0.1793 -0.0920
16714TIP3    H171557   6.466   3.283  16.613  0.0751  0.8863  0.7423
16714TIP3    H271558   6.386   3.246  16.736  1.2422  0.9301  1.5282
16715TIP3   OH271559   1.729   3.392   5.227  0.6254  0.4156 -0.6495
16715TIP3    H171560   1.820   3.423   5.223  0.7943 -0.0376 -0.4382
16715TIP3    H271561   1.689   3.424   5.147  1.6960 -1.6125 -2.0939
16716TIP3   OH271562   3.042   0.664   5.393  0.0368  0.7489 -0.6836
16716TIP3    H171563   2.993   0.730   5.343  2.2451  1.9229 -1.4905
16716TIP3    H271564   3.003   0.581   5.367 -1.4761  1.6035 -1.2949
16717TIP3   OH271565   1.052   3.848   6.421 -0.1592  0.0220 -0.2044
16717TIP3    H171566   1.045   3.944   6.422 -1.7590 -0.0226  2.4961
16717TIP3    H271567   0.968   3.818   6.387 -0.4475 -0.3996  0.8456
16718TIP3   OH271568   0.841   2.389  12.092  0.3473  0.0693 -0.1818
16718TIP3    H171569   0.872   2.382  12.002  0.6420  0.0336 -0.0760
16718TIP3    H271570   0.746   2.375  12.085 -0.0581  2.5798 -0.8316
16719TIP3   OH271571   0.161   3.190  11.763 -0.3386 -0.0290  0.1287
16719TIP3    H171572   0.124   3.246  11.695  1.5294  1.1403  0.0094
16719TIP3    H271573   0.207   3.251  11.822  0.0811 -1.2523  1.1103
16720TIP3   OH271574   0.159   6.149  13.567 -0.5029  0.2011  0.0892
16720TIP3    H171575   0.193   6.061  13.579 -0.6161  0.1093 -0.2518
16720TIP3    H271576   0.232   6.207  13.588 -0.2079  0.0108 -0.3812
16721TIP3   OH271577   5.472   1.327   2.916 -0.2551  0.2768  0.3727
16721TIP3    H171578   5.454   1.398   2.978  1.5210  2.3569 -1.3131
16721TIP3    H271579   5.462   1.367   2.830 -0.7819 -2.0144 -0.7039
16722TIP3   OH271580   6.707   5.393  15.461 -0.1562  0.3069  0.3598
16722TIP3    H171581   6.684   5.389  15.554 -0.3002  0.7111  0.3432
16722TIP3    H271582   6.626   5.420  15.418 -0.2553 -0.4683  0.0495
16723TIP3   OH271583   4.140   3.242  11.513  0.4041 -0.2141 -0.0218
16723TIP3    H171584   4.234   3.258  11.520 -0.0173  1.9960  1.5576
16723TIP3    H271585   4.132   3.147  11.513  2.5846 -0.4598  1.1749
16724TIP3   OH271586   2.346   5.723   1.089 -0.4929 -0.2783 -0.3462
16724TIP3    H171587   2.405   5.676   1.148 -1.9611 -1.0640  0.5754
16724TIP3    H271588   2.315   5.798   1.140 -0.6790 -0.1682 -0.6195
16725TIP3   OH271589   1.808   2.921   5.259  0.1442  0.2266  0.3157
16725TIP3    H171590   1.788   2.985   5.191  1.3210  1.5131  1.1298
16725TIP3    H271591   1.799   2.969   5.341 -2.6334 -1.6416  1.2519
16726TIP3   OH271592   6.538   6.036   3.747 -0.4009  0.4204 -0.3516
16726TIP3    H171593   6.560   5.943   3.739  0.1359  0.6609 -2.4580
16726TIP3    H271594   6.497   6.058   3.663  2.0321  2.6737 -1.0964
16727TIP3   OH271595   6.111   4.658   3.779  0.3795 -0.2240  0.3351
16727TIP3    H171596   6.124   4.566   3.756 -1.5490 -0.4631  0.0504
16727TIP3    H271597   6.129   4.662   3.873 -1.4695 -1.3515  0.7851
16728TIP3   OH271598   2.747   3.611  12.941 -0.2648  0.5200 -0.7890
16728TIP3    H171599   2.835   3.573  12.949  0.6974  2.5682 -0.8139
16728TIP3    H271600   2.705   3.561  12.871  1.2460  0.1277 -1.4496
16729TIP3   OH271601   3.256   2.481  14.616 -0.0706 -0.1983  0.1684
16729TIP3    H171602   3.280   2.430  14.694 -1.5438 -0.5316  0.4434
16729TIP3    H271603   3.186   2.430  14.575  1.5867 -0.7218 -2.1725
16730TIP3   OH271604   3.081   5.516   5.567 -0.3809 -0.5112  0.0820
16730TIP3    H171605   3.148   5.534   5.633 -1.3233  0.2366  0.8824
16730TIP3    H271606   3.124   5.461   5.502  1.3447  0.9796 -0.0894
16731TIP3   OH271607   6.486   0.984  16.721  0.3274 -0.0909 -0.3353
16731TIP3    H171608   6.414   0.974  16.783 -2.0577 -0.1032 -2.9010
16731TIP3    H271609   6.504   0.895  16.691  1.4640 -0.0886  0.3079
16732TIP3   OH271610   3.738   1.688  12.834  0.3802 -0.0170 -0.4030
16732TIP3    H171611   3.711   1.626  12.902  1.1450 -1.2822 -1.2158
16732TIP3    H271612   3.671   1.757  12.837 -1.5614 -1.7723 -0.6702
16733TIP3   OH271613   3.082   3.845  10.952  0.2205  0.1454 -0.4648
16733TIP3    H171614   3.001   3.795  10.944  0.5165 -0.6939  1.3000
16733TIP3    H271615   3.151   3.778  10.952  0.7035  0.6111  0.7195
16734TIP3   OH271616   5.172   6.084   4.784 -0.1193 -0.1200  0.2275
16734TIP3    H171617   5.136   6.028   4.716 -1.5517 -0.3114  1.0933
16734TIP3    H271618   5.238   6.137   4.740  0.1496 -1.3789 -0.9375
16735TIP3   OH271619   2.507   1.173  11.619  0.2598 -0.0487  0.4230
16735TIP3    H171620   2.601   1.157  11.623  0.2115 -0.9569 -1.1551
16735TIP3    H271621   2.498   1.268  11.620  1.4425  0.1993 -2.5205
16736TIP3   OH271622   2.477   0.809  13.421 -0.2350 -0.2082  0.0126
16736TIP3    H171623   2.385   0.801  13.444 -0.1279 -0.5643  0.3300
16736TIP3    H271624   2.511   0.720  13.427  0.0804 -0.1138 -0.3166
16737TIP3   OH271625   2.491   0.385   4.973  0.3946  0.4983  0.3209
16737TIP3    H171626   2.427   0.426   4.914 -0.4445 -0.6805  0.3783
16737TIP3    H271627   2.440   0.358   5.049  1.2674  0.9613  1.0834
16738TIP3   OH271628   6.171   3.642   5.252 -0.3776  0.8155 -0.3374
16738TIP3    H171629   6.178   3.625   5.158  0.3122  0.1558 -0.1767
16738TIP3    H271630   6.175   3.556   5.293 -0.2660  1.1240  0.3166
16739TIP3   OH271631   5.063   2.256  13.381 -0.0970 -0.2697  0.4735
16739TIP3    H171632   5.076   2.167  13.413 -3.4159 -0.5184  1.4144
16739TIP3    H271633   5.094   2.312  13.453  1.2824 -0.6256  0.1845
16740TIP3   OH271634   1.386   4.831   1.500 -0.1208  0.3164 -0.3723
16740TIP3    H171635   1.364   4.793   1.415  0.8994  0.5231 -0.7464
16740TIP3    H271636   1.385   4.926   1.484 -3.4580  0.5961  0.7446
16741TIP3   OH271637   1.127   2.830  16.777  0.1320  0.3056  0.1999
16741TIP3    H171638   1.074   2.788  16.844  1.8331 -1.6155  0.4242
16741TIP3    H271639   1.200   2.868  16.824  0.8435 -0.2244 -0.4612
16742TIP3   OH271640   6.190   4.139  16.418  0.1882 -0.4966 -0.0579
16742TIP3    H171641   6.269   4.191  16.412 -1.2366  1.6242 -2.0392
16742TIP3    H271642   6.219   4.049  16.403  2.5854 -0.2638  2.4666
16743TIP3   OH271643   4.549   2.636  16.624 -0.0574 -0.4274  0.3330
16743TIP3    H171644   4.460   2.664  16.646 -0.1914 -1.8808  1.8531
16743TIP3    H271645   4.606   2.690  16.679 -0.3184 -2.9020  3.3376
16744TIP3   OH271646   2.172   0.504   0.560 -0.6449 -0.0508  0.5827
16744TIP3    H171647   2.203   0.415   0.545 -0.7679 -0.2366  1.3771
16744TIP3    H271648   2.114   0.522   0.486  0.1874 -0.2382 -0.1401
16745TIP3   OH271649   4.253   0.221  15.207 -0.2464 -0.4287 -0.4132
16745TIP3    H171650   4.162   0.223  15.180 -0.7105  1.1023  1.1627
16745TIP3    H271651   4.286   0.309  15.190  0.3886 -0.4101  0.8052
16746TIP3   OH271652   1.523   3.406  16.598 -0.0473 -0.2558  0.1199
16746TIP3    H171653   1.614   3.436  16.602 -0.4790  1.4083 -1.2295
16746TIP3    H271654   1.496   3.422  16.507 -2.3810  1.5652  1.0200
16747TIP3   OH271655   5.890   2.498   1.162 -0.3166  0.1567 -0.0608
16747TIP3    H171656   5.832   2.569   1.190  0.8922  1.4025 -0.5888
16747TIP3    H271657   5.878   2.493   1.067 -0.5540 -0.5137 -0.0030
16748TIP3   OH271658   4.029   4.304   6.399  0.3137 -0.1541 -0.3329
16748TIP3    H171659   3.942   4.299   6.358 -0.2361 -0.3828  0.8249
16748TIP3    H271660   4.029   4.389   6.443 -0.4329 -1.2813  2.0028
16749TIP3   OH271661   3.312   2.816   4.398 -0.2598  0.0577 -0.2799
16749TIP3    H171662   3.393   2.821   4.347  0.3267  0.6361  0.6767
16749TIP3    H271663   3.332   2.757   4.471 -0.7874 -0.0172 -0.1883
16750TIP3   OH271664   4.516   5.441  15.685  0.0332  0.0917 -0.7267
16750TIP3    H171665   4.540   5.438  15.778  0.1084 -0.7627 -0.7586
16750TIP3    H271666   4.576   5.378  15.644  0.1067  0.5873 -1.3776
16751TIP3   OH271667   1.937   1.059   5.571  0.3300 -0.5069  0.1720
16751TIP3    H171668   1.938   1.147   5.533 -3.3619 -1.4151 -2.6042
16751TIP3    H271669   1.874   1.064   5.642  1.2456 -0.6070  1.0026
16752TIP3   OH271670   0.739   4.526  12.280 -0.3081  0.4045 -0.1496
16752TIP3    H171671   0.688   4.560  12.207 -2.0741 -0.7048  0.5224
16752TIP3    H271672   0.780   4.446  12.246  1.5476  1.6003 -0.8671
16753TIP3   OH271673   3.675   4.288  17.248  0.4057  0.4493  0.6675
16753TIP3    H171674   3.606   4.353  17.243  0.5033  0.4833 -0.5660
16753TIP3    H271675   3.647   4.227  17.317  0.4632  1.9301  2.0600
16754TIP3   OH271676   3.681   6.354   5.372  0.1082  0.5746  0.7073
16754TIP3    H171677   3.705   6.359   5.280  0.1122 -0.5146  0.6394
16754TIP3    H271678   3.709   6.438   5.409  1.1285  0.5790 -0.0462
16755TIP3   OH271679   4.209   3.063  16.824 -0.2620 -0.1948  0.3270
16755TIP3    H171680   4.301   3.047  16.806  0.3355  2.8315  0.0394
16755TIP3    H271681   4.173   2.978  16.850  2.8937 -1.1875  1.8519
16756TIP3   OH271682   1.325   6.021  15.928  0.3516  1.0482 -0.2354
16756TIP3    H171683   1.383   5.970  15.984  0.3605  1.3870  0.0661
16756TIP3    H271684   1.382   6.057  15.860  0.0612 -0.9743 -1.6820
16757TIP3   OH271685   6.315   0.065  12.264 -0.6578  0.7540  0.1869
16757TIP3    H171686   6.320   0.006  12.189  0.5306 -0.9245  1.4984
16757TIP3    H271687   6.252   0.024  12.323  1.5242 -0.3222  1.9350
16758TIP3   OH271688   5.670   3.987   5.283 -0.3970  0.4426  0.0572
16758TIP3    H171689   5.718   3.970   5.364 -0.8287 -0.2348  0.1802
16758TIP3    H271690   5.581   4.008   5.311 -0.3238  1.1292 -0.1998
16759TIP3   OH271691   4.018   3.530   0.480  0.7975  0.1094  0.2331
16759TIP3    H171692   4.084   3.571   0.537 -0.3777 -1.0318  2.5054
16759TIP3    H271693   3.987   3.455   0.529 -1.6137  0.1184 -1.1484
16760TIP3   OH271694   1.811   0.682  14.366 -0.7481 -0.2323 -0.1769
16760TIP3    H171695   1.727   0.724  14.384 -0.0435  0.9736  0.4288
16760TIP3    H271696   1.831   0.633  14.446 -0.2101  0.6476  0.2363
16761TIP3   OH271697   4.485   2.652   3.556 -0.3828  0.1902 -0.1407
16761TIP3    H171698   4.489   2.656   3.651  1.5294 -0.4314 -0.1540
16761TIP3    H271699   4.513   2.564   3.534 -1.7363  0.0048 -1.2836
16762TIP3   OH271700   6.717   5.989   4.053  0.8347 -0.2289 -0.0725
16762TIP3    H171701   6.812   5.987   4.056  1.0679  3.1941 -0.9688
16762TIP3    H271702   6.694   6.079   4.073 -1.9695  0.0509 -3.5466
16763TIP3   OH271703   3.737   3.871   5.932 -0.5405 -0.2331 -0.5980
16763TIP3    H171704   3.778   3.787   5.949 -2.2271 -0.9721  0.0317
16763TIP3    H271705   3.765   3.895   5.844 -0.8293 -1.9341 -1.1712
16764TIP3   OH271706   6.631   3.820  14.542 -0.2320  0.2358 -0.0681
16764TIP3    H171707   6.576   3.795  14.468 -1.0142  1.8147 -0.0669
16764TIP3    H271708   6.575   3.878  14.595  1.3753  1.8468 -0.0325
16765TIP3   OH271709   0.288   2.003   0.698 -0.0262 -0.3441 -1.3154
16765TIP3    H171710   0.319   1.977   0.785  1.0108 -1.8729 -2.0866
16765TIP3    H271711   0.237   2.082   0.713  3.0701  1.5665  0.2872
16766TIP3   OH271712   0.366   4.003   4.692  0.2111  0.3974  0.0722
16766TIP3    H171713   0.439   4.059   4.663  1.5677  0.8247  3.7767
16766TIP3    H271714   0.408   3.933   4.742 -1.7872 -1.1444 -0.3035
16767TIP3   OH271715   3.151   5.848   0.463 -0.8411 -0.3111 -0.3194
16767TIP3    H171716   3.078   5.789   0.442 -1.7871  0.3634  0.9854
16767TIP3    H271717   3.204   5.798   0.525 -1.0975 -0.1779  0.0096
16768TIP3   OH271718   4.666   4.751  10.473  0.0023 -0.0699  0.4051
16768TIP3    H171719   4.699   4.741  10.384  1.9435  0.3853  1.0233
16768TIP3    H271720   4.734   4.711  10.528  0.1974  2.0904  1.8350
16769TIP3   OH271721   0.095   0.298   4.309 -0.1497 -0.1940  0.2298
16769TIP3    H171722   0.072   0.332   4.223 -0.2971 -1.5767 -0.3121
16769TIP3    H271723   0.072   0.368   4.370  0.3730  0.9723 -0.8852
16770TIP3   OH271724   5.066   0.639   0.228  0.0873 -0.1527 -0.6493
16770TIP3    H171725   5.010   0.621   0.303  3.2086  2.2174  2.5578
16770TIP3    H271726   5.093   0.552   0.197 -0.7338 -1.2151  1.4126
16771TIP3   OH271727   0.730   5.107   4.641 -0.4407  0.3354  0.1581
16771TIP3    H171728   0.823   5.114   4.663 -0.4631  0.2644  0.2763
16771TIP3    H271729   0.707   5.016   4.661 -0.0642 -0.2185 -1.7456
16772TIP3   OH271730   1.337   6.005   5.947  0.1577  0.0388 -0.3834
16772TIP3    H171731   1.314   6.005   6.040 -0.4696  0.9259 -0.5284
16772TIP3    H271732   1.426   6.040   5.945  0.1711  0.0260 -0.1212
16773TIP3   OH271733   3.137   2.885   4.190 -0.0095 -0.6395 -0.0681
16773TIP3    H171734   3.196   2.870   4.264  0.5155 -0.0465 -0.3525
16773TIP3    H271735   3.170   2.828   4.121  1.3169  0.9426 -0.7924
16774TIP3   OH271736   2.786   2.299   0.335 -0.3546  0.0712  0.0589
16774TIP3    H171737   2.695   2.303   0.365 -0.2132  1.9504  0.3915
16774TIP3    H271738   2.828   2.376   0.375  0.5219  1.1973 -2.7449
16775TIP3   OH271739   1.016   2.160  15.979 -0.2458  0.2674  0.0587
16775TIP3    H171740   0.999   2.085  16.035 -1.3042  0.8516  0.5432
16775TIP3    H271741   1.106   2.147  15.948  0.8221  0.5423  2.8326
16776TIP3   OH271742   0.217   3.905  16.802  0.0209  0.3401 -0.4805
16776TIP3    H171743   0.249   3.924  16.714 -0.4398  1.8324 -0.3597
16776TIP3    H271744   0.123   3.923  16.798 -0.3286 -1.2114 -0.0973
16777TIP3   OH271745   2.004   4.626  11.487  0.3296  0.2932 -0.7495
16777TIP3    H171746   2.037   4.536  11.485 -0.6393 -0.0744 -0.6385
16777TIP3    H271747   2.025   4.657  11.575  1.0807  0.3448 -0.9392
16778TIP3   OH271748   1.946   5.916  14.075 -0.1713 -0.3630  0.7788
16778TIP3    H171749   1.923   6.009  14.081  3.5380  0.7031  0.9762
16778TIP3    H271750   2.032   5.915  14.033  0.2218 -3.6859  1.3857
16779TIP3   OH271751   6.664   2.204  12.043 -0.3826  0.3601  0.6462
16779TIP3    H171752   6.599   2.234  12.106 -1.6408 -0.2641 -0.3063
16779TIP3    H271753   6.730   2.160  12.096 -1.2152  0.1822  1.5720
16780TIP3   OH271754   1.661   3.205  11.057 -0.0890  0.2086  0.2924
16780TIP3    H171755   1.666   3.221  11.152  2.8417 -0.8260  0.4027
16780TIP3    H271756   1.679   3.291  11.018  1.8749  0.0383  0.7468
16781TIP3   OH271757   0.585   3.075   6.198 -0.5454 -0.2722  0.8559
16781TIP3    H171758   0.680   3.082   6.208 -0.2351 -2.0731 -0.3356
16781TIP3    H271759   0.562   2.994   6.242 -1.1911 -0.8999 -0.5698
16782TIP3   OH271760   5.638   2.703   6.012  0.4135 -0.1208  0.1715
16782TIP3    H171761   5.568   2.765   5.991 -0.5798 -1.2660 -0.0165
16782TIP3    H271762   5.642   2.702   6.107  1.0290  0.8610  0.1647
16783TIP3   OH271763   6.277   6.283   2.329 -0.3009 -0.0214 -0.2819
16783TIP3    H171764   6.235   6.354   2.280  0.9398  0.7925 -0.2294
16783TIP3    H271765   6.357   6.264   2.279 -0.6921 -1.5115 -0.3816
16784TIP3   OH271766   2.994   6.757   4.626 -0.1317  0.0749  0.2842
16784TIP3    H171767   2.900   6.775   4.635 -0.0632 -0.3616  2.2942
16784TIP3    H271768   3.031   6.783   4.710  1.3415 -1.0026  0.0030
16785TIP3   OH271769   3.644   0.200  14.095  0.5900  0.0039 -0.0142
16785TIP3    H171770   3.550   0.206  14.112  0.2088 -1.3109 -1.3998
16785TIP3    H271771   3.681   0.164  14.176  0.0285  1.1560  0.7805
16786TIP3   OH271772   0.880   0.347  12.642  0.6491 -0.4996 -0.1757
16786TIP3    H171773   0.850   0.264  12.606 -1.0376  0.1017 -0.2479
16786TIP3    H271774   0.859   0.343  12.735  2.3147 -0.8760  0.2199
16787TIP3   OH271775   3.890   5.629  10.685  0.0373  0.2451 -0.0929
16787TIP3    H171776   3.971   5.643  10.636 -0.7861  0.1689 -1.5112
16787TIP3    H271777   3.858   5.543  10.657  0.0623 -0.2720  1.3550
16788TIP3   OH271778   4.621   2.247   1.446  0.1355 -0.3669 -0.3377
16788TIP3    H171779   4.582   2.271   1.362 -2.5190  0.0276  0.9148
16788TIP3    H271780   4.597   2.155   1.458 -0.5021 -0.1095  0.4677
16789TIP3   OH271781   1.187   3.977  14.343  0.1734  0.4441  0.3862
16789TIP3    H171782   1.172   3.954  14.435  0.2083  0.2394  0.3423
16789TIP3    H271783   1.111   3.942  14.297 -1.3742  3.1425  0.6994
16790TIP3   OH271784   1.094   4.060  15.384 -0.1523 -0.4536 -0.1213
16790TIP3    H171785   1.182   4.023  15.375  0.2356  0.4041  0.0979
16790TIP3    H271786   1.056   4.052  15.296  2.1731  4.2152 -1.9268
16791TIP3   OH271787   0.313   3.644  12.869  0.6009 -0.1239 -0.5398
16791TIP3    H171788   0.370   3.702  12.919 -0.5597  1.1632 -0.6566
16791TIP3    H271789   0.230   3.647  12.915  0.6636 -2.2042 -0.2071
16792TIP3   OH271790   3.755   4.660  12.195 -0.2755 -0.1628  0.7909
16792TIP3    H171791   3.842   4.621  12.185 -0.4539 -0.8778  1.8871
16792TIP3    H271792   3.767   4.752  12.170  0.5567 -0.4878 -0.0543
16793TIP3   OH271793   5.444   5.795   5.904  0.0232 -0.4000  0.4516
16793TIP3    H171794   5.360   5.763   5.936 -0.7552  0.6656 -0.4431
16793TIP3    H271795   5.449   5.763   5.814 -0.5834  1.5606 -0.3261
16794TIP3   OH271796   5.219   0.324   6.344 -0.6089 -0.0851  0.5069
16794TIP3    H171797   5.225   0.299   6.437  0.0954 -0.4398  0.3759
16794TIP3    H271798   5.237   0.243   6.297 -0.4802  0.2052  0.0569
16795TIP3   OH271799   4.709   0.610  12.556  0.0003 -0.4586  0.2428
16795TIP3    H171800   4.679   0.597  12.646 -1.2304  1.5127  0.1665
16795TIP3    H271801   4.783   0.550  12.547 -0.3808 -1.3180  2.2821
16796TIP3   OH271802   0.818   2.956   0.936  0.1261 -0.7742 -0.3049
16796TIP3    H171803   0.820   2.993   1.025  0.6408 -2.9600  0.6479
16796TIP3    H271804   0.725   2.947   0.916 -0.0749 -2.9231  1.2549
16797TIP3   OH271805   0.891   3.873  12.354 -0.9337  0.1920 -0.5989
16797TIP3    H171806   0.924   3.922  12.279 -0.8113  1.6199  0.3552
16797TIP3    H271807   0.916   3.926  12.430 -1.4179 -1.0095  0.4290
16798TIP3   OH271808   0.603   1.766  17.092 -0.1990  0.8960 -0.4441
16798TIP3    H171809   0.543   1.748  17.165 -1.3837 -0.1378 -1.6303
16798TIP3    H271810   0.689   1.768  17.133 -0.8590  0.6731  1.0458
16799TIP3   OH271811   2.857   1.684   3.317 -0.2571  0.0870 -0.0087
16799TIP3    H171812   2.912   1.726   3.383 -0.5337 -1.3599  1.1836
16799TIP3    H271813   2.890   1.594   3.313 -0.4796  0.0433 -1.6059
16800TIP3   OH271814   5.080   2.788  11.856  0.2583  0.4548  0.2554
16800TIP3    H171815   4.999   2.790  11.806 -0.2638  0.3281  1.0706
16800TIP3    H271816   5.084   2.874  11.898  0.6964  0.5655 -0.0031
16801TIP3   OH271817   3.547   3.903  12.149 -0.1925  0.3805  0.0981
16801TIP3    H171818   3.544   3.814  12.182 -0.8568 -0.2102 -1.4495
16801TIP3    H271819   3.625   3.906  12.093  0.4054  1.0923  0.9294
16802TIP3   OH271820   0.421   2.190  13.954  0.2764 -0.0291 -0.1738
16802TIP3    H171821   0.500   2.167  13.906  1.3023  1.3101  0.7884
16802TIP3    H271822   0.388   2.269  13.911  0.0601  0.0296  0.0931
16803TIP3   OH271823   4.535   1.602   3.523 -0.6223  0.2146 -0.4446
16803TIP3    H171824   4.565   1.684   3.561 -2.4153  1.0602 -0.7262
16803TIP3    H271825   4.535   1.618   3.428  1.4082 -1.0164 -0.7200
16804TIP3   OH271826   2.980   0.235   4.000 -0.3279  0.0241  0.4493
16804TIP3    H171827   3.048   0.251   3.935  0.0595  0.5428  0.9612
16804TIP3    H271828   2.966   0.321   4.041 -1.1313 -0.1269  0.5058
16805TIP3   OH271829   4.275   5.383   1.387  0.3962  0.2582 -0.1719
16805TIP3    H171830   4.196   5.392   1.441  0.6423 -1.6470  0.5624
16805TIP3    H271831   4.242   5.355   1.301  0.2453 -0.2271  0.0419
16806TIP3   OH271832   2.262   4.468  17.043 -0.2323 -0.1667  0.3468
16806TIP3    H171833   2.245   4.553  17.084  0.0012  0.1373 -0.1766
16806TIP3    H271834   2.306   4.418  17.111 -0.9679 -0.1034  0.8821
16807TIP3   OH271835   2.987   2.385   1.356 -0.3934 -0.1351  0.1936
16807TIP3    H171836   2.980   2.481   1.357  0.5371  0.0011 -1.3518
16807TIP3    H271837   2.897   2.355   1.350 -0.7966  0.5687  2.1770
16808TIP3   OH271838   5.223   0.388  13.162  0.3395 -0.4163 -0.4751
16808TIP3    H171839   5.300   0.392  13.104  1.7412  0.9561  1.3465
16808TIP3    H271840   5.167   0.459  13.131  0.8912  0.0538 -0.4278
16809TIP3   OH271841   3.049   5.964  13.594  0.1668 -0.1532 -0.0870
16809TIP3    H171842   3.137   5.934  13.570  0.1787 -0.3903  0.2433
16809TIP3    H271843   3.063   6.050  13.634  0.1859  0.0690 -0.5627
16810TIP3   OH271844   5.664   1.651   6.601  0.2859 -0.0536 -0.4332
16810TIP3    H171845   5.637   1.582   6.662 -1.3627  1.0053  0.1175
16810TIP3    H271846   5.701   1.604   6.527 -0.3649 -1.5156  0.1187
16811TIP3   OH271847   1.813   6.133  12.202  0.0072  0.0554 -0.3404
16811TIP3    H171848   1.897   6.179  12.212  0.8779 -1.3253 -0.9712
16811TIP3    H271849   1.762   6.158  12.279  0.5032  1.9055 -0.5640
16812TIP3   OH271850   2.656   6.389   5.802  0.2110 -0.4324  0.1311
16812TIP3    H171851   2.630   6.433   5.883  2.6566 -2.2424  2.0819
16812TIP3    H271852   2.575   6.378   5.753 -1.1755  1.8346  1.7437
16813TIP3   OH271853   6.580   3.585  14.763 -0.5600  0.0238 -0.3540
16813TIP3    H171854   6.597   3.594  14.669  0.6408 -0.8388 -0.2336
16813TIP3    H271855   6.490   3.617  14.774 -0.6784  0.2364 -1.7724
16814TIP3   OH271856   6.426   4.527   1.523  0.3195 -0.0440 -0.8875
16814TIP3    H171857   6.484   4.500   1.594 -1.0290  0.3378  0.4142
16814TIP3    H271858   6.408   4.620   1.540 -0.9964 -0.2526 -0.9674
16815TIP3   OH271859   5.863   6.060  12.504  0.5975  0.6606 -0.2899
16815TIP3    H171860   5.815   6.126  12.554 -0.8308 -0.9823  0.6368
16815TIP3    H271861   5.943   6.104  12.477 -0.5528  2.9333 -0.2367
16816TIP3   OH271862   1.256   1.803  10.530  0.5570 -0.4295  0.7661
16816TIP3    H171863   1.231   1.712  10.517 -1.3133  0.2327 -0.7298
16816TIP3    H271864   1.173   1.849  10.543  1.3662  1.2427  0.2457
16817TIP3   OH271865   0.448   1.981   2.477 -0.0599 -0.0907  0.5998
16817TIP3    H171866   0.408   1.916   2.535 -3.0917 -0.3757 -1.5582
16817TIP3    H271867   0.419   1.957   2.390  2.0244  1.9162 -0.7631
16818TIP3   OH271868   5.543   4.409  15.814 -0.1810 -0.6107  0.2416
16818TIP3    H171869   5.619   4.451  15.855 -1.1346  0.9581  0.4592
16818TIP3    H271870   5.472   4.420  15.876 -0.9158 -0.9002 -0.5232
16819TIP3   OH271871   3.054   3.185  16.081  0.8486  0.1348 -0.6445
16819TIP3    H171872   3.047   3.199  15.987 -0.4157  0.0936 -0.5732
16819TIP3    H271873   3.103   3.261  16.113 -0.0142  0.9126 -1.1460
16820TIP3   OH271874   2.205   0.218  10.510  0.2843  0.2381 -0.0151
16820TIP3    H171875   2.110   0.227  10.499 -0.0904  0.6254  2.7500
16820TIP3    H271876   2.240   0.305  10.490 -0.1228  0.4586  0.2094
16821TIP3   OH271877   0.451   4.689   2.009 -0.1580 -0.3625  0.0771
16821TIP3    H171878   0.489   4.641   1.936  0.5888  0.1651  0.1002
16821TIP3    H271879   0.361   4.706   1.983 -0.3628 -1.5560 -0.0274
16822TIP3   OH271880   4.861   3.710   4.960 -0.4978  0.3332 -0.5574
16822TIP3    H171881   4.927   3.640   4.960 -0.0949  0.6471  1.2763
16822TIP3    H271882   4.906   3.786   4.924  0.1813  0.5393  0.6650
16823TIP3   OH271883   3.133   2.636   5.153 -0.0036  0.3023 -0.0087
16823TIP3    H171884   3.070   2.707   5.167  0.3366  0.3229  1.5787
16823TIP3    H271885   3.134   2.624   5.058 -1.1108  1.4658 -0.2022
16824TIP3   OH271886   5.943   3.716  13.239  0.1322 -0.7996  0.0962
16824TIP3    H171887   6.020   3.675  13.200  2.7115  2.4522  1.3244
16824TIP3    H271888   5.921   3.787  13.178  1.1069  1.1770  1.9145
16825TIP3   OH271889   3.932   3.588   4.196 -0.1822 -0.0990  0.0066
16825TIP3    H171890   3.920   3.662   4.137  0.5481 -1.0047 -1.3323
16825TIP3    H271891   3.850   3.540   4.192 -0.0339 -0.3147 -0.5130
16826TIP3   OH271892   0.891   1.413   1.988  0.7693 -0.1205  0.1998
16826TIP3    H171893   0.968   1.465   2.012 -0.5171  1.8612  0.2548
16826TIP3    H271894   0.836   1.474   1.939 -0.4041 -1.7344 -0.5443
16827TIP3   OH271895   3.659   2.204   1.571 -0.1942  0.7758  0.8753
16827TIP3    H171896   3.621   2.135   1.516 -1.0322 -0.3250  2.7218
16827TIP3    H271897   3.753   2.199   1.554 -0.3250 -0.2732  0.3703
16828TIP3   OH271898   3.559   1.998   1.455  0.1153 -0.4038 -0.1159
16828TIP3    H171899   3.534   1.917   1.410 -0.6631  0.9771 -2.3086
16828TIP3    H271900   3.476   2.031   1.491  0.0893  0.3633 -0.8670
16829TIP3   OH271901   2.625   1.996   2.064  0.3232  0.2533 -0.4659
16829TIP3    H171902   2.672   2.062   2.014  0.3844  1.5250  1.1728
16829TIP3    H271903   2.693   1.947   2.110  0.1578  0.8468  0.4268
16830TIP3   OH271904   2.071   1.483  13.907  0.0060 -0.2428 -0.3131
16830TIP3    H171905   2.134   1.534  13.958  1.1151 -1.9437  0.1179
16830TIP3    H271906   1.993   1.480  13.963  0.0886  0.5592 -0.1397
16831TIP3   OH271907   2.669   1.678   1.680  0.6337  0.1470 -0.3050
16831TIP3    H171908   2.636   1.767   1.668 -1.3803 -0.6536 -1.1319
16831TIP3    H271909   2.760   1.681   1.648  0.3551  1.7103 -1.0313
16832TIP3   OH271910   1.543   3.188  13.131 -0.1061 -0.4676  0.3097
16832TIP3    H171911   1.497   3.112  13.096 -1.1105 -0.7994  2.2219
16832TIP3    H271912   1.575   3.160  13.217  0.8511  0.7987  0.4006
16833TIP3   OH271913   0.300   4.871   6.215 -0.0962 -0.0862  0.6608
16833TIP3    H171914   0.395   4.871   6.222 -0.0306 -1.8268  0.1627
16833TIP3    H271915   0.270   4.818   6.289 -0.7337  0.9252  1.1541
16834TIP3   OH271916   0.148   4.236  15.031  0.2943  0.1849 -0.0643
16834TIP3    H171917   0.058   4.211  15.009  0.9000 -1.6234 -0.6775
16834TIP3    H271918   0.182   4.161  15.081  2.7425 -1.1540 -3.3888
16835TIP3   OH271919   3.858   5.899   1.902 -0.0241 -0.2306  0.2765
16835TIP3    H171920   3.911   5.978   1.902  0.2130 -0.3738 -1.0451
16835TIP3    H271921   3.793   5.913   1.833  0.3787 -1.4131 -0.3663
16836TIP3   OH271922   3.309   3.699  15.632 -0.2054  0.2150 -0.1735
16836TIP3    H171923   3.259   3.662  15.560  1.1111  0.9500 -1.5359
16836TIP3    H271924   3.378   3.750  15.589 -0.2564  1.9103  1.6022
16837TIP3   OH271925   4.972   2.770   2.137 -0.4681 -0.6135 -0.0789
16837TIP3    H171926   4.970   2.695   2.078  0.3530 -0.1685 -0.6940
16837TIP3    H271927   4.936   2.842   2.086 -0.1244 -0.3133  0.0937
16838TIP3   OH271928   6.313   2.769  12.253 -0.3876  0.5058  0.1919
16838TIP3    H171929   6.349   2.681  12.258  1.1640  1.0337 -0.7548
16838TIP3    H271930   6.383   2.821  12.211 -2.2939  1.5640 -1.9184
16839TIP3   OH271931   4.096   5.513  13.097 -0.5092 -0.3283  0.0179
16839TIP3    H171932   4.169   5.516  13.159 -0.8060  0.1418  0.3549
16839TIP3    H271933   4.133   5.474  13.018  0.3477  0.7732 -0.1466
16840TIP3   OH271934   4.757   2.332  11.180  0.7035  0.4262 -0.1280
16840TIP3    H171935   4.711   2.324  11.263 -0.4757  1.0616 -0.6919
16840TIP3    H271936   4.799   2.419  11.185 -0.0931  0.8420 -0.5329
16841TIP3   OH271937   0.821   3.718  14.830  0.1295 -0.1449 -0.0394
16841TIP3    H171938   0.734   3.740  14.863  0.8302  1.8831  0.6226
16841TIP3    H271939   0.812   3.723  14.734 -0.2708  1.1193  0.0435
16842TIP3   OH271940   6.498   2.552  12.390 -0.4699  0.1346  0.2391
16842TIP3    H171941   6.514   2.539  12.483 -0.4062  1.2838  0.4101
16842TIP3    H271942   6.477   2.645  12.382 -0.7852 -0.0103 -0.8530
16843TIP3   OH271943   4.590   1.511  17.241 -0.0411  0.8574 -0.7167
16843TIP3    H171944   4.589   1.565  17.162 -2.5503  0.4086 -1.0712
16843TIP3    H271945   4.518   1.450  17.228  0.6728 -0.4306  1.1345
16844TIP3   OH271946   1.258   4.792   0.975  0.0700  0.1340 -0.0953
16844TIP3    H171947   1.254   4.717   1.034 -1.0031  0.2936  0.0432
16844TIP3    H271948   1.342   4.782   0.930  0.3593 -0.6361  0.5937
16845TIP3   OH271949   5.609   4.541   2.462 -0.1971 -0.3353  0.8886
16845TIP3    H171950   5.610   4.515   2.554 -0.8706 -2.2028  0.4087
16845TIP3    H271951   5.683   4.495   2.423  1.1817  1.8264  0.7788
16846TIP3   OH271952   0.586   6.233   6.574  0.1350  0.4006  0.3590
16846TIP3    H171953   0.665   6.255   6.524 -0.5210  0.2194 -0.7942
16846TIP3    H271954   0.514   6.262   6.518 -0.6840 -1.6514  0.2603
16847TIP3   OH271955   5.175   0.582  13.538  0.9269  0.3077 -0.6329
16847TIP3    H171956   5.230   0.505  13.550 -1.0474 -1.4769 -2.3486
16847TIP3    H271957   5.141   0.601  13.626  0.8884 -1.2128 -0.3031
16848TIP3   OH271958   5.743   1.939  11.788 -0.2482  0.3722 -0.0300
16848TIP3    H171959   5.740   2.033  11.771  2.0345  0.4848 -0.1376
16848TIP3    H271960   5.785   1.931  11.874 -0.0892 -0.5589 -0.1811
16849TIP3   OH271961   3.474   4.823   3.856  0.3559 -1.1979 -0.5014
16849TIP3    H171962   3.382   4.813   3.881  0.7541 -1.9387  0.7737
16849TIP3    H271963   3.471   4.874   3.775 -1.1420 -0.6778 -0.1622
16850TIP3   OH271964   0.000   6.122  12.154 -0.1320 -0.2005  0.5751
16850TIP3    H171965   0.053   6.155  12.227  0.0435  1.3592 -0.2284
16850TIP3    H271966   0.058   6.124  12.079 -0.9499  0.3074 -0.0546
16851TIP3   OH271967   5.967   2.777   3.469  0.4694 -0.1146 -0.0207
16851TIP3    H171968   6.032   2.772   3.399  0.0316  1.1984 -0.5518
16851TIP3    H271969   5.986   2.860   3.513  0.1747 -0.5075  0.8525
16852TIP3   OH271970   0.777   4.943   5.852  0.3179  0.2038 -0.2964
16852TIP3    H171971   0.820   5.002   5.914 -0.1602  1.2573 -0.9374
16852TIP3    H271972   0.686   4.975   5.848 -0.1817 -1.1173 -0.0040
16853TIP3   OH271973   2.033   3.097  15.390  0.1427 -0.4127  0.2346
16853TIP3    H171974   1.990   3.092  15.475 -0.3871  0.1279  0.0091
16853TIP3    H271975   1.960   3.095  15.327  0.5889 -2.9186 -0.3104
16854TIP3   OH271976   5.990   4.694  10.723 -0.1988  0.0377 -1.1215
16854TIP3    H171977   6.006   4.749  10.800  0.8923 -0.2640 -1.1146
16854TIP3    H271978   5.895   4.684  10.720 -0.2080 -1.0681  0.9912
16855TIP3   OH271979   3.890   1.209  16.821 -0.6113 -0.1592  0.1777
16855TIP3    H171980   3.832   1.133  16.819 -1.0571  0.1509  1.0513
16855TIP3    H271981   3.967   1.181  16.772 -0.7036 -1.2274  0.6163
16856TIP3   OH271982   3.097   5.141   5.186  0.4179 -0.2975 -0.6199
16856TIP3    H171983   3.179   5.092   5.178  0.8467  0.2788  0.0806
16856TIP3    H271984   3.043   5.111   5.112  1.0559 -1.0609 -0.7891
16857TIP3   OH271985   6.344   4.684  15.074  0.1773 -0.5385 -0.1364
16857TIP3    H171986   6.413   4.682  15.141 -0.4885 -0.1141  0.5771
16857TIP3    H271987   6.337   4.593  15.044  0.9794 -0.6032 -0.1625
16858TIP3   OH271988   5.373   2.526  15.720 -0.0630 -0.6855  0.4384
16858TIP3    H171989   5.381   2.529  15.815  0.6439  0.9192  0.3644
16858TIP3    H271990   5.281   2.546  15.703  0.1925  0.8533  0.7508
16859TIP3   OH271991   4.127   0.223   3.893  0.9055 -0.1899  0.1171
16859TIP3    H171992   4.169   0.150   3.940 -0.2078  0.8019  2.8444
16859TIP3    H271993   4.187   0.297   3.905  0.6855  0.0433 -0.2013
16860TIP3   OH271994   1.592   6.675   0.109  0.2221  0.6318  0.2561
16860TIP3    H171995   1.668   6.634   0.069 -0.1568  1.6635 -1.6507
16860TIP3    H271996   1.555   6.731   0.040 -2.1062  0.3896  1.1954
16861TIP3   OH271997   5.277   4.908  14.963  0.0098  0.6608 -0.1074
16861TIP3    H171998   5.243   4.848  14.897  0.1688 -0.5153  0.8471
16861TIP3    H271999   5.224   4.987  14.953 -4.0523 -1.4465  2.1068
16862TIP3   OH272000   4.489   2.964  16.503 -0.3118 -0.4200 -0.0195
16862TIP3    H172001   4.394   2.963  16.490 -0.4838 -1.1170  1.1298
16862TIP3    H272002   4.500   2.979  16.597  0.6951 -0.8448 -0.0577
16863TIP3   OH272003   4.168   0.266   5.518 -0.1564 -0.6976  0.3769
16863TIP3    H172004   4.093   0.224   5.476  1.3260 -1.4010 -1.7026
16863TIP3    H272005   4.162   0.358   5.492 -0.0965 -0.8222 -0.0746
16864TIP3   OH272006   2.510   1.766   3.755  0.1678  0.1377  0.8308
16864TIP3    H172007   2.466   1.760   3.840 -0.6386  1.0280  0.4905
16864TIP3    H272008   2.479   1.689   3.707 -0.5360  0.4274  0.8154
16865TIP3   OH272009   0.341   4.120   0.319 -0.2837  0.1090 -0.0175
16865TIP3    H172010   0.250   4.145   0.302 -0.4724 -1.4375 -1.5126
16865TIP3    H272011   0.392   4.165   0.252 -0.2076 -0.5902 -0.4421
16866TIP3   OH272012   2.321   6.141  16.728 -0.0279  0.2179 -0.0103
16866TIP3    H172013   2.344   6.226  16.690  0.9350 -0.4885 -1.1260
16866TIP3    H272014   2.239   6.156  16.775 -0.7917  1.3832 -1.6144
16867TIP3   OH272015   3.979   4.224   3.724 -0.0292 -0.2994  0.3896
16867TIP3    H172016   3.906   4.257   3.670  0.3750 -2.9252 -1.9865
16867TIP3    H272017   4.048   4.204   3.660  1.7079 -0.6348  2.2887
16868TIP3   OH272018   1.441   6.449   3.493 -1.0232  0.0531  0.3638
16868TIP3    H172019   1.407   6.477   3.578 -0.0215  0.0611  0.7733
16868TIP3    H272020   1.366   6.408   3.450 -1.0271 -1.9785  2.1463
16869TIP3   OH272021   2.356   5.732   4.509 -0.6053  0.0224 -0.2077
16869TIP3    H172022   2.375   5.741   4.416 -1.1659 -0.2378 -0.3505
16869TIP3    H272023   2.422   5.670   4.542 -1.0946 -0.7498 -0.6585
16870TIP3   OH272024   4.426   5.731  12.228 -0.0565  0.0956 -0.2357
16870TIP3    H172025   4.387   5.719  12.315 -1.3821 -0.7327 -0.9036
16870TIP3    H272026   4.437   5.642  12.194 -0.1854  0.4280 -1.1751
16871TIP3   OH272027   0.255   6.081   1.732  0.2365 -0.3187 -0.2162
16871TIP3    H172028   0.298   6.142   1.673  0.0441 -0.8349 -0.9009
16871TIP3    H272029   0.179   6.129   1.766  1.7103  0.8712  1.5876
16872TIP3   OH272030   6.625   5.413  14.919 -0.5926  0.0386  0.1354
16872TIP3    H172031   6.654   5.456  14.838 -1.2319  0.2521  0.0117
16872TIP3    H272032   6.643   5.477  14.988  1.1450 -0.6341  0.3572
16873TIP3   OH272033   1.146   2.112  12.574  0.1111 -0.2838  0.4249
16873TIP3    H172034   1.086   2.174  12.613  1.1609 -0.3568  2.3061
16873TIP3    H272035   1.125   2.028  12.616  1.9934 -0.1510  1.7894
16874TIP3   OH272036   0.763   0.163  17.047 -0.2092  0.1233 -0.0559
16874TIP3    H172037   0.694   0.121  16.996 -1.1805  1.7018 -0.1095
16874TIP3    H272038   0.845   0.134  17.006 -0.6842 -3.0426  0.9681
16875TIP3   OH272039   1.266   1.092   5.595  0.2273  0.1021 -0.0762
16875TIP3    H172040   1.315   1.090   5.513  0.0437 -1.2739 -0.1692
16875TIP3    H272041   1.270   1.002   5.628 -2.0425 -0.0174  0.0240
16876TIP3   OH272042   3.627   2.443   3.497  0.0252 -0.3104  0.5423
16876TIP3    H172043   3.701   2.497   3.525  0.4625 -0.1470 -0.8666
16876TIP3    H272044   3.579   2.499   3.436 -0.0377 -1.1736 -0.2188
16877TIP3   OH272045   5.357   3.355  13.599 -0.0807 -0.5340  0.4187
16877TIP3    H172046   5.386   3.266  13.578 -1.3824 -0.9113  0.1198
16877TIP3    H272047   5.390   3.409  13.527  0.6466 -0.7878  0.5599
16878TIP3   OH272048   2.139   0.994  15.187 -0.4956 -0.4656  0.4400
16878TIP3    H172049   2.067   1.054  15.168  0.5061  0.5062 -0.3924
16878TIP3    H272050   2.155   0.948  15.105  1.0030  0.6259  0.0972
16879TIP3   OH272051   3.750   4.565   6.293  0.4235 -0.2167 -0.9048
16879TIP3    H172052   3.716   4.477   6.308 -1.9975  0.8075  0.1357
16879TIP3    H272053   3.817   4.577   6.361 -2.3312  0.2012  1.9885
16880TIP3   OH272054   4.048   0.191  13.306 -0.3173  0.1760 -0.1610
16880TIP3    H172055   4.058   0.286  13.306  0.1783  0.1272  0.1802
16880TIP3    H272056   4.106   0.160  13.237  0.8731 -0.0048  0.9007
16881TIP3   OH272057   2.052   5.582   4.275  0.2885  0.0607 -0.1484
16881TIP3    H172058   1.978   5.550   4.327  0.2241  0.9079  0.2966
16881TIP3    H272059   2.028   5.672   4.252  0.9680  0.1793 -0.4045
16882TIP3   OH272060   1.400   3.643  11.586 -1.1246  0.6010  0.5206
16882TIP3    H172061   1.343   3.606  11.519 -1.8813  0.1619  1.3824
16882TIP3    H272062   1.362   3.613  11.669  0.2156  0.5047  1.1249
16883TIP3   OH272063   3.407   3.659   4.803  0.3051 -0.3741  0.1138
16883TIP3    H172064   3.391   3.740   4.852  0.8101  1.3321 -2.3432
16883TIP3    H272065   3.333   3.653   4.742  1.8732  0.0708 -1.9310
16884TIP3   OH272066   4.858   4.921  17.000 -0.9001  0.4099  0.2419
16884TIP3    H172067   4.814   4.866  17.065 -2.8999  0.1896 -1.1738
16884TIP3    H272068   4.951   4.910  17.017 -1.3239 -0.9333  1.9766
16885TIP3   OH272069   1.745   4.572   5.195  0.3297 -0.0669  0.1593
16885TIP3    H172070   1.832   4.609   5.211 -0.2730  1.3870  0.1754
16885TIP3    H272071   1.691   4.602   5.268 -0.8270  1.2726 -1.1787
16886TIP3   OH272072   1.633   1.846   1.134  0.2547 -0.3456 -0.2232
16886TIP3    H172073   1.546   1.813   1.157  0.8830 -1.2346  0.9787
16886TIP3    H272074   1.693   1.780   1.168  1.4586  0.8118 -0.0471
16887TIP3   OH272075   5.064   1.418  10.653  0.0564  0.0209  0.1155
16887TIP3    H172076   5.001   1.485  10.629 -0.2406 -0.3360 -0.1018
16887TIP3    H272077   5.091   1.442  10.742 -0.3295  0.2157  0.1839
16888TIP3   OH272078   3.970   6.755  11.537  0.5298  0.0208  0.6709
16888TIP3    H172079   4.021   6.813  11.594 -0.0540  0.7934  0.4197
16888TIP3    H272080   3.903   6.812  11.498  0.8443 -0.5164 -0.7025
16889TIP3   OH272081   2.600   4.210  16.838 -0.0525 -0.4861 -0.2466
16889TIP3    H172082   2.683   4.248  16.866  0.2154 -1.0233 -0.3128
16889TIP3    H272083   2.549   4.285  16.807  0.0627 -0.0290  0.6307
16890TIP3   OH272084   6.240   3.246  12.947 -0.0150  0.0334  0.5844
16890TIP3    H172085   6.182   3.322  12.949 -0.6392 -0.3853 -0.5647
16890TIP3    H272086   6.286   3.253  12.863  2.7856  1.1722  2.1047
16891TIP3   OH272087   6.482   6.433   5.100  0.3318  0.5268 -0.5325
16891TIP3    H172088   6.494   6.515   5.052  2.4442  0.8066  0.3605
16891TIP3    H272089   6.448   6.460   5.185 -0.5910  0.2931 -0.8135
16892TIP3   OH272090   0.715   2.464   4.029  0.1446 -0.3030  0.0685
16892TIP3    H172091   0.677   2.380   4.004  1.0108 -0.8337  0.4693
16892TIP3    H272092   0.775   2.485   3.957  0.7176 -0.5674  0.4532
16893TIP3   OH272093   5.536   5.208   4.927 -0.0889 -0.6883  0.7126
16893TIP3    H172094   5.514   5.211   5.020 -2.1709 -1.0268  0.2951
16893TIP3    H272095   5.548   5.114   4.909 -1.4524 -0.8063  0.3139
16894TIP3   OH272096   0.339   4.291   4.065 -0.4453 -0.0805 -0.8167
16894TIP3    H172097   0.407   4.243   4.113  1.1196  2.8116  0.0812
16894TIP3    H272098   0.370   4.292   3.975  0.2067  0.3185 -0.5997
16895TIP3   OH272099   4.820   1.921  14.663  0.2129  0.3749  0.4962
16895TIP3    H172100   4.775   1.871  14.732  1.2269 -2.0497 -0.4904
16895TIP3    H272101   4.911   1.892  14.668  0.1133 -0.7988 -2.5593
16896TIP3   OH272102   0.854   5.144   0.055 -0.0968 -0.0606 -0.3625
16896TIP3    H172103   0.867   5.119   0.146 -1.4198  1.1059  0.1862
16896TIP3    H272104   0.893   5.072   0.005  1.5911 -0.2267  1.0850
16897TIP3   OH272105   5.379   5.116  17.284  0.4624  0.5841 -0.2832
16897TIP3    H172106   5.355   5.046  17.344 -1.3675  1.1829 -0.2567
16897TIP3    H272107   5.407   5.071  17.204  1.2547 -0.1761  0.4054
16898TIP3   OH272108   2.653   2.693   0.191  0.0297  0.5335 -0.5135
16898TIP3    H172109   2.718   2.634   0.152 -0.5092  0.0801 -0.7336
16898TIP3    H272110   2.618   2.742   0.116  2.1622  2.8816 -0.0931
16899TIP3   OH272111   4.525   4.646   4.216 -0.3660 -0.2029 -0.4407
16899TIP3    H172112   4.546   4.605   4.132  0.1330  1.6300 -1.2585
16899TIP3    H272113   4.445   4.696   4.199  0.5035  1.3207 -0.2679
16900TIP3   OH272114   2.582   2.220  15.799 -0.0657 -0.7730  0.2062
16900TIP3    H172115   2.569   2.194  15.708 -0.0786 -1.1227  0.3065
16900TIP3    H272116   2.591   2.315  15.796  0.0223 -0.7930 -0.1690
16901TIP3   OH272117   2.537   5.543  12.531 -0.2656  0.1017  0.4366
16901TIP3    H172118   2.584   5.478  12.582 -0.7305  0.5153  1.4247
16901TIP3    H272119   2.538   5.622  12.585 -3.7403 -0.3828  1.4709
16902TIP3   OH272120   2.525   5.571   1.231  0.2282  0.1703 -0.1897
16902TIP3    H172121   2.571   5.495   1.194 -0.9034 -1.2414  1.1464
16902TIP3    H272122   2.447   5.534   1.272  0.2593  1.8837  1.5854
16903TIP3   OH272123   5.377   3.847  10.917  0.2230  0.4646  0.3363
16903TIP3    H172124   5.409   3.884  10.834  1.0792 -0.1022  0.4096
16903TIP3    H272125   5.283   3.833  10.901  0.2871  0.7674 -0.3841
16904TIP3   OH272126   5.641   2.241  16.058  0.2615  0.1593  0.7216
16904TIP3    H172127   5.627   2.253  15.964 -1.0686  1.5086  1.0621
16904TIP3    H272128   5.735   2.230  16.067  0.5907  1.6053 -0.6144
16905TIP3   OH272129   3.136   4.599   1.614 -0.2164  0.0381  0.2306
16905TIP3    H172130   3.053   4.620   1.656  0.0032  0.6112  0.3859
16905TIP3    H272131   3.125   4.509   1.583 -1.7599  0.8517 -1.8241
16906TIP3   OH272132   4.215   0.892  17.149  0.0090  0.7576  0.2169
16906TIP3    H172133   4.241   0.942  17.226 -0.0142  1.9443 -0.5081
16906TIP3    H272134   4.141   0.942  17.113 -0.7913 -0.4578  0.1108
16907TIP3   OH272135   2.452   4.969  13.039  0.2139 -0.4124 -0.1451
16907TIP3    H172136   2.510   4.910  12.991 -0.5508 -0.7969 -0.6119
16907TIP3    H272137   2.366   4.927  13.035  0.1216 -0.4582  1.5564
16908TIP3   OH272138   1.972   0.089   4.505 -0.0732  0.0317 -0.4255
16908TIP3    H172139   2.008   0.001   4.491  0.3044  0.0333  0.5015
16908TIP3    H272140   1.989   0.108   4.597 -1.4342  0.5099 -0.2556
16909TIP3   OH272141   5.311   2.256   0.600  0.2795 -0.5732 -0.0895
16909TIP3    H172142   5.261   2.330   0.565  1.8874  0.5111 -0.2559
16909TIP3    H272143   5.401   2.289   0.603  0.7320 -1.8428  1.7674
16910TIP3   OH272144   2.573   1.572   5.003  0.0077  0.4638  0.1520
16910TIP3    H172145   2.644   1.621   4.962 -0.6303 -0.8445 -2.8006
16910TIP3    H272146   2.617   1.517   5.068  1.7391 -0.0774 -1.3719
16911TIP3   OH272147   0.225   0.585  12.491  0.3470 -0.1282  0.0781
16911TIP3    H172148   0.242   0.534  12.570  0.1949  0.2482  0.3581
16911TIP3    H272149   0.280   0.544  12.424  1.2053  0.1217  0.6046
16912TIP3   OH272150   5.417   2.963  16.203  0.4963  0.0315  0.1230
16912TIP3    H172151   5.510   2.958  16.181  0.3731 -0.2937 -0.3173
16912TIP3    H272152   5.401   3.056  16.219  0.6816  0.2129 -0.7471
16913TIP3   OH272153   6.477   4.011  11.388  0.1637 -0.1040  0.5203
16913TIP3    H172154   6.489   4.049  11.301 -0.0222  1.4183  1.1174
16913TIP3    H272155   6.423   3.934  11.373  0.6368 -0.2094 -0.7783
16914TIP3   OH272156   2.909   2.443  11.836  0.2000  0.2331  0.0784
16914TIP3    H172157   2.989   2.389  11.832 -0.2546 -0.3886 -1.0679
16914TIP3    H272158   2.940   2.532  11.821  0.9361  0.3098  1.7858
16915TIP3   OH272159   3.180   5.431   5.310  0.3893  0.6403  0.3054
16915TIP3    H172160   3.258   5.387   5.343  0.2272 -0.3923 -0.6264
16915TIP3    H272161   3.144   5.371   5.245 -0.6257  1.5476 -0.0067
16916TIP3   OH272162   5.898   1.898   1.876  0.5260  0.8010  0.2910
16916TIP3    H172163   5.937   1.863   1.796 -0.9649 -1.0555  0.3029
16916TIP3    H272164   5.866   1.984   1.851  0.6372  0.4988 -0.9547
16917TIP3   OH272165   5.630   6.250  16.884 -0.7262 -0.0211 -0.0472
16917TIP3    H172166   5.545   6.223  16.918  0.4632 -1.1925  2.1962
16917TIP3    H272167   5.678   6.168  16.872  0.1727  0.6309 -1.1313
16918TIP3   OH272168   0.555   2.644  13.089  0.0804 -0.4652 -0.7516
16918TIP3    H172169   0.615   2.717  13.102  0.9770 -0.7480 -2.8615
16918TIP3    H272170   0.494   2.674  13.023 -0.0794 -1.3058 -1.0053
16919TIP3   OH272171   6.498   4.040   4.816  0.6961 -0.1490 -0.4742
16919TIP3    H172172   6.491   4.093   4.895 -0.9598 -0.5891 -0.3042
16919TIP3    H272173   6.592   4.039   4.797  0.9473  1.4036  0.4806
16920TIP3   OH272174   1.229   3.303   4.611  0.0080 -0.2173 -0.3748
16920TIP3    H172175   1.230   3.362   4.686  2.5048  1.1987 -1.4243
16920TIP3    H272176   1.275   3.225   4.642  0.1871 -0.0232 -0.1505
16921TIP3   OH272177   2.967   3.659   2.345 -0.4948  0.1515  0.3023
16921TIP3    H172178   3.047   3.655   2.398 -2.0046  0.6380  2.7812
16921TIP3    H272179   2.983   3.731   2.284  0.5401  1.0432  1.5621
16922TIP3   OH272180   4.085   4.930   0.495 -0.2181 -0.3316 -0.2261
16922TIP3    H172181   4.166   4.880   0.499  0.6450  1.0792  0.9128
16922TIP3    H272182   4.018   4.870   0.529  0.6705 -0.9310  0.5262
16923TIP3   OH272183   5.613   4.826   5.145 -0.1913  0.3764 -0.1269
16923TIP3    H172184   5.581   4.916   5.153 -1.2753 -0.1319  1.9532
16923TIP3    H272185   5.541   4.778   5.103 -1.4855 -0.3135  2.6037
16924TIP3   OH272186   0.233   3.705   3.721 -0.4904 -0.0722 -0.1458
16924TIP3    H172187   0.186   3.630   3.685 -2.5821  0.9580  0.2563
16924TIP3    H272188   0.253   3.760   3.646 -0.8563 -0.0401 -0.2214
16925TIP3   OH272189   6.517   4.609  16.861 -0.0964 -0.4773 -0.6706
16925TIP3    H172190   6.567   4.527  16.862  1.3063  0.3318 -1.1328
16925TIP3    H272191   6.442   4.592  16.804 -0.3011 -1.6926 -0.0631
16926TIP3   OH272192   4.804   2.358  14.092 -0.8126 -0.7705  0.4652
16926TIP3    H172193   4.724   2.306  14.098 -1.1945 -1.0333 -3.7899
16926TIP3    H272194   4.776   2.440  14.050  1.0315 -0.7450 -0.8415
16927TIP3   OH272195   1.099   0.769   4.594  0.7588 -0.2820  0.3706
16927TIP3    H172196   1.121   0.689   4.548 -2.5460 -1.0376 -0.1444
16927TIP3    H272197   1.051   0.740   4.672 -1.8363  1.1083 -0.5851
16928TIP3   OH272198   1.490   3.504   1.744  0.4587  1.1171 -0.4637
16928TIP3    H172199   1.414   3.449   1.722  0.3742  0.5568  1.1020
16928TIP3    H272200   1.452   3.578   1.792  0.8722  0.8987  0.2151
16929TIP3   OH272201   1.003   3.540  13.565  0.7450  0.2427  0.2678
16929TIP3    H172202   0.962   3.507  13.485  0.6419 -0.3142  0.5470
16929TIP3    H272203   0.930   3.561  13.623  0.8474 -0.4047  0.6288
16930TIP3   OH272204   6.237   4.776  15.784 -0.6137  0.1750  0.2559
16930TIP3    H172205   6.250   4.838  15.856 -0.9065 -0.4088  0.8264
16930TIP3    H272206   6.325   4.744  15.764 -0.5002  0.5350  0.1772
16931TIP3   OH272207   6.049   5.034  15.782 -0.3800 -0.5232  0.0747
16931TIP3    H172208   6.103   5.109  15.755  2.6514 -2.4760  0.1740
16931TIP3    H272209   6.113   4.970  15.815 -2.7330 -3.4324 -0.6604
16932TIP3   OH272210   6.363   3.749  13.830  0.1674 -0.0800 -0.1568
16932TIP3    H172211   6.437   3.779  13.778 -0.0271  1.4668  0.4189
16932TIP3    H272212   6.393   3.667  13.870  0.3749 -1.2455 -2.5223
16933TIP3   OH272213   1.409   3.466   3.001  0.0697  0.1874 -0.0908
16933TIP3    H172214   1.361   3.399   3.049 -1.2422 -0.6203 -2.4140
16933TIP3    H272215   1.468   3.417   2.944  0.7396  1.0894 -0.1986
16934TIP3   OH272216   5.698   2.855  13.924  0.0994  0.0343 -0.4490
16934TIP3    H172217   5.690   2.771  13.880 -0.9885 -0.0880 -0.0469
16934TIP3    H272218   5.753   2.908  13.865  0.4806 -0.8226 -0.8806
16935TIP3   OH272219   2.996   4.501   4.776 -0.1499 -0.2107  0.5776
16935TIP3    H172220   3.068   4.459   4.729  0.6870  1.0376  0.6994
16935TIP3    H272221   2.920   4.446   4.757  0.1661  0.1226 -2.1520
16936TIP3   OH272222   0.436   3.982  10.981 -0.3392 -0.0512  0.5516
16936TIP3    H172223   0.466   4.062  10.937  0.2386 -0.4952  0.1231
16936TIP3    H272224   0.507   3.960  11.041 -0.1756 -0.6325  0.1527
16937TIP3   OH272225   6.767   3.378  10.637  0.2046 -0.1066  0.5278
16937TIP3    H172226   6.769   3.473  10.641 -1.1794  0.0409 -1.1564
16937TIP3    H272227   6.827   3.356  10.565 -0.8587 -0.3609 -0.3026
16938TIP3   OH272228   5.954   5.018   4.082  0.4098  0.0999 -0.3803
16938TIP3    H172229   5.911   4.935   4.062  0.8906 -0.5556  1.1698
16938TIP3    H272230   5.914   5.047   4.165  1.7212  0.3322  0.1948
16939TIP3   OH272231   3.603   2.095  12.739  0.6581  0.0614  0.7157
16939TIP3    H172232   3.593   2.050  12.654 -2.8183 -0.7000  1.3876
16939TIP3    H272233   3.618   2.186  12.716  1.9799 -0.4637 -0.6944
16940TIP3   OH272234   3.643   0.353   0.971  0.3308 -0.2184  0.3734
16940TIP3    H172235   3.671   0.273   0.926  0.0137 -0.5215  0.7077
16940TIP3    H272236   3.561   0.329   1.014 -1.0688  0.9395 -1.4694
16941TIP3   OH272237   5.920   3.407  10.662 -0.0459  0.0295  0.7512
16941TIP3    H172238   5.996   3.357  10.692  0.4250  1.2202  1.6127
16941TIP3    H272239   5.905   3.376  10.572  0.1094 -1.7573  1.2880
16942TIP3   OH272240   5.442   3.615   0.730 -0.6760 -0.0865  0.3767
16942TIP3    H172241   5.460   3.525   0.759 -2.0963 -0.9806 -1.2681
16942TIP3    H272242   5.370   3.644   0.786 -0.0448  0.1502  1.0836
16943TIP3   OH272243   3.662   2.690   2.392  0.3655  0.0137 -0.0798
16943TIP3    H172244   3.608   2.733   2.326 -0.4185 -0.0422  0.5096
16943TIP3    H272245   3.747   2.733   2.386 -0.3092  1.4679  0.3073
16944TIP3   OH272246   6.324   4.784  14.166 -0.7851 -0.1122  0.3977
16944TIP3    H172247   6.378   4.839  14.222  1.3485 -2.5637  0.9779
16944TIP3    H272248   6.379   4.765  14.090 -1.9563 -0.3834 -0.4204
16945TIP3   OH272249   2.744   1.199  16.781 -0.6120  0.0132 -0.0917
16945TIP3    H172250   2.675   1.186  16.846 -1.8860  1.7741 -1.0236
16945TIP3    H272251   2.747   1.293  16.767 -0.0901 -0.2752 -2.2701
16946TIP3   OH272252   5.442   5.298  12.620  0.3625 -0.8912 -0.0654
16946TIP3    H172253   5.415   5.308  12.711  0.8743  3.3203 -0.2081
16946TIP3    H272254   5.363   5.271  12.575 -0.7926  0.2756  1.1679
16947TIP3   OH272255   5.254   4.722   5.641 -0.2286 -0.2267 -0.8477
16947TIP3    H172256   5.273   4.732   5.548  0.3389 -1.4623 -0.8785
16947TIP3    H272257   5.328   4.765   5.685 -0.4235  0.2309 -0.9644
16948TIP3   OH272258   0.877   2.767  13.338  0.0307  0.6319 -0.2973
16948TIP3    H172259   0.960   2.759  13.384 -0.8582  0.6698  1.4098
16948TIP3    H272260   0.826   2.691  13.369 -0.1356 -0.1256 -2.3072
16949TIP3   OH272261   3.802   3.017  10.875 -0.9059 -0.0818 -0.2212
16949TIP3    H172262   3.778   3.061  10.793  0.2275  1.4685  0.2432
16949TIP3    H272263   3.896   3.003  10.868 -0.6253  0.9302  1.1870
16950TIP3   OH272264   4.437   0.385   0.391 -0.3674 -0.5750  1.3372
16950TIP3    H172265   4.525   0.350   0.402  0.5064  1.0849  0.0157
16950TIP3    H272266   4.445   0.478   0.412 -1.6406 -0.2419  0.4635
16951TIP3   OH272267   5.941   0.832   3.259 -0.1630 -0.0308  0.4795
16951TIP3    H172268   5.990   0.764   3.306  0.1997 -0.0835  0.0336
16951TIP3    H272269   6.008   0.882   3.212 -0.4452  0.5525  0.6998
16952TIP3   OH272270   5.776   5.501  13.811 -0.2587 -0.9382  0.1437
16952TIP3    H172271   5.735   5.415  13.814 -0.3964 -0.9397 -1.3416
16952TIP3    H272272   5.862   5.486  13.772 -0.9178 -0.2038 -1.6981
16953TIP3   OH272273   1.513   6.356  17.275  0.1282  0.6634 -0.4149
16953TIP3    H172274   1.502   6.406  17.193  0.1067  0.0428 -0.7953
16953TIP3    H272275   1.449   6.396  17.335 -1.1089  0.0057 -1.2398
16954TIP3   OH272276   4.670   4.964  15.521 -0.6945  0.1457 -0.2987
16954TIP3    H172277   4.747   4.908  15.534 -0.3542  0.5262 -0.6238
16954TIP3    H272278   4.632   4.974  15.608 -0.6273 -0.4039 -0.2046
16955TIP3   OH272279   0.634   1.675   2.190 -0.0173  0.4941 -0.7916
16955TIP3    H172280   0.591   1.646   2.110  0.4668 -1.9366 -0.2395
16955TIP3    H272281   0.723   1.699   2.163  0.4776 -1.3271 -0.8650
16956TIP3   OH272282   0.710   3.894  16.654  0.2782 -0.0129 -0.2272
16956TIP3    H172283   0.720   3.819  16.712 -1.8496 -0.4123 -0.3010
16956TIP3    H272284   0.688   3.856  16.569 -0.6619  0.6830 -0.3057
16957TIP3   OH272285   2.324   2.242  15.297 -0.6080  0.1559  0.2167
16957TIP3    H172286   2.311   2.264  15.389 -0.0739  0.2520  0.2750
16957TIP3    H272287   2.418   2.255  15.283 -0.4579 -1.0920 -0.0206
16958TIP3   OH272288   4.948   5.766   2.655 -0.0497  0.2151  0.3630
16958TIP3    H172289   5.037   5.750   2.684 -0.4958 -1.3501  0.9897
16958TIP3    H272290   4.938   5.713   2.576 -0.1252  1.1815 -0.2920
16959TIP3   OH272291   4.879   5.835   6.311 -0.0807  0.2813  0.3213
16959TIP3    H172292   4.952   5.800   6.362 -1.2529 -1.6937  0.7465
16959TIP3    H272293   4.865   5.923   6.346  0.0869 -0.4735  2.4007
16960TIP3   OH272294   5.182   5.054   5.123 -0.1085  0.3355 -0.0356
16960TIP3    H172295   5.146   5.042   5.034  0.1948  2.4776 -0.4830
16960TIP3    H272296   5.114   5.102   5.170 -0.7244 -1.6896  1.2919
16961TIP3   OH272297   5.243   0.818   2.829  0.3406 -0.7878 -0.2152
16961TIP3    H172298   5.151   0.795   2.834 -0.3971  1.8515 -0.1949
16961TIP3    H272299   5.251   0.871   2.749  1.6603 -0.3207  0.1848
16962TIP3   OH272300   6.519   2.230   4.519  0.5061  0.3605 -0.1012
16962TIP3    H172301   6.563   2.147   4.503 -0.1839 -0.4621  1.9329
16962TIP3    H272302   6.589   2.294   4.526  1.0659 -0.0754 -1.4225
16963TIP3   OH272303   4.261   5.713   3.717  0.2582  0.2723  0.3280
16963TIP3    H172304   4.258   5.809   3.719  0.5766  0.2807  0.3468
16963TIP3    H272305   4.346   5.692   3.681 -0.3205  0.0058 -0.9369
16964TIP3   OH272306   1.483   0.383  10.868  0.4259  0.0601 -0.3130
16964TIP3    H172307   1.434   0.461  10.840  2.2805  1.0085 -1.1429
16964TIP3    H272308   1.419   0.330  10.916 -1.8048  0.4555 -2.6303
16965TIP3   OH272309   3.356   3.536   2.143  0.1645 -0.6415 -0.5007
16965TIP3    H172310   3.312   3.619   2.125 -0.9778 -1.1522 -0.1865
16965TIP3    H272311   3.435   3.561   2.191 -1.1908  0.1688  1.4459
16966TIP3   OH272312   6.580   3.756  15.080  0.0260 -0.3456  0.1919
16966TIP3    H172313   6.567   3.697  15.154  1.9183 -2.8513 -1.3413
16966TIP3    H272314   6.492   3.769  15.044 -0.4205 -2.7778  0.2418
16967TIP3   OH272315   3.458   5.579  13.993  0.2403  0.0549 -0.0827
16967TIP3    H172316   3.537   5.525  13.994  0.3114  0.1674  0.6862
16967TIP3    H272317   3.490   5.669  13.986  0.0957 -0.0111 -2.9899
16968TIP3   OH272318   1.957   3.559  16.181  0.1220  0.2770 -0.1667
16968TIP3    H172319   1.938   3.561  16.087 -1.2778  1.1719  0.1077
16968TIP3    H272320   2.002   3.641  16.198 -0.2791  0.4524  0.0633
16969TIP3   OH272321   6.732   4.970   2.325  0.0876 -0.1794  0.4436
16969TIP3    H172322   6.787   4.963   2.403  1.4154 -0.4316 -0.4818
16969TIP3    H272323   6.755   4.893   2.273 -2.1396 -1.0310  0.6135
16970TIP3   OH272324   0.792   5.701   5.819 -0.3677  0.2443  0.2708
16970TIP3    H172325   0.823   5.790   5.804  1.3158 -0.4733 -0.6680
16970TIP3    H272326   0.810   5.654   5.738 -0.0255 -1.2895  1.1890
16971TIP3   OH272327   0.183   2.643   4.676  0.0054 -0.2943  0.0288
16971TIP3    H172328   0.272   2.678   4.681 -0.0345 -0.3053  1.3094
16971TIP3    H272329   0.139   2.698   4.612  1.0491 -0.5699 -0.9530
16972TIP3   OH272330   1.286   2.508   3.441 -0.0342  0.0597  0.4678
16972TIP3    H172331   1.311   2.477   3.354  0.1825 -0.3028  0.6570
16972TIP3    H272332   1.209   2.563   3.426 -0.3126 -0.4241  0.1098
16973TIP3   OH272333   3.848   6.043  16.662  0.0342  0.0852 -0.3605
16973TIP3    H172334   3.774   5.983  16.656  0.2340 -0.2281  0.2236
16973TIP3    H272335   3.880   6.033  16.752  1.1624 -0.2218 -0.7773
16974TIP3   OH272336   4.956   2.520  14.712  0.2606  0.7745  0.5450
16974TIP3    H172337   5.034   2.554  14.755  0.7896  0.4153 -0.1243
16974TIP3    H272338   4.937   2.583  14.643  0.3789  0.4979  0.2542
16975TIP3   OH272339   4.866   6.584  13.999 -0.3533  0.5436  0.7951
16975TIP3    H172340   4.814   6.508  14.024 -0.2270 -0.2761 -1.2960
16975TIP3    H272341   4.914   6.607  14.079 -1.0350 -1.0233  1.7046
16976TIP3   OH272342   3.746   1.770  11.330 -0.1794  0.1633 -0.4015
16976TIP3    H172343   3.722   1.812  11.248  0.2119  0.1176 -0.5414
16976TIP3    H272344   3.667   1.774  11.383 -0.5169 -0.0465 -0.8810
16977TIP3   OH272345   0.104   1.484   5.565 -0.2789 -0.5681 -0.5341
16977TIP3    H172346   0.013   1.481   5.593 -1.1103 -0.7339 -3.0337
16977TIP3    H272347   0.100   1.500   5.471  2.3275  1.7342 -0.3906
16978TIP3   OH272348   0.751   2.472   6.274  0.0062 -0.4674 -0.1091
16978TIP3    H172349   0.674   2.483   6.218  0.2995  0.4497 -0.3360
16978TIP3    H272350   0.789   2.389   6.245 -1.4086 -1.4216  0.6431
16979TIP3   OH272351   1.156   3.975   3.563 -0.1709  0.2052  0.3547
16979TIP3    H172352   1.144   4.060   3.520  0.1994 -0.4241 -1.0588
16979TIP3    H272353   1.136   3.911   3.495  1.6880 -0.8412  0.7152
16980TIP3   OH272354   6.488   1.208   1.438 -0.4316  0.4860  0.6444
16980TIP3    H172355   6.449   1.247   1.517 -0.7447 -0.4933  0.9896
16980TIP3    H272356   6.452   1.259   1.366 -0.3719  1.2107  1.1210
16981TIP3   OH272357   3.236   3.231  12.482 -0.0262 -0.0436 -0.6617
16981TIP3    H172358   3.252   3.190  12.398 -0.8178 -2.8063  0.4094
16981TIP3    H272359   3.163   3.292  12.467 -0.5728 -0.9701 -1.8489
16982TIP3   OH272360   3.442   2.706   4.631  0.2936 -0.4524 -0.4741
16982TIP3    H172361   3.465   2.797   4.651 -2.3203  0.2847 -0.5556
16982TIP3    H272362   3.381   2.680   4.700  0.8641 -2.1194 -0.5417
16983TIP3   OH272363   6.147   2.446  15.828  0.3034  0.0765  0.2276
16983TIP3    H172364   6.202   2.519  15.856 -0.7115  0.5327  1.0865
16983TIP3    H272365   6.092   2.483  15.759 -0.2946  0.1718  0.7447
16984TIP3   OH272366   6.141   5.796   4.448 -0.0841  0.1389  0.5405
16984TIP3    H172367   6.117   5.782   4.540  1.5781  0.7317  1.0925
16984TIP3    H272368   6.234   5.815   4.450 -0.1313  0.7207 -1.2346
16985TIP3   OH272369   4.385   0.192  17.046 -0.1808 -0.3846 -0.1132
16985TIP3    H172370   4.305   0.207  16.996 -1.2735 -1.0394  1.3383
16985TIP3    H272371   4.360   0.126  17.111  1.1762  0.3540  1.2222
16986TIP3   OH272372   4.766   1.200   4.585 -0.2231  0.1415  0.1994
16986TIP3    H172373   4.796   1.269   4.526 -0.7783 -0.9693 -1.4584
16986TIP3    H272374   4.738   1.247   4.664  0.5804  1.6748 -0.3842
16987TIP3   OH272375   2.641   3.126  16.698  0.2394  0.0613  0.5203
16987TIP3    H172376   2.603   3.056  16.752  0.0739 -0.1769  0.1033
16987TIP3    H272377   2.649   3.086  16.611 -1.6688  1.1693 -0.2156
16988TIP3   OH272378   0.772   0.494   6.866  0.0312 -0.2758  0.1571
16988TIP3    H172379   0.762   0.583   6.898 -2.4837  0.3742 -2.0800
16988TIP3    H272380   0.695   0.479   6.810  1.0385 -3.3756 -0.6315
16989TIP3   OH272381   5.845   1.619   1.945  0.7366 -0.5655  0.2808
16989TIP3    H172382   5.883   1.680   1.882 -0.4626 -0.6036 -0.5206
16989TIP3    H272383   5.850   1.665   2.029  0.6034  0.3080 -0.1735
16990TIP3   OH272384   6.051   6.727  14.970  0.7451  0.0685 -0.3577
16990TIP3    H172385   6.134   6.740  15.016  0.2947  1.9969 -0.0146
16990TIP3    H272386   6.076   6.726  14.877  1.4407 -2.1821 -0.2275
16991TIP3   OH272387   3.886   4.352  11.482 -0.0985 -0.2157  0.3436
16991TIP3    H172388   3.804   4.344  11.435 -0.9248 -1.1102  1.8570
16991TIP3    H272389   3.881   4.437  11.526  2.2819  2.4809 -3.9390
16992TIP3   OH272390   0.092   0.351  11.622 -0.1872 -0.2503 -0.1011
16992TIP3    H172391   0.145   0.370  11.545 -0.4363  0.9818  0.0002
16992TIP3    H272392   0.049   0.435  11.642 -3.5219 -1.5374 -1.2098
16993TIP3   OH272393   5.418   1.148   0.569  0.0526 -0.5884 -0.3893
16993TIP3    H172394   5.390   1.191   0.650  0.4483  0.2319 -0.6778
16993TIP3    H272395   5.381   1.060   0.575 -0.4143 -0.3512  0.4138
16994TIP3   OH272396   5.688   2.413  14.984 -0.4739 -0.3219 -0.1394
16994TIP3    H172397   5.778   2.423  14.952 -1.0644  2.4494 -1.2464
16994TIP3    H272398   5.688   2.461  15.068 -0.6601 -1.3381  0.4540
16995TIP3   OH272399   3.566   1.196  14.571 -0.0099 -0.2899 -0.4412
16995TIP3    H172400   3.485   1.149  14.592 -1.1659  1.3273 -1.0827
16995TIP3    H272401   3.555   1.222  14.480  0.9294  0.5390 -0.3266
16996TIP3   OH272402   4.592   1.029  14.915 -0.0225  0.5189  0.1234
16996TIP3    H172403   4.680   1.048  14.883 -0.9044  1.4569 -1.9065
16996TIP3    H272404   4.556   0.967  14.852  0.3179 -2.7477  2.8520
16997TIP3   OH272405   1.992   2.083  13.840  0.5539 -0.8879  0.1824
16997TIP3    H172406   1.906   2.046  13.860 -0.1991  1.3588  1.4545
16997TIP3    H272407   2.048   2.007  13.826 -1.3657 -2.4343  0.4497
16998TIP3   OH272408   2.211   0.253   0.391  0.0042 -0.0094 -0.3343
16998TIP3    H172409   2.149   0.187   0.421  1.2332 -1.4815 -0.9450
16998TIP3    H272410   2.286   0.245   0.450  0.9293 -0.4500 -1.5226
16999TIP3   OH272411   0.795   3.949   1.021  0.0248  0.1002  0.0433
16999TIP3    H172412   0.792   4.045   1.021  1.4066  0.2371 -2.2191
16999TIP3    H272413   0.876   3.928   1.067 -0.6624 -0.0478  1.2141
17000TIP3   OH272414   5.205   3.816   2.703 -0.2313  0.1382  0.4817
17000TIP3    H172415   5.286   3.843   2.745 -0.1583 -0.6364  0.8459
17000TIP3    H272416   5.229   3.742   2.648 -0.7452 -0.3266  0.8690
17001TIP3   OH272417   3.134   5.026   4.376  0.0437  0.1765 -0.8003
17001TIP3    H172418   3.038   5.026   4.376  0.0236  1.2619 -2.1663
17001TIP3    H272419   3.157   5.093   4.441 -0.1044 -0.2892 -0.2555
17002TIP3   OH272420   1.832   1.651   4.905  0.2655  0.2590 -0.5342
17002TIP3    H172421   1.806   1.675   4.816 -5.2387 -1.7537  0.1892
17002TIP3    H272422   1.811   1.729   4.957 -0.1073  0.1601 -0.5341
17003TIP3   OH272423   3.513   4.897   3.181  0.0894 -0.3829 -0.0647
17003TIP3    H172424   3.593   4.883   3.231 -0.2972 -1.3997  0.2918
17003TIP3    H272425   3.452   4.936   3.243  0.1283 -0.1157 -0.1911
17004TIP3   OH272426   3.966   3.737  13.998  0.3199 -0.0346 -0.2864
17004TIP3    H172427   4.028   3.796  14.041  0.1481  0.0672 -0.1805
17004TIP3    H272428   3.883   3.783  14.000 -0.3204 -1.1806  1.7420
17005TIP3   OH272429   3.593   2.366   5.461  0.1309 -0.0646 -0.1472
17005TIP3    H172430   3.573   2.451   5.421  0.4870  0.0293 -0.1297
17005TIP3    H272431   3.511   2.318   5.458 -0.4633  0.7994  1.1325
17006TIP3   OH272432   5.641   4.385   2.039 -0.4013  0.2881  0.5988
17006TIP3    H172433   5.558   4.357   2.078 -0.8225 -0.1112 -0.5399
17006TIP3    H272434   5.708   4.344   2.093 -0.9376  0.5703  1.5051
17007TIP3   OH272435   2.568   0.223  12.874  1.2445 -0.6084 -0.1710
17007TIP3    H172436   2.650   0.269  12.892  0.5406  0.1741  1.1565
17007TIP3    H272437   2.596   0.141  12.832  2.6520 -0.0288 -0.4172
17008TIP3   OH272438   1.753   3.807  14.172 -0.2187  0.4733  0.5849
17008TIP3    H172439   1.819   3.874  14.190  0.9414 -0.7533  1.0400
17008TIP3    H272440   1.718   3.784  14.258 -0.0101 -0.0989  0.5173
17009TIP3   OH272441   0.002   1.424  15.086  0.1780 -0.0958  0.8304
17009TIP3    H172442   0.026   1.389  15.000 -0.6386  2.9328 -0.7703
17009TIP3    H272443   0.080   1.470  15.116 -0.1754  0.6345  0.6685
17010TIP3   OH272444   0.082   2.148   5.433  0.3875  0.2201  0.5856
17010TIP3    H172445  -0.006   2.112   5.445 -0.2120  1.5892  0.4576
17010TIP3    H272446   0.098   2.200   5.511  0.9772  0.1944  0.4878
17011TIP3   OH272447   1.796   1.506   2.225 -0.0351  0.3965  0.1129
17011TIP3    H172448   1.804   1.411   2.222  0.6013  0.4352  0.2884
17011TIP3    H272449   1.747   1.524   2.305 -0.0713  0.2173  0.1308
17012TIP3   OH272450   2.939   2.670  16.383  0.1640 -0.5416  0.7054
17012TIP3    H172451   2.989   2.704  16.457 -0.1525 -0.3714  0.8392
17012TIP3    H272452   2.945   2.574  16.392 -1.9153 -0.5734  2.3460
17013TIP3   OH272453   5.647   2.438   2.613  0.4999 -0.4075  0.0634
17013TIP3    H172454   5.718   2.469   2.669 -1.4212 -0.0763  2.4750
17013TIP3    H272455   5.643   2.343   2.630  0.5879 -0.4864 -0.3441
17014TIP3   OH272456   3.099   2.352  15.226 -0.2481  0.0385 -0.3396
17014TIP3    H172457   3.108   2.394  15.140 -0.5765  1.5042  0.3250
17014TIP3    H272458   3.059   2.418  15.281  1.6421 -0.2422  1.4637
17015TIP3   OH272459   5.793   1.687   5.619 -0.5128 -0.0961  0.4943
17015TIP3    H172460   5.721   1.681   5.557  0.9379  2.1701 -1.5806
17015TIP3    H272461   5.794   1.778   5.647  1.0779 -0.2519  1.0818
17016TIP3   OH272462   4.326   0.634   2.133 -0.1158 -0.0448 -0.2539
17016TIP3    H172463   4.354   0.649   2.042 -0.3306 -2.6516 -0.8227
17016TIP3    H272464   4.407   0.629   2.183 -0.0195  2.7019  0.0221
17017TIP3   OH272465   2.881   6.552  12.063  0.4433 -0.1539  0.5227
17017TIP3    H172466   2.920   6.588  12.143  1.9565 -1.8332  0.5976
17017TIP3    H272467   2.878   6.626  12.003 -0.3694  1.0618  1.9796
17018TIP3   OH272468   5.876   1.600  16.818 -0.1913  0.0436 -0.0540
17018TIP3    H172469   5.882   1.592  16.913 -0.8171 -3.3025 -0.1945
17018TIP3    H272470   5.949   1.549  16.784 -1.4904 -1.0194 -1.3557
17019TIP3   OH272471   3.124   5.440  11.836 -0.6253 -0.2335 -0.0321
17019TIP3    H172472   3.147   5.527  11.803  0.1063 -1.1832 -2.2040
17019TIP3    H272473   3.033   5.448  11.863 -0.0042  1.7058  1.8091
17020TIP3   OH272474   2.965   4.292   2.822 -0.2358  0.5693 -0.5267
17020TIP3    H172475   2.929   4.230   2.759  0.2745  1.3957 -1.6632
17020TIP3    H272476   2.917   4.373   2.807 -1.0119  0.4575  1.0562
17021TIP3   OH272477   4.229   3.914   5.399 -0.4048 -0.1847  1.3125
17021TIP3    H172478   4.245   3.948   5.487  1.0716  0.4762  0.8099
17021TIP3    H272479   4.312   3.876   5.372  0.0771  2.0902 -0.8504
17022TIP3   OH272480   0.877   1.212   3.367  0.2982  0.0021 -0.2877
17022TIP3    H172481   0.815   1.140   3.376  0.8640 -0.3090  1.5509
17022TIP3    H272482   0.947   1.191   3.430  1.4612  1.1569 -1.1378
17023TIP3   OH272483   0.523   4.227  14.660  0.1185  0.0229 -0.7018
17023TIP3    H172484   0.448   4.204  14.714  0.3788 -0.2951 -0.4652
17023TIP3    H272485   0.498   4.307  14.615  0.5827  1.3873  1.3412
17024TIP3   OH272486   5.905   5.749  14.293 -0.1908  0.8665 -0.0993
17024TIP3    H172487   5.907   5.819  14.228  2.1184  3.0065  2.0789
17024TIP3    H272488   5.993   5.710  14.289 -0.3789  0.2960  0.9808
17025TIP3   OH272489   5.687   4.303  14.207  0.2618 -0.4321 -0.3689
17025TIP3    H172490   5.716   4.393  14.223  1.7030 -1.0737  0.7761
17025TIP3    H272491   5.761   4.248  14.233 -0.8082 -1.9940 -0.4799
17026TIP3   OH272492   6.567   2.810   1.323 -0.1827 -1.1605 -0.3845
17026TIP3    H172493   6.559   2.899   1.290  0.8207 -0.4594  1.1341
17026TIP3    H272494   6.502   2.804   1.393 -2.2717 -2.6179 -2.3098
17027TIP3   OH272495   2.619   0.717  12.918  0.4466  0.6126  0.0828
17027TIP3    H172496   2.626   0.633  12.874  0.9187  1.0257 -0.6447
17027TIP3    H272497   2.548   0.705  12.982  0.9821 -0.5432  0.4881
17028TIP3   OH272498   6.248   4.718   5.455  0.8796  0.7279  0.0165
17028TIP3    H172499   6.229   4.624   5.456  0.1557  0.7352 -3.2085
17028TIP3    H272500   6.217   4.749   5.541 -0.7432 -1.6327  0.3976
17029TIP3   OH272501   6.055   0.214  13.007 -0.2848 -0.4218 -0.2943
17029TIP3    H172502   6.037   0.305  12.982  2.0939  0.0612 -0.4436
17029TIP3    H272503   6.025   0.163  12.932 -0.5429  0.3404 -0.7293
17030TIP3   OH272504   5.064   1.910   5.594  0.6672 -0.1119 -0.0677
17030TIP3    H172505   5.096   1.842   5.536 -1.3650 -0.8425 -0.4263
17030TIP3    H272506   5.084   1.992   5.550 -0.6628 -0.6467 -1.7521
17031TIP3   OH272507   6.242   3.875  12.605  0.4294  0.7670  0.3839
17031TIP3    H172508   6.246   3.861  12.510  1.0336 -0.3349  0.5517
17031TIP3    H272509   6.165   3.930  12.618  1.8032  3.1563 -0.9683
17032TIP3   OH272510   4.392   0.639   4.863  0.6034  0.1263 -0.0364
17032TIP3    H172511   4.423   0.718   4.820  2.1101  0.6599  1.8641
17032TIP3    H272512   4.472   0.590   4.884  0.1938  0.6995  3.4919
17033TIP3   OH272513   6.333   6.275  11.898  0.6166 -0.1584  0.0911
17033TIP3    H172514   6.424   6.281  11.927  0.9965 -0.1822 -1.0426
17033TIP3    H272515   6.284   6.252  11.977  1.3631  1.4372  1.0730
17034TIP3   OH272516   1.834   6.738  17.023  0.0918  0.3319 -0.0692
17034TIP3    H172517   1.765   6.805  17.016 -0.1892 -0.0008 -0.5672
17034TIP3    H272518   1.914   6.784  16.998 -0.0003  0.6439  0.2076
17035TIP3   OH272519   4.532   3.868   1.539 -0.0306 -0.1677 -0.2655
17035TIP3    H172520   4.570   3.817   1.610 -0.9776 -1.0948 -0.4145
17035TIP3    H272521   4.469   3.810   1.498 -0.9159  1.0182 -0.6366
17036TIP3   OH272522   6.244   3.672  14.967  0.1305 -0.4417  0.1108
17036TIP3    H172523   6.214   3.583  14.953  0.0783 -0.7247  1.8413
17036TIP3    H272524   6.258   3.707  14.879  1.2608 -2.5197 -0.5907
17037TIP3   OH272525   3.234   2.656   0.219 -0.2892  0.1541  0.1895
17037TIP3    H172526   3.156   2.699   0.255 -0.2375  0.3104  0.1151
17037TIP3    H272527   3.207   2.626   0.132 -1.2447 -2.5468  1.3137
17038TIP3   OH272528   5.502   6.133   0.429  0.6025  0.2447 -0.2076
17038TIP3    H172529   5.482   6.163   0.341 -0.0330 -1.9152 -0.8397
17038TIP3    H272530   5.447   6.188   0.486  1.5068  2.1044 -1.0510
17039TIP3   OH272531   4.870   5.490  11.400  0.1990  0.2312  0.0570
17039TIP3    H172532   4.858   5.409  11.449 -0.3900  0.3255  0.0833
17039TIP3    H272533   4.784   5.533  11.405  0.3543  0.6003 -0.4112
17040TIP3   OH272534   5.533   5.105  11.514  0.6716 -0.8345 -0.4509
17040TIP3    H172535   5.619   5.101  11.471  1.2761 -0.6939  0.7123
17040TIP3    H272536   5.530   5.026  11.568  0.5943 -0.2264  0.4531
17041TIP3   OH272537   3.914   6.362   4.332  0.6960 -0.1422 -0.2078
17041TIP3    H172538   3.964   6.307   4.393 -0.1460  0.8859  1.4770
17041TIP3    H272539   3.967   6.441   4.323  0.2510  0.2029  0.1553
17042TIP3   OH272540   4.365   1.079  10.845  0.1977 -0.7876  0.5608
17042TIP3    H172541   4.365   1.144  10.774  0.8877 -0.9620  0.3932
17042TIP3    H272542   4.452   1.086  10.884  0.1637 -1.3779  0.7562
17043TIP3   OH272543   5.143   3.806   1.942 -0.3805 -0.2069 -0.2484
17043TIP3    H172544   5.160   3.863   2.017  0.3790 -1.4402  0.5619
17043TIP3    H272545   5.084   3.856   1.887  0.0444  1.2496  0.5563
17044TIP3   OH272546   2.051   1.536  17.058 -0.2057 -0.4043  0.1114
17044TIP3    H172547   2.107   1.482  17.002  0.7947  1.1026 -0.4062
17044TIP3    H272548   2.010   1.474  17.118  2.0322 -1.5999  0.5177
17045TIP3   OH272549   1.868   4.054   4.969 -0.0683 -0.1212 -0.3556
17045TIP3    H172550   1.833   4.059   5.059  1.7228  1.1386  0.3210
17045TIP3    H272551   1.844   4.138   4.930 -2.9652 -1.5538 -1.9734
17046TIP3   OH272552   4.679   0.199   3.489  0.1455 -0.3365 -0.4872
17046TIP3    H172553   4.595   0.176   3.528  0.3325 -2.7945 -1.3284
17046TIP3    H272554   4.708   0.277   3.537 -0.9424 -1.4983  2.2640
17047TIP3   OH272555   3.223   1.689  11.403  0.6373 -0.7203  0.6209
17047TIP3    H172556   3.249   1.773  11.364 -0.5314  0.5295  2.4008
17047TIP3    H272557   3.135   1.673  11.368  1.3315 -1.8878 -0.6898
17048TIP3   OH272558   3.265   0.955   6.035  0.0914  0.0681  0.0038
17048TIP3    H172559   3.275   1.027   6.097 -0.3233  0.1776 -0.0551
17048TIP3    H272560   3.239   0.880   6.089 -0.5024  0.2217 -0.0644
17049TIP3   OH272561   1.668   0.572   4.062  0.2537  0.1396 -0.2526
17049TIP3    H172562   1.714   0.653   4.040  0.9944 -0.5989 -1.5413
17049TIP3    H272563   1.680   0.563   4.156  2.0335  0.4419 -0.4044
17050TIP3   OH272564   2.638   3.119  12.411  0.0296  1.0919 -0.3737
17050TIP3    H172565   2.643   3.027  12.436 -0.4662  0.9688 -0.7115
17050TIP3    H272566   2.727   3.153  12.424  0.0189  0.7759  0.5271
17051TIP3   OH272567   2.412   1.598   0.327  0.0404  0.0868  0.1748
17051TIP3    H172568   2.448   1.511   0.305 -0.4138  0.1725 -0.9832
17051TIP3    H272569   2.362   1.623   0.249 -0.7650  0.9051  0.9385
17052TIP3   OH272570   1.654   6.056   4.767  0.0124  0.4736  0.1736
17052TIP3    H172571   1.631   5.965   4.748  1.6100  0.2304 -0.8415
17052TIP3    H272572   1.648   6.101   4.683 -1.0574  1.4000  0.7189
17053TIP3   OH272573   2.036   0.206  13.851 -0.1198 -0.5388  0.0028
17053TIP3    H172574   2.004   0.266  13.919 -1.7943 -0.7279 -0.5525
17053TIP3    H272575   2.031   0.258  13.771  2.5330 -0.0804  0.0553
17054TIP3   OH272576   6.248   4.194  17.220 -0.1153  0.4873  0.6515
17054TIP3    H172577   6.263   4.234  17.306 -0.1136  2.8365 -0.3581
17054TIP3    H272578   6.153   4.191  17.211 -0.1220 -0.2595  0.9433
17055TIP3   OH272579   1.670   5.723   1.414 -0.5190 -0.4844 -0.6109
17055TIP3    H172580   1.627   5.744   1.497 -1.9363  0.7251 -1.5875
17055TIP3    H272581   1.746   5.670   1.438 -1.6205 -1.2618  1.3475
17056TIP3   OH272582   2.010   0.581   0.806 -0.0120  0.2343 -0.4509
17056TIP3    H172583   2.082   0.575   0.744 -1.0574  0.7375 -1.7871
17056TIP3    H272584   1.954   0.651   0.771 -1.8530 -1.0506 -0.2740
17057TIP3   OH272585   5.501   4.986  11.246 -0.8963 -0.0299 -0.0007
17057TIP3    H172586   5.590   4.955  11.265  0.2100  2.7440 -0.2752
17057TIP3    H272587   5.484   5.053  11.313 -2.0514  0.7571 -1.0424
17058TIP3   OH272588   6.232   5.127   1.878  0.1093  0.3586 -0.3515
17058TIP3    H172589   6.178   5.107   1.955  1.5697  1.0444  0.9225
17058TIP3    H272590   6.321   5.105   1.906  0.4986 -1.0572 -2.4871
17059TIP3   OH272591   6.673   5.438  14.637  0.0409 -0.3275  0.1564
17059TIP3    H172592   6.585   5.447  14.599  0.4267 -0.8997 -0.9232
17059TIP3    H272593   6.732   5.444  14.562  1.2321  3.6857  1.1860
17060TIP3   OH272594   1.713   5.848  13.744 -0.2255  0.3620 -0.2634
17060TIP3    H172595   1.619   5.849  13.726 -0.0217 -0.5415 -1.4810
17060TIP3    H272596   1.748   5.921  13.693 -0.0514 -0.3354 -1.1546
17061TIP3   OH272597   0.913   6.456  11.821  0.5693  0.3608 -0.0244
17061TIP3    H172598   0.871   6.478  11.905  0.8504  0.1242  0.1826
17061TIP3    H272599   0.844   6.466  11.756  0.1816 -0.0422  0.3148
17062TIP3   OH272600   4.023   3.792   6.127  0.4450 -0.4792 -0.6137
17062TIP3    H172601   4.037   3.700   6.148 -0.4066 -0.1663  1.5527
17062TIP3    H272602   3.936   3.812   6.162  0.4332  1.0525 -1.4266
17063TIP3   OH272603   4.764   4.994   3.460 -0.1010  0.4965 -0.0895
17063TIP3    H172604   4.836   4.940   3.427 -1.1576  0.0157 -1.7607
17063TIP3    H272605   4.699   4.931   3.491  0.4040  0.9363  1.9506
17064TIP3   OH272606   2.343   5.412  12.694 -0.4238  0.3424  0.3850
17064TIP3    H172607   2.324   5.359  12.772 -2.2173  1.9281  1.0893
17064TIP3    H272608   2.393   5.353  12.638  3.3615 -0.0937  3.7600
17065TIP3   OH272609   0.828   1.775   4.374  0.2596  0.2725 -0.2842
17065TIP3    H172610   0.782   1.713   4.317  0.3024 -0.9494  0.9630
17065TIP3    H272611   0.920   1.767   4.348  0.0795  1.0615 -1.2427
17066TIP3   OH272612   0.447   3.874  16.027  0.2386  0.0784 -0.3690
17066TIP3    H172613   0.424   3.912  15.943 -0.3391  0.4655 -0.0443
17066TIP3    H272614   0.488   3.790  16.005  0.0573  0.1586 -1.0288
17067TIP3   OH272615   5.299   6.114   3.692  0.0886 -0.0758  0.1745
17067TIP3    H172616   5.328   6.185   3.635  0.0274 -0.4246 -0.2924
17067TIP3    H272617   5.213   6.143   3.724  1.0322  1.1173  1.8290
17068TIP3   OH272618   1.406   6.613   4.448 -0.1763 -0.1113 -0.1913
17068TIP3    H172619   1.451   6.677   4.504  0.5857 -0.2792 -0.5987
17068TIP3    H272620   1.341   6.572   4.506 -0.7692  1.1121  0.0403
17069TIP3   OH272621   2.355   5.189  14.147  0.0398  0.3238  0.0969
17069TIP3    H172622   2.343   5.261  14.085  1.3162  0.4959  0.0319
17069TIP3    H272623   2.296   5.210  14.220  0.6461  1.6167  0.2308
17070TIP3   OH272624   1.670   6.023   1.605 -0.1868 -0.0175 -0.4276
17070TIP3    H172625   1.724   5.981   1.671  0.8927 -1.0788 -1.9019
17070TIP3    H272626   1.585   5.980   1.610 -0.3894  0.5078  0.8121
17071TIP3   OH272627   5.428   1.413   2.647  0.5848 -0.1413  0.5273
17071TIP3    H172628   5.462   1.486   2.596 -1.4214  0.5101  0.0065
17071TIP3    H272629   5.389   1.355   2.582 -1.7435  0.5443  1.2132
17072TIP3   OH272630   1.004   0.144   3.308  0.3273 -0.3914 -0.1710
17072TIP3    H172631   0.926   0.096   3.336  1.7624 -3.1728 -0.5903
17072TIP3    H272632   1.042   0.090   3.239  1.8566  1.6306 -1.0115
17073TIP3   OH272633   4.511   6.112  15.105  0.2158  0.0280  0.2796
17073TIP3    H172634   4.560   6.031  15.116 -0.7403 -0.4840  0.9115
17073TIP3    H272635   4.577   6.178  15.087  1.1658 -0.5839  1.4228
17074TIP3   OH272636   6.230   5.055  11.748 -0.1882  0.4316  0.1318
17074TIP3    H172637   6.295   4.988  11.727 -0.9181  0.0397 -0.9356
17074TIP3    H272638   6.272   5.108  11.816  0.9225 -0.2990  0.0431
17075TIP3   OH272639   0.374   0.125  16.561 -0.1896 -0.4974 -0.4257
17075TIP3    H172640   0.436   0.193  16.535  1.7289 -2.3061 -0.8499
17075TIP3    H272641   0.393   0.108  16.653 -1.4796  0.3052  0.0213
17076TIP3   OH272642   4.798   2.921  17.228 -0.2583  0.8240  0.1118
17076TIP3    H172643   4.711   2.923  17.187 -0.1493 -0.8123 -0.2849
17076TIP3    H272644   4.848   2.860  17.174 -0.0300 -1.2973  2.5416
17077TIP3   OH272645   1.641   3.896  16.532 -0.7551  0.1400 -0.1044
17077TIP3    H172646   1.620   3.879  16.624 -1.5288 -0.5198 -0.4032
17077TIP3    H272647   1.566   3.944  16.499 -0.8544 -0.3630 -0.6155
17078TIP3   OH272648   0.498   3.580   4.242 -0.0527  0.0293  0.1491
17078TIP3    H172649   0.524   3.590   4.150  1.5360  1.1693  0.6916
17078TIP3    H272650   0.454   3.495   4.245  1.9659 -1.1507 -1.2240
17079TIP3   OH272651   5.088   2.742   1.258 -0.0243 -0.2878 -0.2013
17079TIP3    H172652   5.024   2.761   1.189 -0.7943 -3.6494 -0.6076
17079TIP3    H272653   5.157   2.694   1.213  0.6426 -0.4510  0.9832
17080TIP3   OH272654   4.723   4.356  15.299  0.2011  0.4720  0.3009
17080TIP3    H172655   4.666   4.287  15.333 -0.7658  0.7992 -0.5908
17080TIP3    H272656   4.764   4.317  15.222  0.4169  0.5726  0.3642
17081TIP3   OH272657   5.773   6.362   4.839 -0.2242 -0.1930 -0.3165
17081TIP3    H172658   5.846   6.422   4.854 -0.4601  0.3755 -1.3686
17081TIP3    H272659   5.777   6.301   4.913  1.5075 -0.3823 -0.5251
17082TIP3   OH272660   2.354   1.118   5.907  0.5836  0.0581  0.2192
17082TIP3    H172661   2.297   1.163   5.970 -0.4066  0.1298 -0.7083
17082TIP3    H272662   2.350   1.172   5.828 -2.6284 -2.7826 -1.8450
17083TIP3   OH272663   5.120   1.153  11.476  0.1860 -0.1319 -0.0489
17083TIP3    H172664   5.093   1.213  11.545 -0.5153 -0.1706 -0.2857
17083TIP3    H272665   5.209   1.127  11.500  0.1718  0.3324  0.5079
17084TIP3   OH272666   1.116   6.747   3.097  0.1721  0.4232 -0.0037
17084TIP3    H172667   1.199   6.704   3.119  0.2964  1.6127  2.0465
17084TIP3    H272668   1.125   6.768   3.004  1.9455  0.0717  0.0368
17085TIP3   OH272669   5.709   3.518  14.324  0.1523  0.1674 -0.0942
17085TIP3    H172670   5.741   3.591  14.378 -1.3641 -0.1804  1.3628
17085TIP3    H272671   5.628   3.551  14.286  0.6048 -0.0164 -1.2414
17086TIP3   OH272672   5.085   1.306   3.362  0.0210  0.1076  0.6077
17086TIP3    H172673   5.042   1.223   3.341  1.7926 -1.3243  2.3161
17086TIP3    H272674   5.075   1.315   3.456  0.6638  1.3972  0.5663
17087TIP3   OH272675   6.123   1.436  13.942 -0.2937 -0.0701 -0.2800
17087TIP3    H172676   6.182   1.364  13.965  1.6210  1.4772 -0.0737
17087TIP3    H272677   6.147   1.507  14.003 -0.8964  1.3278 -1.6057
17088TIP3   OH272678   2.140   3.360   5.600  0.2063 -0.1942  0.4939
17088TIP3    H172679   2.066   3.420   5.611 -0.2898 -0.6753 -0.2181
17088TIP3    H272680   2.147   3.315   5.685  2.7066  3.1762  2.3323
17089TIP3   OH272681   1.413   3.044   2.126 -0.3837 -0.0719 -0.2037
17089TIP3    H172682   1.487   2.997   2.088 -0.2745 -0.6787  0.7174
17089TIP3    H272683   1.452   3.105   2.188 -0.3392  2.9774 -2.9639
17090TIP3   OH272684   4.951   4.572   4.167  0.5283 -0.1085  0.1348
17090TIP3    H172685   5.008   4.628   4.116  1.2849  0.1766  1.2601
17090TIP3    H272686   4.967   4.597   4.258 -1.8884  0.4781  0.4801
17091TIP3   OH272687   1.578   2.495   5.015  0.4149  0.1225 -0.7589
17091TIP3    H172688   1.569   2.480   4.921  0.6283  0.4951 -0.8426
17091TIP3    H272689   1.651   2.557   5.023  0.3305  0.1773 -0.3554
17092TIP3   OH272690   3.250   4.388  11.727  0.2031 -0.4005  0.2191
17092TIP3    H172691   3.191   4.312  11.722  0.4115 -0.6964  1.7829
17092TIP3    H272692   3.213   4.452  11.667 -1.0989 -1.0010  0.3650
17093TIP3   OH272693   4.621   0.380  13.205  0.3870  0.5823  0.1307
17093TIP3    H172694   4.710   0.409  13.224  0.6267 -0.3135  0.4091
17093TIP3    H272695   4.632   0.298  13.158 -0.2851  0.8932 -0.5826
17094TIP3   OH272696   4.193   5.425   1.990 -0.4416  0.4523  0.2110
17094TIP3    H172697   4.243   5.469   2.059 -1.4474  1.8115  0.1007
17094TIP3    H272698   4.102   5.447   2.009 -0.9222 -1.0182 -0.2740
17095TIP3   OH272699   4.199   3.723  16.547 -0.0376 -0.2407 -0.3824
17095TIP3    H172700   4.269   3.659  16.531 -0.8984 -1.3210  0.0871
17095TIP3    H272701   4.186   3.766  16.463  0.6639 -0.5582 -0.6623
17096TIP3   OH272702   5.549   2.814   2.957  0.0043  1.0614 -0.0372
17096TIP3    H172703   5.621   2.793   2.898 -0.8489  0.1114 -0.7770
17096TIP3    H272704   5.565   2.761   3.035 -1.4973 -1.6390 -1.4241
17097TIP3   OH272705   3.123   0.789  12.089  0.3761 -0.3893  0.2887
17097TIP3    H172706   3.085   0.798  12.177  1.8678  1.9210  0.7780
17097TIP3    H272707   3.111   0.875  12.049  3.6952  0.0585 -0.0288
17098TIP3   OH272708   2.021   3.701  12.759 -0.2319 -0.1974  0.2065
17098TIP3    H172709   2.042   3.773  12.699 -0.8132  0.1613  0.4296
17098TIP3    H272710   1.942   3.730  12.805 -1.7098 -1.8465 -1.1688
17099TIP3   OH272711   4.163   5.815  12.124 -0.5531 -0.8910 -0.2099
17099TIP3    H172712   4.245   5.823  12.173 -0.6244 -0.8990 -0.0901
17099TIP3    H272713   4.120   5.900  12.134 -0.3563 -0.7357 -0.6397
17100TIP3   OH272714   1.766   1.671  11.974 -0.2797  0.1110 -0.3912
17100TIP3    H172715   1.786   1.752  11.926  0.3957  0.1460 -0.0496
17100TIP3    H272716   1.815   1.678  12.056 -1.5375  0.1193  0.3964
17101TIP3   OH272717   3.432   5.228   1.109  0.0279  0.1938  0.0121
17101TIP3    H172718   3.491   5.296   1.075  0.7044  0.7832  2.1941
17101TIP3    H272719   3.448   5.227   1.203 -1.5101 -1.5572  0.3206
17102TIP3   OH272720   5.999   5.274   6.120 -0.4741  0.2310  0.6487
17102TIP3    H172721   5.962   5.232   6.198  0.5676 -0.8784  0.5574
17102TIP3    H272722   5.929   5.269   6.055 -1.2835  0.9890  1.4230
17103TIP3   OH272723   5.150   5.965  14.072  0.0773  0.3861 -0.1975
17103TIP3    H172724   5.085   6.034  14.088  1.0278  1.0753  0.8103
17103TIP3    H272725   5.227   6.013  14.040  0.3244 -0.3543 -0.7278
17104TIP3   OH272726   1.396   1.076   3.927  0.1092 -0.1509  0.2370
17104TIP3    H172727   1.313   1.082   3.974 -0.9946 -0.0070 -1.6275
17104TIP3    H272728   1.453   1.025   3.985 -2.2361 -2.9035  0.2958
17105TIP3   OH272729   5.162   3.826   1.500  0.0534 -0.2961  0.1302
17105TIP3    H172730   5.100   3.797   1.433 -0.7141 -0.6390  0.9639
17105TIP3    H272731   5.200   3.745   1.535 -0.0436 -0.1633  0.5548
17106TIP3   OH272732   6.545   2.921  15.398  0.0997  0.1078 -0.1881
17106TIP3    H172733   6.469   2.973  15.371 -1.6411 -1.3830  1.5412
17106TIP3    H272734   6.564   2.865  15.324  0.2872  1.2890 -1.0674
17107TIP3   OH272735   0.007   5.270  11.796 -0.0281  0.3887  0.0547
17107TIP3    H172736  -0.086   5.266  11.774 -0.0523 -0.7244  0.2886
17107TIP3    H272737   0.012   5.331  11.869 -0.8827 -1.0649  1.3862
17108TIP3   OH272738   3.660   2.661  16.793  0.2995  0.2974  0.1505
17108TIP3    H172739   3.610   2.723  16.738 -0.4715  0.5059  1.0610
17108TIP3    H272740   3.718   2.617  16.731 -1.3758 -0.3299 -1.0790
17109TIP3   OH272741   5.844   6.493   0.618 -0.1506  0.0913 -0.2447
17109TIP3    H172742   5.825   6.555   0.548  1.6291 -0.1076 -0.9535
17109TIP3    H272743   5.810   6.409   0.586  0.3187  0.0760 -0.7152
17110TIP3   OH272744   3.753   6.210  10.968  0.1082 -0.1965  0.3657
17110TIP3    H172745   3.791   6.260  11.040 -0.1749  1.1608 -0.4017
17110TIP3    H272746   3.714   6.133  11.010 -0.2797  0.6959  1.6912
17111TIP3   OH272747   4.225   5.975  14.571 -0.4477  0.3320  0.1636
17111TIP3    H172748   4.208   5.883  14.595  0.0895 -0.0619 -0.9053
17111TIP3    H272749   4.204   5.979  14.478  2.6304  0.4674 -0.6068
17112TIP3   OH272750   0.480   4.377  11.432 -0.1320  0.0635 -0.4295
17112TIP3    H172751   0.543   4.384  11.360 -1.5643  0.6304 -1.6876
17112TIP3    H272752   0.453   4.467  11.450  0.0706 -0.0871  0.7079
17113TIP3   OH272753   6.749   1.662  16.799  0.4365 -0.2400  0.3189
17113TIP3    H172754   6.695   1.653  16.877 -0.0438 -0.5885 -0.0463
17113TIP3    H272755   6.702   1.611  16.732 -0.3293  1.8165 -0.7906
17114TIP3   OH272756   6.288   0.395   1.474  0.4403 -0.4677 -0.3287
17114TIP3    H172757   6.329   0.388   1.389 -0.8891 -0.6754 -0.9812
17114TIP3    H272758   6.264   0.488   1.481  1.5696 -0.2148  0.3251
17115TIP3   OH272759   2.206   3.222  15.223 -0.3479  0.4807 -0.1614
17115TIP3    H172760   2.166   3.182  15.300  0.9825 -1.2860 -0.3071
17115TIP3    H272761   2.213   3.315  15.244  0.6959 -0.0525  2.2109
17116TIP3   OH272762   1.746   4.770  14.528 -0.1029 -0.4511 -0.0160
17116TIP3    H172763   1.810   4.766  14.600 -0.6271  1.7299  0.6538
17116TIP3    H272764   1.798   4.784  14.450  0.4401 -2.3432 -0.0531
17117TIP3   OH272765   6.640   1.176   2.587  0.4969  0.0601 -0.4934
17117TIP3    H172766   6.639   1.163   2.682  0.3342  2.0842 -0.1819
17117TIP3    H272767   6.691   1.256   2.574  3.0312 -1.7093 -2.3689
17118TIP3   OH272768   6.526   6.247   2.826  0.4209 -0.2157 -0.2199
17118TIP3    H172769   6.526   6.167   2.879  2.2434 -1.6610 -2.2246
17118TIP3    H272770   6.492   6.219   2.741 -0.5155  1.5794 -0.4951
17119TIP3   OH272771   0.191   6.537   1.154  0.6672 -0.0465  0.0567
17119TIP3    H172772   0.261   6.579   1.103 -0.4079  1.9465  0.1035
17119TIP3    H272773   0.191   6.585   1.237 -0.3252 -0.4455  0.2977
17120TIP3   OH272774   0.164   2.476  11.991  0.0212  0.7273  0.4921
17120TIP3    H172775   0.099   2.410  11.970  1.0348 -0.2444  0.2678
17120TIP3    H272776   0.147   2.548  11.931  0.3710 -0.3346 -0.9367
17121TIP3   OH272777   3.055   0.891   6.468 -0.0636  0.2806 -0.0104
17121TIP3    H172778   2.991   0.842   6.521 -0.6850  1.8987  0.8215
17121TIP3    H272779   3.140   0.865   6.503 -0.3837 -0.1984  0.4296
17122TIP3   OH272780   0.292   2.641  13.232  0.2546  0.3572 -0.2793
17122TIP3    H172781   0.223   2.639  13.166 -0.9737  0.5030  0.9490
17122TIP3    H272782   0.373   2.634  13.182 -0.6681 -0.6747 -1.7192
17123TIP3   OH272783   0.476   5.326  12.524 -0.0586 -0.1931 -0.1068
17123TIP3    H172784   0.481   5.240  12.484  0.3514  0.5835 -1.8184
17123TIP3    H272785   0.518   5.316  12.609 -0.7611 -1.8534  0.0795
17124TIP3   OH272786   5.117   3.850   0.612 -0.5913 -0.2239  1.2057
17124TIP3    H172787   5.060   3.825   0.539  2.1824 -0.7841 -0.9527
17124TIP3    H272788   5.113   3.777   0.673 -0.9337 -0.9801  0.2939
17125TIP3   OH272789   5.744   6.272   0.533 -0.0522  0.2346 -0.1579
17125TIP3    H172790   5.668   6.247   0.585 -0.0141  0.1525 -0.1419
17125TIP3    H272791   5.732   6.227   0.450  1.2388 -1.8185  0.7120
17126TIP3   OH272792   1.112   5.427  14.340  0.4003 -0.0146  0.2845
17126TIP3    H172793   1.097   5.339  14.375 -1.7757  0.0548 -0.2948
17126TIP3    H272794   1.174   5.414  14.269  1.9923 -0.6875  1.7456
17127TIP3   OH272795   1.836   0.864   3.656  0.2445 -0.0423 -0.1212
17127TIP3    H172796   1.838   0.780   3.702 -1.6366  0.2315  0.5364
17127TIP3    H272797   1.746   0.895   3.666  0.7826  1.8455 -0.7465
17128TIP3   OH272798   3.205   3.670  14.391 -0.3328  0.2092  0.1154
17128TIP3    H172799   3.150   3.717  14.453 -0.4131  0.1448  0.0935
17128TIP3    H272800   3.246   3.738  14.338 -3.0048  0.2284 -2.1692
17129TIP3   OH272801   3.752   4.051  17.077  0.5551  0.0332 -0.0303
17129TIP3    H172802   3.795   4.115  17.135 -0.0541 -0.8862  1.4934
17129TIP3    H272803   3.697   3.999  17.136 -2.3363  0.8655 -1.7922
17130TIP3   OH272804   1.122   4.963  16.605  0.7255  0.4383  0.0210
17130TIP3    H172805   1.074   5.039  16.637  0.3876  0.1668  0.1687
17130TIP3    H272806   1.169   4.930  16.682 -1.8507 -1.5599  0.8780
17131TIP3   OH272807   3.337   5.600   6.172  0.4561 -0.4993 -0.1074
17131TIP3    H172808   3.352   5.521   6.224 -2.0371 -0.5511  0.6313
17131TIP3    H272809   3.389   5.668   6.215  1.1852 -1.3160  0.3324
17132TIP3   OH272810   3.913   2.511   4.604  0.4428  0.3354 -0.5154
17132TIP3    H172811   3.974   2.507   4.678  0.1597 -0.3957 -0.3110
17132TIP3    H272812   3.951   2.575   4.545 -0.3778  2.5498  1.2035
17133TIP3   OH272813   6.466   3.028   3.248  0.5702 -0.0280 -0.0760
17133TIP3    H172814   6.540   3.082   3.224 -0.4868  0.6043 -2.1116
17133TIP3    H272815   6.417   3.081   3.311  1.1779  0.0529  0.3398
17134TIP3   OH272816   5.702   3.884  13.352 -0.2803 -0.5778  0.1978
17134TIP3    H172817   5.754   3.921  13.281 -1.2593  0.7950  0.1397
17134TIP3    H272818   5.764   3.867  13.422  0.4378 -0.2642 -0.3521
17135TIP3   OH272819   2.349   5.150  12.616  0.2635 -0.1412 -0.2390
17135TIP3    H172820   2.267   5.166  12.569  0.5716 -1.9151 -1.4661
17135TIP3    H272821   2.323   5.145  12.708 -1.1534 -1.3478 -0.6611
17136TIP3   OH272822   4.187   3.434  13.047 -0.3009  0.1821  0.2708
17136TIP3    H172823   4.161   3.518  13.011 -2.4057 -0.2694  0.5521
17136TIP3    H272824   4.112   3.407  13.101  0.7749 -1.3432  1.0936
17137TIP3   OH272825   6.315   0.749   1.957  0.3049 -0.3399 -0.0217
17137TIP3    H172826   6.403   0.759   1.921  0.2984  0.7053  0.2132
17137TIP3    H272827   6.270   0.690   1.897  0.9052 -0.1953 -0.6184
17138TIP3   OH272828   0.040   5.944  13.335  0.1105  0.2647  0.2143
17138TIP3    H172829   0.104   5.874  13.318  0.7681  1.1892 -1.3471
17138TIP3    H272830   0.003   5.923  13.420  1.5727 -1.0149  0.5675
17139TIP3   OH272831   4.226   6.451  12.583  0.2729  0.3508  0.5445
17139TIP3    H172832   4.259   6.463  12.494 -0.3243 -1.1529  0.0882
17139TIP3    H272833   4.160   6.519  12.593 -2.0632 -1.4210 -1.4322
17140TIP3   OH272834   2.703   1.129  16.212 -0.5764  0.6008 -0.1549
17140TIP3    H172835   2.622   1.178  16.195 -2.0701 -1.1981  1.3327
17140TIP3    H272836   2.716   1.136  16.306  0.4747  0.0527 -0.2427
17141TIP3   OH272837   5.302   2.513   1.148  0.3349 -0.7032 -0.0370
17141TIP3    H172838   5.384   2.495   1.103 -0.2597 -2.4088 -0.5134
17141TIP3    H272839   5.292   2.440   1.210 -1.6429 -1.5151 -1.2063
17142TIP3   OH272840   2.357   4.233  13.730  0.0481  0.0516  0.7278
17142TIP3    H172841   2.346   4.201  13.641 -0.7391  0.3623  0.7071
17142TIP3    H272842   2.444   4.203  13.756  0.4209  0.2568 -0.2650
17143TIP3   OH272843   1.594   5.285  14.175 -0.0760  0.0253 -1.1214
17143TIP3    H172844   1.557   5.199  14.152  0.5830 -0.0394 -1.9769
17143TIP3    H272845   1.680   5.265  14.213 -1.6142  0.0169  2.8511
17144TIP3   OH272846   0.886   2.667  14.235  0.4379  0.4274 -0.4273
17144TIP3    H172847   0.875   2.606  14.308  1.2826  1.3042  0.4667
17144TIP3    H272848   0.953   2.626  14.179  0.8907  0.4456  0.0916
17145TIP3   OH272849   4.919   5.923  16.747  0.1848  0.2414  0.2685
17145TIP3    H172850   4.874   5.842  16.724  0.4551 -0.0162  0.6424
17145TIP3    H272851   4.854   5.974  16.796  0.3084 -0.1319  0.8140
17146TIP3   OH272852   1.382   2.997  16.091 -0.0880 -0.1412 -0.0984
17146TIP3    H172853   1.345   3.046  16.166  0.2008 -0.8288  0.5011
17146TIP3    H272854   1.476   3.007  16.100 -0.0163 -1.0826  0.2139
17147TIP3   OH272855   1.549   1.611  16.950  0.0666 -0.0797 -0.0281
17147TIP3    H172856   1.615   1.550  16.918  1.1857  0.9568  0.2395
17147TIP3    H272857   1.548   1.682  16.885 -1.3566 -0.4462 -0.4465
17148TIP3   OH272858   1.151   2.217   5.143  0.5878 -0.2070 -0.0463
17148TIP3    H172859   1.122   2.282   5.078 -0.3292 -0.2115  0.3474
17148TIP3    H272860   1.246   2.229   5.147  0.5484  0.4386 -0.7015
17149TIP3   OH272861   6.263   5.671   6.847 -0.4317 -0.2487  0.2445
17149TIP3    H172862   6.203   5.599   6.864  0.3783 -1.3054 -1.1476
17149TIP3    H272863   6.326   5.635   6.784 -0.8677  2.0869 -1.6897
17150TIP3   OH272864   0.026   3.405  15.993 -0.0918  0.4767  0.0224
17150TIP3    H172865   0.010   3.420  15.900 -0.9949  2.5010  0.4418
17150TIP3    H272866  -0.020   3.323  16.013  0.4693 -0.2110 -1.3664
17151TIP3   OH272867   2.135   1.128   2.031 -0.0463  0.1077  0.2993
17151TIP3    H172868   2.207   1.191   2.040  1.0176 -1.1175  0.7252
17151TIP3    H272869   2.056   1.182   2.027  0.8393  1.4697  0.4940
17152TIP3   OH272870   6.351   0.492   0.454  0.0441  0.1821  0.2421
17152TIP3    H172871   6.289   0.552   0.412  0.9169  0.8963 -0.0584
17152TIP3    H272872   6.296   0.420   0.488 -0.9307  0.7730 -0.0460
17153TIP3   OH272873   2.134   2.184   1.912  0.1989  0.0034 -0.0611
17153TIP3    H172874   2.146   2.204   2.005  1.0619  0.3589 -0.2433
17153TIP3    H272875   2.139   2.269   1.868  0.5306 -0.2456 -0.5081
17154TIP3   OH272876   0.834   3.353   2.432  0.1247  0.3046 -0.3033
17154TIP3    H172877   0.821   3.412   2.507 -0.1500  0.2449 -0.3030
17154TIP3    H272878   0.769   3.285   2.444 -0.1212  0.4565 -0.7623
17155TIP3   OH272879   1.898   4.593  16.001  0.0386  0.2921  0.3817
17155TIP3    H172880   1.897   4.568  16.094  0.4439 -1.6415 -0.0968
17155TIP3    H272881   1.926   4.685  16.002  0.8130  0.0892  2.1287
17156TIP3   OH272882   2.976   1.196   2.188 -0.7876 -0.0260 -0.1946
17156TIP3    H172883   2.994   1.270   2.245  0.0381  0.0974 -0.5932
17156TIP3    H272884   2.931   1.233   2.113 -0.8952 -0.0203 -0.1274
17157TIP3   OH272885   1.028   5.929  14.872  0.1475  0.0593 -0.1019
17157TIP3    H172886   1.045   5.845  14.914  1.5585  0.8326  0.9542
17157TIP3    H272887   1.115   5.962  14.849 -0.3940  1.1835 -0.6148
17158TIP3   OH272888   3.053   5.649  14.694 -0.6440  0.2285  0.0514
17158TIP3    H172889   3.077   5.567  14.652 -0.6806  0.5467 -0.5967
17158TIP3    H272890   2.986   5.625  14.759 -0.5734 -0.2631 -0.0610
17159TIP3   OH272891   5.026   6.515   4.320  0.0528 -0.4479  0.0629
17159TIP3    H172892   5.060   6.604   4.327 -0.5393 -0.3512  3.8857
17159TIP3    H272893   5.072   6.477   4.245  3.0150  1.9475  0.4972
17160TIP3   OH272894   3.075   3.068   0.814  0.4844 -0.1744  0.2781
17160TIP3    H172895   3.059   3.056   0.908  2.8778  1.4180  0.9881
17160TIP3    H272896   3.168   3.050   0.803  0.4722  0.6781 -1.5957
17161TIP3   OH272897   1.190   6.660  10.827 -0.2804  0.3922 -0.1750
17161TIP3    H172898   1.239   6.720  10.771  0.4467 -0.2380 -0.2377
17161TIP3    H272899   1.099   6.673  10.801 -0.2092  1.8887  0.2399
17162TIP3   OH272900   2.433   3.913  14.418 -0.0029 -0.3889 -0.1951
17162TIP3    H172901   2.339   3.931  14.416 -0.4911 -2.6526 -2.0064
17162TIP3    H272902   2.442   3.839  14.479  0.6283 -0.1002  0.0671
17163TIP3   OH272903   4.328   4.570   3.332 -0.4389  0.7721  0.0912
17163TIP3    H172904   4.307   4.507   3.263 -0.0097 -1.8014  2.1516
17163TIP3    H272905   4.271   4.545   3.405  0.0336  2.5807  1.1371
17164TIP3   OH272906   1.530   2.599  13.589 -0.5040 -0.5098 -0.2612
17164TIP3    H172907   1.548   2.506  13.577 -0.5454 -0.6396  0.6039
17164TIP3    H272908   1.572   2.642  13.514 -1.9508 -1.3661 -1.6271
17165TIP3   OH272909   4.733   2.512  13.140 -0.3356 -0.6052 -0.5784
17165TIP3    H172910   4.707   2.484  13.228 -0.5941 -0.4881 -0.6146
17165TIP3    H272911   4.689   2.596  13.128  1.1341  0.2637 -0.1264
17166TIP3   OH272912   5.515   4.971   0.348  0.0495 -0.0042 -0.0795
17166TIP3    H172913   5.461   5.038   0.390  0.3040 -0.2021  0.5636
17166TIP3    H272914   5.592   5.019   0.316 -1.0842  0.5308 -2.1846
17167TIP3   OH272915   2.138   2.308   4.016 -0.1020  0.4652 -0.1566
17167TIP3    H172916   2.109   2.363   3.943 -2.4607 -0.6199 -0.1232
17167TIP3    H272917   2.188   2.238   3.975 -0.9983  0.1319 -0.7065
17168TIP3   OH272918   5.386   1.439  16.659 -0.0782  0.1837  0.1872
17168TIP3    H172919   5.479   1.458  16.674 -0.2742  0.9086  0.5360
17168TIP3    H272920   5.347   1.439  16.746 -0.4488  0.1230  0.0223
17169TIP3   OH272921   0.290   5.140   5.482 -0.1101 -0.3983 -0.0713
17169TIP3    H172922   0.225   5.082   5.523 -0.1231 -0.1876  0.2103
17169TIP3    H272923   0.374   5.102   5.506 -0.1311 -1.0589 -1.0019
17170TIP3   OH272924   3.589   5.602   3.125  0.1906  0.6051 -0.1723
17170TIP3    H172925   3.684   5.599   3.141  0.3655 -0.0336 -1.1842
17170TIP3    H272926   3.582   5.615   3.030 -0.7395 -0.0543 -0.2042
17171TIP3   OH272927   5.188   2.990   0.482  0.7532 -0.3150 -0.2572
17171TIP3    H172928   5.140   3.061   0.524 -1.8614 -1.6896 -0.6945
17171TIP3    H272929   5.229   3.030   0.406 -1.8790  0.5314 -1.3293
17172TIP3   OH272930   4.929   1.457   1.724  0.3990  0.3656 -0.5875
17172TIP3    H172931   4.870   1.528   1.749  2.2249  1.5864  0.5784
17172TIP3    H272932   4.918   1.391   1.792  0.3867  0.6092 -0.3491
17173TIP3   OH272933   1.958   0.948  17.243 -0.8835  0.5261 -0.2382
17173TIP3    H172934   1.975   0.989  17.328 -2.2755 -1.0128  0.8367
17173TIP3    H272935   1.863   0.948  17.235 -0.8335 -0.7215 -1.0824
17174TIP3   OH272936   6.345   6.510   5.340  0.1512 -0.1046  0.0268
17174TIP3    H172937   6.312   6.469   5.420 -0.3375 -0.1253 -0.1825
17174TIP3    H272938   6.268   6.547   5.298  0.6055  1.3337  0.3679
17175TIP3   OH272939   6.654   6.133  13.538  0.7247  0.6962  0.1994
17175TIP3    H172940   6.743   6.163  13.557  0.9211  0.9270 -1.0213
17175TIP3    H272941   6.660   6.037  13.541  1.0001  0.7129  0.1842
17176TIP3   OH272942   4.493   4.093   2.202 -0.5549 -0.6569 -0.0234
17176TIP3    H172943   4.546   4.077   2.123 -0.0169 -0.1816  0.2314
17176TIP3    H272944   4.416   4.138   2.169  0.7701  1.7548 -0.0467
17177TIP3   OH272945   5.871   0.192   2.268 -0.7068 -0.2991 -0.0843
17177TIP3    H172946   5.927   0.221   2.340 -2.1716 -0.2202  1.0820
17177TIP3    H272947   5.849   0.273   2.221 -0.4807 -0.2342 -0.0801
17178TIP3   OH272948   0.019   0.207  13.534  0.1619 -0.3701  0.1169
17178TIP3    H172949   0.057   0.293  13.514 -1.0471  0.0113 -0.6605
17178TIP3    H272950  -0.062   0.204  13.483  0.2896 -2.0781 -0.0388
17179TIP3   OH272951   3.506   0.433  14.603 -0.4284 -0.1640 -0.1678
17179TIP3    H172952   3.425   0.437  14.552 -1.3317  0.9759  1.2771
17179TIP3    H272953   3.498   0.355  14.657  0.7977 -1.7231 -2.0709
17180TIP3   OH272954   0.654   4.087  16.984 -0.2402 -0.7337 -0.2244
17180TIP3    H172955   0.603   4.097  16.903 -1.4552  1.7464  0.7430
17180TIP3    H272956   0.596   4.038  17.042 -1.0866  0.9276  0.4169
17181TIP3   OH272957   6.160   1.007   4.078 -0.4240  0.8527 -0.2536
17181TIP3    H172958   6.139   0.933   4.135 -1.0790  0.6182 -0.7905
17181TIP3    H272959   6.251   1.028   4.099 -0.7857  1.0554  1.1936
17182TIP3   OH272960   6.226   5.831  15.618  0.2187  0.8497 -0.6249
17182TIP3    H172961   6.140   5.824  15.661 -0.1006  1.0399 -1.2308
17182TIP3    H272962   6.207   5.822  15.525  0.5758  3.0701 -0.9553
17183TIP3   OH272963   4.645   4.144   6.142  0.4206 -0.7765 -0.5875
17183TIP3    H172964   4.588   4.102   6.206  1.0928 -2.0626 -0.7968
17183TIP3    H272965   4.684   4.218   6.188  0.4910 -1.3760  0.3344
17184TIP3   OH272966   6.697   5.322  17.100  0.1563  0.1488 -0.3121
17184TIP3    H172967   6.743   5.403  17.077  0.7798 -0.4810 -1.3642
17184TIP3    H272968   6.758   5.274  17.155  0.8364 -0.7167 -1.7620
17185TIP3   OH272969   2.561   5.207   0.627  0.0785  0.2645  0.5510
17185TIP3    H172970   2.641   5.169   0.664  1.3918  2.0225 -0.3138
17185TIP3    H272971   2.562   5.179   0.535  0.3607  1.2480  0.2399
17186TIP3   OH272972   4.090   0.454   2.139 -0.2328  0.1003  0.3391
17186TIP3    H172973   4.164   0.510   2.116 -0.7122  0.4841 -0.3228
17186TIP3    H272974   4.041   0.506   2.203 -0.3839  0.2086  0.1366
17187TIP3   OH272975   0.334   3.515   6.511 -0.4939 -0.2089  0.3374
17187TIP3    H172976   0.313   3.451   6.443  0.7969 -0.6815  0.3543
17187TIP3    H272977   0.249   3.538   6.549 -1.5288  1.4766 -2.6197
17188TIP3   OH272978   6.044   5.379   1.327  0.3789  0.9988  0.5450
17188TIP3    H172979   6.130   5.349   1.298  0.0343  0.3938  0.1098
17188TIP3    H272980   6.037   5.469   1.296  0.3860  0.6561 -0.4720
17189TIP3   OH272981   2.044   3.169   5.069  0.1378 -0.3546 -0.2340
17189TIP3    H172982   2.092   3.162   5.152 -1.6396 -0.3028  0.8721
17189TIP3    H272983   2.011   3.259   5.069 -1.5099 -0.9318 -0.0117
17190TIP3   OH272984   0.261   3.608   0.884  1.0852  0.1169  0.3097
17190TIP3    H172985   0.292   3.518   0.894  2.7630  0.4767 -1.0564
17190TIP3    H272986   0.269   3.625   0.790  0.6136  1.6289  0.5177
17191TIP3   OH272987   4.976   5.687   0.192  0.2439  0.1611  0.5039
17191TIP3    H172988   5.062   5.716   0.222 -1.5719  3.7447  3.0171
17191TIP3    H272989   4.969   5.597   0.224  2.2584  0.5287  2.2136
17192TIP3   OH272990   1.146   0.512  16.068  0.6673  0.1930  0.2444
17192TIP3    H172991   1.148   0.607  16.065  2.0755  0.1635 -1.9971
17192TIP3    H272992   1.202   0.489  16.143  0.1443  1.0955  0.9313
17193TIP3   OH272993   3.031   5.285   1.488  0.1490 -0.3209  0.2881
17193TIP3    H172994   3.099   5.218   1.479 -1.4016 -1.9426  0.0014
17193TIP3    H272995   3.020   5.320   1.399  0.4921 -0.1608  0.3071
17194TIP3   OH272996   4.245   1.456   2.729  0.5249 -0.1682  0.0613
17194TIP3    H172997   4.297   1.470   2.808  0.9041  1.2558 -0.4115
17194TIP3    H272998   4.278   1.521   2.667 -0.8371 -0.2041 -0.7368
17195TIP3   OH272999   3.782   4.663  12.549  0.0560 -0.0098  0.1628
17195TIP3    H173000   3.842   4.604  12.502  0.5530  1.7596 -1.5373
17195TIP3    H273001   3.830   4.690  12.626  0.1060 -1.2196  0.5780
17196TIP3   OH273002   6.765   1.762   4.404  0.0075  0.0126 -0.5834
17196TIP3    H173003   6.713   1.756   4.484  0.2401 -2.3066 -0.5583
17196TIP3    H273004   6.852   1.789   4.434 -0.3953  1.0796 -0.3139
17197TIP3   OH273005   5.604   5.785  12.117 -0.1528 -0.6860 -0.3706
17197TIP3    H173006   5.535   5.720  12.104 -1.4325  0.3707  0.7527
17197TIP3    H273007   5.594   5.846  12.043 -0.0657 -0.8216 -0.4953
17198TIP3   OH273008   6.210   3.213   5.112 -0.4286  0.4805  0.6951
17198TIP3    H173009   6.246   3.130   5.144  1.6695  0.5210 -1.3119
17198TIP3    H273010   6.184   3.260   5.191 -1.6863 -2.0285  1.9101
17199TIP3   OH273011   2.785   4.186  12.889  0.0404  0.3154  0.0990
17199TIP3    H173012   2.723   4.139  12.833 -0.9071  0.2895  1.1226
17199TIP3    H273013   2.862   4.129  12.894 -0.0499  0.1025 -0.7768
17200TIP3   OH273014   1.390   5.383   1.099  0.2012  0.3385  0.5018
17200TIP3    H173015   1.434   5.459   1.138  0.8136  0.4739 -0.4248
17200TIP3    H273016   1.307   5.417   1.068  1.8415  1.5624 -3.0730
17201TIP3   OH273017   3.293   3.344   2.334 -0.0882  0.1470 -0.0774
17201TIP3    H173018   3.363   3.281   2.318 -1.9108 -1.7284 -1.2914
17201TIP3    H273019   3.282   3.389   2.251 -1.3910 -0.8146 -0.4720
17202TIP3   OH273020   4.696   5.449   5.899  0.5050 -0.0009 -0.3144
17202TIP3    H173021   4.736   5.366   5.927 -0.9067 -0.7452 -0.4366
17202TIP3    H273022   4.699   5.504   5.978 -2.0318 -1.5354  0.9809
17203TIP3   OH273023   1.986   0.155   3.327 -0.0106 -0.0222  0.4579
17203TIP3    H173024   2.043   0.178   3.400 -0.5020 -0.5680  1.0175
17203TIP3    H273025   1.907   0.119   3.367 -0.7957  0.8002 -0.3118
17204TIP3   OH273026   2.558   2.016  15.985 -0.7433 -0.8525  0.4965
17204TIP3    H173027   2.484   1.979  15.937 -0.2619 -0.4170 -0.6079
17204TIP3    H273028   2.563   2.107  15.956  1.3776 -1.3447 -0.9643
17205TIP3   OH273029   3.910   2.517  11.035  0.1798  0.5162  0.0374
17205TIP3    H173030   3.841   2.519  10.968 -0.2815 -0.5007  0.4567
17205TIP3    H273031   3.990   2.539  10.988  0.2309 -2.2327 -1.3535
17206TIP3   OH273032   3.290   1.305   3.206  0.2062 -0.2349  0.6541
17206TIP3    H173033   3.276   1.283   3.298  1.9090  0.6243  1.1629
17206TIP3    H273034   3.363   1.248   3.178  0.1733  0.0057  0.0479
17207TIP3   OH273035   5.650   6.709   6.030  0.2451 -0.1846  0.5059
17207TIP3    H173036   5.612   6.714   6.118  0.6848 -0.5652  0.7236
17207TIP3    H273037   5.722   6.772   6.032  0.0227  0.0757  0.2979
17208TIP3   OH273038   6.528   5.439   1.670  0.3870 -0.0199 -0.7109
17208TIP3    H173039   6.584   5.517   1.663  0.1916  0.3206  1.1556
17208TIP3    H273040   6.578   5.379   1.724 -0.6344 -0.0751  0.2032
17209TIP3   OH273041   4.208   6.200   3.429  0.0005  0.3061 -0.3584
17209TIP3    H173042   4.130   6.212   3.374 -0.4383  0.3596  0.2658
17209TIP3    H273043   4.269   6.152   3.373 -0.8344 -0.5758 -0.5403
17210TIP3   OH273044   0.550   0.635  14.891  0.3656  0.4013  0.0495
17210TIP3    H173045   0.502   0.710  14.923 -0.5240 -0.7212  1.4500
17210TIP3    H273046   0.534   0.635  14.796 -0.1627  1.5649  0.1230
17211TIP3   OH273047   3.361   0.460  16.486 -0.1512  0.1668 -0.0913
17211TIP3    H173048   3.290   0.469  16.423 -0.6049  2.0950  0.6314
17211TIP3    H273049   3.390   0.550  16.503  1.3264 -0.4593  0.9142
17212TIP3   OH273050   5.355   3.791  16.920 -0.4743 -0.7889 -0.0611
17212TIP3    H173051   5.356   3.882  16.890 -0.4530 -0.7938 -0.0755
17212TIP3    H273052   5.395   3.742  16.849  0.6845 -0.6520  0.4592
17213TIP3   OH273053   3.331   0.299  12.810  0.1839 -0.2715  0.0224
17213TIP3    H173054   3.369   0.255  12.885 -1.1897  1.3833  1.7981
17213TIP3    H273055   3.405   0.315  12.751  1.9160  0.9334  2.3624
17214TIP3   OH273056   5.314   6.152  11.254 -0.2149  0.6948 -0.0292
17214TIP3    H173057   5.376   6.217  11.288  0.3448  0.7788 -1.1631
17214TIP3    H273058   5.369   6.080  11.222 -0.6042  1.1911 -1.9586
17215TIP3   OH273059   0.538   3.700  15.363  0.2146  0.1850 -0.0165
17215TIP3    H173060   0.493   3.631  15.314  1.9024 -2.5780  2.0428
17215TIP3    H273061   0.624   3.706  15.322  1.0769 -1.0334  1.5249
17216TIP3   OH273062   5.084   3.587   0.205  0.3376  0.8148 -0.0698
17216TIP3    H173063   5.094   3.642   0.127  0.3551  1.0144  0.0719
17216TIP3    H273064   5.037   3.509   0.173  1.6837  0.1885 -0.5921
17217TIP3   OH273065   3.033   4.259  15.675 -0.2434 -0.5034 -0.2038
17217TIP3    H173066   3.008   4.306  15.754 -1.7243 -2.2026  0.3862
17217TIP3    H273067   3.045   4.168  15.703  0.6142 -0.8795 -1.6772
17218TIP3   OH273068   3.011   1.090  15.298  0.3825 -0.0102 -0.1176
17218TIP3    H173069   3.044   1.065  15.211  0.0753 -0.5949 -0.0694
17218TIP3    H273070   3.007   1.186  15.295  0.9739  0.0091 -0.5279
17219TIP3   OH273071   0.534   5.694   4.673  0.1344  0.2315  0.0821
17219TIP3    H173072   0.491   5.645   4.742 -1.8580  0.0731 -1.1839
17219TIP3    H273073   0.507   5.650   4.592  2.0665  0.6325 -0.8404
17220TIP3   OH273074   4.412   0.108  10.352  0.1666 -0.4808 -0.6035
17220TIP3    H173075   4.406   0.102  10.256 -0.9879  1.4732 -0.7220
17220TIP3    H273076   4.489   0.162  10.368 -0.7449  0.8905 -0.5873
17221TIP3   OH273077   4.442   3.098   5.097  0.4950 -0.4322  0.2802
17221TIP3    H173078   4.365   3.043   5.085 -0.5658  1.1131 -0.4514
17221TIP3    H273079   4.491   3.089   5.015 -0.0143  0.1687 -0.1044
17222TIP3   OH273080   1.753   4.508  10.575 -0.2711  0.6182 -0.2690
17222TIP3    H173081   1.771   4.415  10.591  2.0681  1.4147  2.7816
17222TIP3    H273082   1.683   4.530  10.637 -0.0557  1.1063 -0.1944
17223TIP3   OH273083   2.555   5.560  14.573 -0.7177  0.5658  0.3874
17223TIP3    H173084   2.483   5.600  14.621 -0.1144 -0.2394  2.0319
17223TIP3    H273085   2.561   5.471  14.607 -0.3260 -0.1023 -1.3016
17224TIP3   OH273086   0.177   6.080   0.766 -0.7721  0.1282 -0.6793
17224TIP3    H173087   0.195   5.989   0.789 -0.8979  0.3446  0.3020
17224TIP3    H273088   0.253   6.107   0.714 -0.4610 -0.3579 -0.4787
17225TIP3   OH273089   0.772   1.269   4.378  0.7873 -0.2278  0.1640
17225TIP3    H173090   0.734   1.226   4.301 -0.0928 -0.8931  0.9475
17225TIP3    H273091   0.795   1.197   4.437  4.6459  0.0086 -0.7940
17226TIP3   OH273092   5.777   4.671   2.968  0.7971  0.0346  0.0290
17226TIP3    H173093   5.700   4.622   2.999  0.2101  1.5948  1.2034
17226TIP3    H273094   5.766   4.675   2.874  0.3062 -1.1381  0.0092
17227TIP3   OH273095   3.231   5.861  11.140  0.5590 -0.2575 -0.6270
17227TIP3    H173096   3.179   5.887  11.064  0.5103  0.4572 -0.3635
17227TIP3    H273097   3.306   5.815  11.103  0.1799 -0.5273 -1.0640
17228TIP3   OH273098   4.007   3.876  12.932  0.2745 -0.0349  0.4621
17228TIP3    H173099   4.081   3.864  12.872  1.2480  0.0973  1.6081
17228TIP3    H273100   4.026   3.817  13.005 -0.8951 -0.1932  0.6616
17229TIP3   OH273101   3.763   4.347   3.588 -0.8608 -0.4313 -0.1385
17229TIP3    H173102   3.677   4.390   3.591 -0.9639 -0.6716  1.1003
17229TIP3    H273103   3.825   4.418   3.577 -1.0312  0.0960  1.8483
17230TIP3   OH273104   0.483   2.287  15.398  0.1212  0.0437  0.3625
17230TIP3    H173105   0.401   2.274  15.349  0.8847  0.5023 -1.0980
17230TIP3    H273106   0.545   2.320  15.333  1.9824 -1.8771  1.0236
17231TIP3   OH273107   6.760   2.292  12.409  0.2676 -0.4992 -0.1000
17231TIP3    H173108   6.810   2.368  12.440  0.6145  0.6862 -3.1636
17231TIP3    H273109   6.723   2.321  12.325 -1.1544 -3.1379 -0.4810
17232TIP3   OH273110   6.185   4.017   3.411 -0.2533 -0.4649  0.5657
17232TIP3    H173111   6.159   3.972   3.331  0.7128  2.1222 -1.3656
17232TIP3    H273112   6.278   3.995   3.422 -0.7501 -2.1297  2.0369
17233TIP3   OH273113   5.631   0.861   3.609 -0.2772  0.4603 -0.5182
17233TIP3    H173114   5.604   0.948   3.637  0.5556  0.6690 -0.3488
17233TIP3    H273115   5.727   0.861   3.617 -0.3419 -0.9197  0.8703
17234TIP3   OH273116   3.820   0.867   2.039  0.2153 -0.2180  0.3437
17234TIP3    H173117   3.830   0.810   2.115  2.2962 -0.8691 -0.3339
17234TIP3    H273118   3.806   0.954   2.075  0.4274 -0.6336  1.4586
17235TIP3   OH273119   6.214   0.903   1.554 -0.6688  0.1159  0.7117
17235TIP3    H173120   6.295   0.930   1.598  0.2012 -1.2496 -0.0035
17235TIP3    H273121   6.145   0.925   1.617  0.4914 -1.4430  2.6481
17236TIP3   OH273122   1.890   4.277   2.569 -0.6224  0.0954 -0.2179
17236TIP3    H173123   1.795   4.283   2.583 -0.9736 -2.7719 -0.8669
17236TIP3    H273124   1.908   4.183   2.568  2.1030  0.5602 -1.0427
17237TIP3   OH273125   1.888   0.825  16.469 -0.4328 -0.4177 -0.0934
17237TIP3    H173126   1.978   0.792  16.469 -0.0735  0.4862  1.2372
17237TIP3    H273127   1.836   0.752  16.502 -0.3536 -1.2442 -1.6662
17238TIP3   OH273128   2.965   4.087  12.525 -0.1463 -0.5114 -0.0229
17238TIP3    H173129   3.032   4.124  12.468  0.7176  0.0878  1.3319
17238TIP3    H273130   2.882   4.105  12.480  0.5975 -2.4532 -2.3945
17239TIP3   OH273131   4.068   2.986  11.583  0.1250 -0.3474  0.1976
17239TIP3    H173132   4.132   2.915  11.588  0.7383  0.2427  4.4398
17239TIP3    H273133   3.996   2.957  11.640  0.4595  2.3669  2.1902
17240TIP3   OH273134   3.013   1.568  14.342  0.1259 -0.6504 -0.5289
17240TIP3    H173135   2.975   1.612  14.266  0.3577  0.5428  0.0041
17240TIP3    H273136   3.017   1.476  14.318 -0.6723 -0.4290 -1.5928
17241TIP3   OH273137   1.412   4.499  15.602  0.2503 -0.0213  0.2771
17241TIP3    H173138   1.449   4.546  15.676 -1.2583  0.7582  0.5764
17241TIP3    H273139   1.342   4.556  15.570  1.3167  0.0138 -2.2183
17242TIP3   OH273140   3.720   0.014  13.817  0.7841  0.1145  0.1880
17242TIP3    H173141   3.804  -0.008  13.776  2.2034  0.0839  2.8993
17242TIP3    H273142   3.693  -0.066  13.862 -0.9118  0.0441 -0.8356
17243TIP3   OH273143   5.048   1.050  10.745 -0.2347 -0.3963  0.4766
17243TIP3    H173144   5.028   1.116  10.811 -1.1860  0.0474 -0.2286
17243TIP3    H273145   5.143   1.041  10.749 -0.0190  1.3722  0.2872
17244TIP3   OH273146   1.752   2.133  11.160 -0.9911  0.8919  0.0901
17244TIP3    H173147   1.741   2.128  11.065 -0.8249  0.9574  0.0659
17244TIP3    H273148   1.775   2.225  11.176  1.3768  0.3833 -0.0717
17245TIP3   OH273149   3.790   1.343   2.371 -0.0287  0.1309 -0.0924
17245TIP3    H173150   3.697   1.342   2.394 -0.6774  1.0269 -2.4496
17245TIP3    H273151   3.825   1.420   2.415  0.0555 -1.0947  2.1634
17246TIP3   OH273152   3.533   6.354   1.473 -0.2249 -0.3589 -0.5428
17246TIP3    H173153   3.595   6.345   1.545  1.0317 -1.4639 -1.7098
17246TIP3    H273154   3.496   6.442   1.484 -0.3518 -0.6366  1.6325
17247TIP3   OH273155   2.264   0.462   2.716 -0.1849 -0.4964 -0.0629
17247TIP3    H173156   2.289   0.459   2.808  0.4597 -0.4707 -0.2367
17247TIP3    H273157   2.169   0.448   2.716 -0.1660 -0.6077  0.5938
17248TIP3   OH273158   5.015   0.048  15.350  0.6124 -0.3393  0.3030
17248TIP3    H173159   5.073   0.060  15.275  0.6779  1.1396  0.5591
17248TIP3    H273160   4.945   0.112  15.336  0.2423 -0.5458  1.1446
17249TIP3   OH273161   1.737   1.468  16.095  0.5403  0.0157 -0.1586
17249TIP3    H173162   1.759   1.375  16.107  1.9740  0.1433 -1.4135
17249TIP3    H273163   1.645   1.468  16.071 -0.1458 -0.8542  2.1921
17250TIP3   OH273164   1.603   4.304  11.773  0.0592  0.3602 -0.0363
17250TIP3    H173165   1.677   4.265  11.819 -1.5869 -1.4544  1.2734
17250TIP3    H273166   1.536   4.317  11.841 -2.2383 -1.8132 -1.6752
17251TIP3   OH273167   3.800   1.180   5.831  0.2691 -0.2018 -0.2004
17251TIP3    H173168   3.837   1.097   5.800  0.5693 -0.3204  0.4461
17251TIP3    H273169   3.871   1.244   5.819  0.7539 -0.4435  1.1048
17252TIP3   OH273170   4.986   5.516  16.840 -0.1537 -0.0655  0.0705
17252TIP3    H173171   5.027   5.521  16.754  0.6940 -0.1233  0.4498
17252TIP3    H273172   4.932   5.438  16.837  1.3032 -1.1093  0.1657
17253TIP3   OH273173   0.669   3.277  12.418 -0.2995 -0.5786 -0.0219
17253TIP3    H173174   0.743   3.242  12.468  0.6740 -0.8681 -1.6182
17253TIP3    H273175   0.610   3.202  12.408 -1.3620 -0.1015  2.1391
17254TIP3   OH273176   5.449   4.387  14.071  0.1184  0.4819  0.0523
17254TIP3    H173177   5.468   4.436  13.991 -0.8872  2.2873  0.8769
17254TIP3    H273178   5.535   4.371  14.111  0.5737  0.1300 -1.0345
17255TIP3   OH273179   0.474   3.859  14.213  0.1370  0.0346 -0.0335
17255TIP3    H173180   0.545   3.796  14.201  0.3478  0.1500  0.5704
17255TIP3    H273181   0.445   3.846  14.304 -1.2983 -0.7151 -0.5627
17256TIP3   OH273182   3.980   4.810   2.452  0.0662  0.1025  0.1931
17256TIP3    H173183   3.912   4.804   2.385 -1.1551 -0.7105  1.4463
17256TIP3    H273184   3.936   4.784   2.533  1.1261  2.3319  1.5827
17257TIP3   OH273185   5.282   1.739  14.141  0.0541 -0.0998 -0.1473
17257TIP3    H173186   5.323   1.763  14.225 -0.3948  0.2578 -0.0260
17257TIP3    H273187   5.200   1.787  14.140 -1.7360 -2.9075  0.8640
17258TIP3   OH273188   2.656   4.749   3.291  0.1725  0.6389  0.1435
17258TIP3    H173189   2.739   4.703   3.305  0.7787  0.3736 -3.3587
17258TIP3    H273190   2.597   4.682   3.255  0.4978  2.0167 -3.2829
17259TIP3   OH273191   5.688   1.405   6.056 -0.1309 -0.1204 -0.5118
17259TIP3    H173192   5.775   1.424   6.091 -1.1155 -0.4496  2.3490
17259TIP3    H273193   5.629   1.465   6.102 -1.9620 -2.9129  1.1222
17260TIP3   OH273194   3.762   3.205  13.107 -0.1348 -0.2838  0.2905
17260TIP3    H173195   3.728   3.179  13.021 -1.3986  0.0795  0.6738
17260TIP3    H273196   3.753   3.300  13.109  2.3604  0.0279 -0.1930
17261TIP3   OH273197   4.077   1.858  12.936 -0.5942 -0.1838 -0.1304
17261TIP3    H173198   4.058   1.916  12.862 -0.2137 -0.2924 -0.3157
17261TIP3    H273199   4.009   1.878  13.000 -1.0778 -0.2616 -0.6051
17262TIP3   OH273200   5.233   0.288   3.823  0.2026 -0.0125  0.2983
17262TIP3    H173201   5.290   0.290   3.747  0.2210  0.7261  0.3229
17262TIP3    H273202   5.259   0.210   3.871  0.4327 -0.2846 -0.2663
17263TIP3   OH273203   2.527   4.246  16.067 -0.1320 -1.0676  0.0334
17263TIP3    H173204   2.535   4.319  16.129 -2.2839 -1.5289  0.9450
17263TIP3    H273205   2.617   4.215  16.055  0.5288  0.0290  1.7356
17264TIP3   OH273206   3.513   4.373  12.448  0.6401  0.0142  0.4897
17264TIP3    H173207   3.527   4.297  12.391 -0.8186 -0.0321  0.1617
17264TIP3    H273208   3.433   4.414  12.415  1.8801  2.2415  0.0907
17265TIP3   OH273209   4.387   0.298   5.243 -0.7140 -0.5173  0.0090
17265TIP3    H173210   4.333   0.346   5.181 -0.0513 -0.1027 -0.2528
17265TIP3    H273211   4.424   0.225   5.192  0.0304 -0.0339 -0.1609
17266TIP3   OH273212   4.708   2.848  12.122 -0.7681 -0.4535  0.4358
17266TIP3    H173213   4.681   2.803  12.202 -0.7118  0.3996  0.9388
17266TIP3    H273214   4.803   2.857  12.131 -0.6818 -0.8654  0.0010
17267TIP3   OH273215   3.183   2.860   2.084 -0.1474  0.2005  0.1976
17267TIP3    H173216   3.119   2.816   2.141 -0.9050  0.0967 -0.7051
17267TIP3    H273217   3.155   2.837   1.995  1.4849 -0.3162 -0.2129
17268TIP3   OH273218   4.001   6.171  15.644 -0.0128 -0.5164 -0.1851
17268TIP3    H173219   4.018   6.176  15.550  0.0165 -0.2271 -0.1658
17268TIP3    H273220   3.919   6.219  15.656 -0.1456 -0.7659 -0.0984
17269TIP3   OH273221   6.168   5.116   5.440  0.5398 -0.7802 -0.0900
17269TIP3    H173222   6.168   5.202   5.397  0.1170 -0.7329  0.0056
17269TIP3    H273223   6.259   5.087   5.434  0.7900 -0.1141  0.2928
17270TIP3   OH273224   1.737   2.759   2.740  0.2137  0.4166  0.0842
17270TIP3    H173225   1.774   2.751   2.652  0.7870  0.4355  0.3225
17270TIP3    H273226   1.811   2.779   2.796 -0.0282 -0.3511  0.6992
17271TIP3   OH273227   2.423   4.263  12.174  0.3285 -0.0570  0.3285
17271TIP3    H173228   2.489   4.333  12.172  0.0640  0.2257  1.1648
17271TIP3    H273229   2.449   4.208  12.248  1.1973 -1.5348 -0.9816
17272TIP3   OH273230   6.576   3.617  10.469 -0.2222  0.1683 -0.1051
17272TIP3    H173231   6.566   3.712  10.459  0.6455  0.2613 -0.1952
17272TIP3    H273232   6.635   3.608  10.544  0.2032 -0.2837 -0.4957
17273TIP3   OH273233   6.772   0.169  12.527 -0.0708 -0.1046 -0.1716
17273TIP3    H173234   6.741   0.227  12.597 -1.1844 -1.1544  0.2425
17273TIP3    H273235   6.693   0.132  12.489  0.5610 -0.1747 -1.4723
17274TIP3   OH273236   1.966   5.324   0.921  0.5053  0.6615 -0.8871
17274TIP3    H173237   1.878   5.287   0.929  0.7622  0.1408 -0.3528
17274TIP3    H273238   1.978   5.373   1.002  1.6104 -1.2893  0.2091
17275TIP3   OH273239   0.714   3.470   1.628 -0.3932  0.4065 -0.0478
17275TIP3    H173240   0.772   3.539   1.595  0.2107 -0.8749 -1.7753
17275TIP3    H273241   0.628   3.512   1.633  0.0161  1.3684 -0.8084
17276TIP3   OH273242   2.274   1.663  16.169 -0.0743  0.0370  0.5512
17276TIP3    H173243   2.217   1.588  16.153  0.2561 -0.3872  1.3171
17276TIP3    H273244   2.232   1.736  16.123 -1.2065 -0.2714  1.0644
17277TIP3   OH273245   4.049   2.039  16.342 -0.7047  0.2047  0.1580
17277TIP3    H173246   4.123   2.055  16.283  1.1311  1.5627  2.6696
17277TIP3    H273247   3.974   2.030  16.283  0.9986  1.4215 -2.3918
17278TIP3   OH273248   5.809   5.509   3.944  0.4023  0.4934  0.4464
17278TIP3    H173249   5.719   5.518   3.913 -0.0856 -2.8088  0.5904
17278TIP3    H273250   5.863   5.537   3.870 -0.6882  2.0398  0.1886
17279TIP3   OH273251   5.403   4.623  14.321 -0.7539  0.3181  0.2664
17279TIP3    H173252   5.339   4.690  14.346  0.1397  0.6152  1.9502
17279TIP3    H273253   5.350   4.545  14.302 -1.6578  0.6148  1.4078
17280TIP3   OH273254   6.484   4.643  11.932  0.1898 -0.7954  0.3879
17280TIP3    H173255   6.509   4.733  11.911 -0.0601 -0.9024 -0.4274
17280TIP3    H273256   6.542   4.617  12.003  0.5419 -0.1266  0.3486
17281TIP3   OH273257   2.446   1.240  12.517  0.2351 -0.4753  0.3225
17281TIP3    H173258   2.465   1.154  12.555 -0.3427 -0.9936 -0.5169
17281TIP3    H273259   2.531   1.281  12.507  0.7057 -1.6659 -0.8773
17282TIP3   OH273260   1.311   4.284  17.265  0.2659  0.0985 -0.0433
17282TIP3    H173261   1.235   4.295  17.323 -1.4182 -0.3751 -2.0547
17282TIP3    H273262   1.282   4.220  17.200  1.8234  1.1146 -1.8062
17283TIP3   OH273263   0.413   1.180   3.548 -0.0901 -0.0173 -0.1832
17283TIP3    H173264   0.449   1.158   3.462  0.0907  1.5398 -0.5287
17283TIP3    H273265   0.462   1.125   3.609  0.4751 -0.4136 -0.9820
17284TIP3   OH273266   2.017   5.450   0.669 -0.1993 -0.4973 -0.6774
17284TIP3    H173267   1.981   5.416   0.751  0.4338 -0.3243 -0.3203
17284TIP3    H273268   1.953   5.516   0.641 -0.0884 -0.0670  0.0421
17285TIP3   OH273269   2.713   5.110   4.374  0.4438  0.3949 -0.2666
17285TIP3    H173270   2.766   5.043   4.418 -0.8911 -0.4792  0.0739
17285TIP3    H273271   2.643   5.130   4.436 -1.1186 -0.3896 -1.6735
17286TIP3   OH273272   0.058   4.158   0.250 -0.2252 -0.3535 -0.2558
17286TIP3    H173273   0.020   4.070   0.246 -1.4438  0.1508 -0.1361
17286TIP3    H273274  -0.016   4.217   0.235  0.4249  0.6814  0.4589
17287TIP3   OH273275   4.707   2.288  12.665  0.0306  0.6007 -0.4619
17287TIP3    H173276   4.788   2.303  12.714 -1.5584  1.9207  1.9932
17287TIP3    H273277   4.707   2.356  12.598  0.4960  1.2772  0.1997
17288TIP3   OH273278   2.401   6.393  16.365 -0.8271 -0.2412 -0.2614
17288TIP3    H173279   2.336   6.430  16.425 -0.6402 -1.2630  0.5998
17288TIP3    H273280   2.459   6.342  16.421 -0.2639 -0.6939 -1.2376
17289TIP3   OH273281   0.424   4.134  15.538 -0.3655  0.4501 -0.8023
17289TIP3    H173282   0.355   4.147  15.473 -0.5925 -0.4233 -0.7477
17289TIP3    H273283   0.438   4.039  15.540 -1.7374  0.2016  1.7998
17290TIP3   OH273284   0.202   4.768   1.912 -0.6680  0.8466 -0.1003
17290TIP3    H173285   0.134   4.714   1.872 -1.3381  2.2472 -0.9669
17290TIP3    H273286   0.209   4.844   1.854  1.0936  1.1188  0.4128
17291TIP3   OH273287   3.323   5.042   2.165 -0.3062 -0.2576  0.5688
17291TIP3    H173288   3.245   5.027   2.111 -0.0073  0.1231  0.0244
17291TIP3    H273289   3.294   5.107   2.230 -0.2541  0.4363 -0.0820
17292TIP3   OH273290   1.782   3.977   0.233  0.5057 -0.0848  0.2048
17292TIP3    H173291   1.851   4.002   0.171  0.2573 -1.1009 -0.5064
17292TIP3    H273292   1.807   3.889   0.263 -0.2352 -0.2715  0.3003
17293TIP3   OH273293   0.166   2.707   0.333  0.7081 -0.0087  0.5071
17293TIP3    H173294   0.133   2.778   0.387  0.6036  0.2823  0.0708
17293TIP3    H273295   0.097   2.641   0.333 -0.4100  1.0738 -1.3182
17294TIP3   OH273296   2.976   4.488   0.910 -0.4813  0.2091 -0.2128
17294TIP3    H173297   3.060   4.461   0.872 -0.5276 -0.2216 -0.0254
17294TIP3    H273298   2.936   4.544   0.844  1.2894  2.9991  0.9105
17295TIP3   OH273299   4.867   6.679   2.335  0.3453 -0.9564  0.6876
17295TIP3    H173300   4.784   6.646   2.299 -0.9409  2.5150  0.0676
17295TIP3    H273301   4.842   6.718   2.419  0.6043  2.5568 -0.6830
17296TIP3   OH273302   2.919   1.045   1.378 -0.1400 -0.2328 -0.3866
17296TIP3    H173303   2.974   1.052   1.300 -0.3644  0.4905 -0.4864
17296TIP3    H273304   2.921   1.133   1.416 -0.1387 -0.5464  0.3504
17297TIP3   OH273305   3.164   2.483   1.710  0.7364 -0.5585  0.3707
17297TIP3    H173306   3.203   2.504   1.795  1.6320 -0.2820 -0.0962
17297TIP3    H273307   3.237   2.451   1.657  0.3540  0.0134 -0.5385
17298TIP3   OH273308   1.782   4.541   2.255 -0.2184  0.0022  0.0104
17298TIP3    H173309   1.875   4.521   2.254 -0.6247 -2.1826  0.6528
17298TIP3    H273310   1.764   4.576   2.167  1.1423  0.3087 -0.1665
17299TIP3   OH273311   0.407   6.639  11.806  0.0207 -0.1417 -0.2120
17299TIP3    H173312   0.348   6.564  11.813  0.2603 -0.6700 -2.6648
17299TIP3    H273313   0.380   6.699  11.875 -0.9808 -1.9446  1.0322
17300TIP3   OH273314   5.145   2.222  15.306  0.5445 -0.2451  0.5849
17300TIP3    H173315   5.065   2.220  15.358 -1.0681  2.5751 -1.5054
17300TIP3    H273316   5.129   2.160  15.234 -0.4833  1.3890 -0.6539
17301TIP3   OH273317   4.010   3.179   5.599 -0.1362  0.5603 -0.3531
17301TIP3    H173318   4.078   3.119   5.567 -0.0883  0.8820 -0.8674
17301TIP3    H273319   4.014   3.172   5.694  1.3120  1.3288 -0.3388
17302TIP3   OH273320   2.075   6.153  13.179 -0.6627  0.5513 -0.3294
17302TIP3    H173321   1.999   6.094  13.183 -0.1641 -0.1429 -0.7836
17302TIP3    H273322   2.120   6.128  13.098  0.0982  0.8960 -0.0211
17303TIP3   OH273323   2.336   2.985   4.036 -0.3303  0.3355  0.4881
17303TIP3    H173324   2.336   3.079   4.016  1.9627  0.8468  2.4925
17303TIP3    H273325   2.419   2.953   4.002 -0.4352 -0.6671  1.1427
17304TIP3   OH273326   0.045   2.500  14.141 -0.2517 -0.3367  0.6591
17304TIP3    H173327   0.139   2.517  14.149 -0.3288  0.3061  0.2131
17304TIP3    H273328   0.041   2.410  14.108  0.2251 -0.1579  0.0842
17305TIP3   OH273329   2.024   3.423  11.199  0.0770  0.0143 -0.5185
17305TIP3    H173330   2.108   3.415  11.244 -0.8912 -0.1319  1.3474
17305TIP3    H273331   2.019   3.346  11.143  2.2236  1.2412 -2.6076
17306TIP3   OH273332   2.608   2.096  13.087  0.2789 -0.1151  0.4302
17306TIP3    H173333   2.601   2.149  13.007  1.8033 -1.3917 -0.6288
17306TIP3    H273334   2.533   2.035  13.082 -0.8335  1.1503  1.0870
17307TIP3   OH273335   2.687   0.905  13.263 -0.0470  0.1377  0.3420
17307TIP3    H173336   2.703   0.999  13.272  2.0290 -0.2167  0.8889
17307TIP3    H273337   2.599   0.892  13.299 -1.2981  2.1388 -1.7412
17308TIP3   OH273338   4.919   5.787  13.465  0.0165  0.2741  0.4159
17308TIP3    H173339   4.990   5.789  13.400  1.2050  1.4207  1.6732
17308TIP3    H273340   4.952   5.731  13.534 -1.3333 -1.1187 -0.0204
17309TIP3   OH273341   0.359   0.828  11.960 -0.0487 -0.5782  0.1710
17309TIP3    H173342   0.393   0.869  11.881 -0.2240 -0.3181  0.2301
17309TIP3    H273343   0.422   0.849  12.029  0.0641 -0.7404  0.1186
17310TIP3   OH273344   5.706   5.773  15.757  0.0232 -0.0275  0.3076
17310TIP3    H173345   5.653   5.840  15.713 -1.1998 -1.4137 -0.4328
17310TIP3    H273346   5.643   5.724  15.811  0.4497 -1.8486 -0.7508
17311TIP3   OH273347   5.826   3.671   1.536 -0.0268  0.5060 -0.0043
17311TIP3    H173348   5.898   3.719   1.576 -1.0171  0.2870  2.1344
17311TIP3    H273349   5.747   3.714   1.568 -0.8967 -1.2167  0.2568
17312TIP3   OH273350   1.246   5.561  12.849  0.1024 -0.1723 -0.9875
17312TIP3    H173351   1.290   5.489  12.895  0.9102 -0.0712 -1.5654
17312TIP3    H273352   1.301   5.576  12.772 -0.8266  0.1348 -1.6048
17313TIP3   OH273353   4.725   1.254  15.076  0.3184  0.0746  0.2896
17313TIP3    H173354   4.782   1.229  15.148  0.2347  2.6658  1.3769
17313TIP3    H273355   4.638   1.227  15.104  0.3954  0.3584  0.8211
17314TIP3   OH273356   2.530   0.665   3.865  0.9681  0.3376 -0.3266
17314TIP3    H173357   2.558   0.733   3.925 -0.0200  2.2178 -1.8942
17314TIP3    H273358   2.587   0.674   3.789  0.4018 -0.1297 -0.8229
17315TIP3   OH273359   2.948   6.027  12.421 -0.2852 -0.6924 -0.0085
17315TIP3    H173360   3.034   6.047  12.383  0.0088 -1.6402  0.1337
17315TIP3    H273361   2.952   6.060  12.510  0.3015 -1.6362  0.3211
17316TIP3   OH273362   4.402   5.912  13.893 -0.2412 -0.2451 -0.1321
17316TIP3    H173363   4.403   5.854  13.817  1.6096 -1.5700  0.8385
17316TIP3    H273364   4.377   5.855  13.966  0.8570  0.3415  0.7197
17317TIP3   OH273365   4.303   1.295   5.705 -0.0395 -0.8519 -0.0789
17317TIP3    H173366   4.219   1.273   5.666  0.7094 -1.0198 -1.7214
17317TIP3    H273367   4.283   1.320   5.795 -2.1234  1.1384 -0.9764
17318TIP3   OH273368   5.853   4.936   2.700 -0.6700 -0.2355 -0.4654
17318TIP3    H173369   5.913   4.913   2.771 -1.0115 -2.5521 -0.8437
17318TIP3    H273370   5.778   4.976   2.744 -0.9295 -1.7410  0.5411
17319TIP3   OH273371   2.102   5.362   4.710 -0.1241 -0.3293 -0.2460
17319TIP3    H173372   2.079   5.442   4.662 -0.0660  0.9863  1.7805
17319TIP3    H273373   2.044   5.295   4.673  1.2691  0.0640 -3.4570
17320TIP3   OH273374   3.954   3.286  14.281 -0.3533 -0.4378 -0.0407
17320TIP3    H173375   3.876   3.273  14.227 -0.2038  0.7909 -0.5974
17320TIP3    H273376   3.979   3.378  14.265  0.3327 -0.3727  1.2898
17321TIP3   OH273377   6.417   6.740   5.488 -0.1740 -0.3064  0.4986
17321TIP3    H173378   6.399   6.689   5.409  0.4501  1.8561 -1.1451
17321TIP3    H273379   6.499   6.704   5.521 -0.1913 -0.9342 -0.1125
17322TIP3   OH273380   3.879   1.013   0.308  0.2237  0.3035 -0.1526
17322TIP3    H173381   3.880   0.920   0.282 -1.3419 -0.0699  0.9740
17322TIP3    H273382   3.863   1.060   0.226 -1.8478 -0.6545 -0.3644
17323TIP3   OH273383   0.129   5.557  15.052  0.1994  0.0878 -0.5393
17323TIP3    H173384   0.191   5.542  15.124 -0.9906  1.7108  0.9113
17323TIP3    H273385   0.043   5.559  15.094 -1.1784 -3.7939 -2.7212
17324TIP3   OH273386   3.827   1.556   1.215  0.1400  0.3424  0.0998
17324TIP3    H173387   3.775   1.596   1.146  0.3231  1.7575  0.7348
17324TIP3    H273388   3.764   1.534   1.283  0.0049 -0.7279 -0.3583
17325TIP3   OH273389   0.059   3.055   6.139  0.2376  0.2850 -0.1780
17325TIP3    H173390   0.123   3.054   6.211  0.8821 -0.8394 -0.7317
17325TIP3    H273391   0.025   2.966   6.137 -1.0723  0.7744 -0.1577
17326TIP3   OH273392   6.033   2.208   5.874 -0.1199 -0.2944 -0.0253
17326TIP3    H173393   5.962   2.187   5.936  0.2659 -0.1341  0.4777
17326TIP3    H273394   6.003   2.288   5.831  1.7676  2.7138  3.6066
17327TIP3   OH273395   6.436   5.297   0.934  0.0258 -0.0966 -0.7234
17327TIP3    H173396   6.461   5.354   1.007 -0.4358 -0.7209 -0.0587
17327TIP3    H273397   6.343   5.318   0.919 -0.0263 -0.3557 -0.7633
17328TIP3   OH273398   3.874   1.963  16.149 -0.3034  0.2728  0.3673
17328TIP3    H173399   3.956   1.966  16.101 -1.1522  1.4875 -1.1002
17328TIP3    H273400   3.814   1.916  16.092 -0.6150 -0.7187  1.4784
17329TIP3   OH273401   2.080   2.127   1.064  0.1858  0.4737 -0.2599
17329TIP3    H173402   2.147   2.086   1.118  0.2971 -0.9417 -1.3900
17329TIP3    H273403   2.129   2.177   0.999  0.0766  1.2817  0.2672
17330TIP3   OH273404   1.881   1.617  10.993  0.1194  0.0529 -0.0149
17330TIP3    H173405   1.921   1.659  10.917  0.3445  0.9885  0.6068
17330TIP3    H273406   1.821   1.683  11.028 -1.9005 -1.2490 -0.8366
17331TIP3   OH273407   5.271   1.237  15.735 -0.3328  0.0612  0.2398
17331TIP3    H173408   5.288   1.253  15.828 -1.1274 -0.5555  0.5038
17331TIP3    H273409   5.310   1.150  15.719 -0.0658  0.2315 -0.0406
17332TIP3   OH273410   1.392   4.760   1.240  0.0498  0.7889  0.1353
17332TIP3    H173411   1.412   4.677   1.197 -0.6637  1.0685 -0.7852
17332TIP3    H273412   1.471   4.813   1.229  0.5651  0.1911  0.8648
17333TIP3   OH273413   2.621   3.833  14.228 -0.3708  0.5035 -0.2964
17333TIP3    H173414   2.618   3.748  14.184  1.3072 -1.7570  3.4818
17333TIP3    H273415   2.549   3.830  14.291  1.0931  0.8396  1.4609
17334TIP3   OH273416   6.508   3.022   5.091 -0.0759  0.1308  0.2360
17334TIP3    H173417   6.514   2.961   5.018 -0.6915  1.7124 -1.2178
17334TIP3    H273418   6.582   3.000   5.147  0.2265 -1.3394 -0.6970
17335TIP3   OH273419   2.542   2.640   1.191 -0.5747 -0.4450 -0.1909
17335TIP3    H173420   2.494   2.612   1.113  1.4958  0.1726 -1.7791
17335TIP3    H273421   2.558   2.559   1.239  1.4760 -1.5235 -2.4536
17336TIP3   OH273422   0.450   0.859  16.673  0.2214 -0.5171 -0.5513
17336TIP3    H173423   0.369   0.826  16.711 -0.4198  0.3554 -1.1151
17336TIP3    H273424   0.515   0.790  16.690 -1.1314 -2.2746 -2.0539
17337TIP3   OH273425   4.660   0.089   5.085  0.2315 -0.2009 -0.1684
17337TIP3    H173426   4.643   0.082   5.179 -0.1790 -1.5441 -0.3202
17337TIP3    H273427   4.755   0.099   5.078  0.1503  1.4112  0.4278
17338TIP3   OH273428   4.913   1.817   1.081  0.4391 -0.3579 -0.1401
17338TIP3    H173429   4.954   1.894   1.120  0.6686  0.0655 -1.1783
17338TIP3    H273430   4.916   1.751   1.149  3.3083 -0.4976 -0.3007
17339TIP3   OH273431   5.516   5.046   6.220  0.0165  0.6869 -0.0180
17339TIP3    H173432   5.490   5.023   6.309 -0.5086  3.0539  0.5195
17339TIP3    H273433   5.601   5.087   6.229 -0.2344  1.3500 -0.5373
17340TIP3   OH273434   4.536   1.688  17.034  0.0406 -0.3150  0.9449
17340TIP3    H173435   4.470   1.695  16.964 -0.6983 -3.2879  1.2183
17340TIP3    H273436   4.604   1.751  17.009 -2.8052  2.9668  0.6512
17341TIP3   OH273437   3.094   4.757  15.543 -0.4266 -0.6880  0.2640
17341TIP3    H173438   3.040   4.835  15.530 -0.6372 -0.7447  0.7796
17341TIP3    H273439   3.095   4.744  15.638  1.8680  0.2916  0.4529
17342TIP3   OH273440   2.812   1.573   1.898  0.4862  0.1965 -0.0603
17342TIP3    H173441   2.730   1.596   1.853 -0.2842  0.2432  1.3175
17342TIP3    H273442   2.871   1.646   1.879 -0.3249  0.9488  0.2564
17343TIP3   OH273443   3.738   1.543   4.727 -0.1130  0.0302  0.1134
17343TIP3    H173444   3.690   1.585   4.656  0.6463 -0.7005 -0.8626
17343TIP3    H273445   3.783   1.470   4.685  0.6759 -0.1737  1.2774
17344TIP3   OH273446   2.634   0.976   1.544 -0.4016  0.0183 -0.3866
17344TIP3    H173447   2.583   0.920   1.604  0.1163  1.4669  1.5131
17344TIP3    H273448   2.570   1.036   1.507 -0.4026  0.5748  0.4889
17345TIP3   OH273449   0.239   3.097  11.184 -0.3784 -0.1292 -0.7933
17345TIP3    H173450   0.253   3.186  11.154 -0.7873  0.6651  1.2435
17345TIP3    H273451   0.258   3.043  11.107  1.2762  1.5922 -1.6771
17346TIP3   OH273452   3.805   5.147   4.039  0.2955 -0.3990 -0.1689
17346TIP3    H173453   3.864   5.098   3.982  1.0222  1.4690 -1.1282
17346TIP3    H273454   3.862   5.211   4.083 -0.8079  0.5678 -0.0894
17347TIP3   OH273455   3.177   5.687  11.751  0.5735 -0.2357 -0.5535
17347TIP3    H173456   3.165   5.738  11.672  0.4096  0.6487  0.0271
17347TIP3    H273457   3.205   5.750  11.817  0.0362 -0.8276  0.2734
17348TIP3   OH273458   2.761   4.389  16.569  0.7397 -0.1830  0.0239
17348TIP3    H173459   2.778   4.305  16.610  0.1744 -0.0918  0.4683
17348TIP3    H273460   2.824   4.395  16.497  0.5578 -1.1276 -0.2168
17349TIP3   OH273461   1.735   4.708   0.292 -0.4857 -0.3668 -0.6286
17349TIP3    H173462   1.697   4.767   0.227  0.9156  0.2694 -0.9226
17349TIP3    H273463   1.738   4.623   0.248  1.6988  0.3201 -2.0030
17350TIP3   OH273464   6.242   6.683   0.730  0.4977  0.0564  0.4549
17350TIP3    H173465   6.185   6.609   0.710  1.6897 -0.7102 -0.1704
17350TIP3    H273466   6.298   6.652   0.801 -0.5276  1.1676  1.8102
17351TIP3   OH273467   5.094   0.805   4.661  0.1090 -0.2591 -0.3617
17351TIP3    H173468   5.172   0.856   4.684  0.4087 -1.1196  0.5404
17351TIP3    H273469   5.127   0.718   4.640 -0.5529 -0.4778 -0.5143
17352TIP3   OH273470   0.308   1.310  16.285  0.1281 -0.0576  0.2112
17352TIP3    H173471   0.402   1.327  16.297  0.2712 -1.0576  0.6143
17352TIP3    H273472   0.295   1.224  16.324 -1.1486  0.4749  1.0118
17353TIP3   OH273473   4.696   6.297  15.044 -0.0999 -0.2372  0.4266
17353TIP3    H173474   4.666   6.359  14.977 -1.9469  0.2620  1.6546
17353TIP3    H273475   4.772   6.340  15.084  0.0891  0.1428 -0.3287
17354TIP3   OH273476   5.997   5.476   2.436  0.1588 -0.0691  0.5532
17354TIP3    H173477   5.988   5.527   2.355  0.0449 -1.6784 -0.4877
17354TIP3    H273478   5.951   5.394   2.418  1.5362 -1.1384  1.6522
17355TIP3   OH273479   2.506   4.185  12.435  0.1042  0.5218 -0.2192
17355TIP3    H173480   2.483   4.106  12.484  1.1037 -0.1056 -0.7201
17355TIP3    H273481   2.574   4.226  12.488  0.2237  0.5668 -0.4072
17356TIP3   OH273482   3.393   6.471   1.100 -0.4216 -0.7910 -0.2497
17356TIP3    H173483   3.367   6.396   1.154  0.2637 -0.3500  0.7057
17356TIP3    H273484   3.475   6.501   1.138 -0.3479  0.0376 -1.0406
17357TIP3   OH273485   2.188   2.342  14.371 -0.0654  0.3191 -0.1713
17357TIP3    H173486   2.156   2.432  14.364  0.2129  0.3686 -0.8563
17357TIP3    H273487   2.207   2.331  14.464  0.9908  1.3513 -0.2382
17358TIP3   OH273488   6.204   1.087  12.378 -0.1599 -0.3908 -0.2146
17358TIP3    H173489   6.201   1.167  12.325  0.6003  0.6640  1.2554
17358TIP3    H273490   6.297   1.076  12.398 -0.2537 -1.7021 -0.4326
17359TIP3   OH273491   4.860   3.694   4.433  0.3421  0.0169  0.7090
17359TIP3    H173492   4.841   3.642   4.511 -1.4046  1.1309  1.0695
17359TIP3    H273493   4.863   3.784   4.464  0.4659  0.4010 -0.3763
17360TIP3   OH273494   4.347   4.808   0.715  0.1494  0.0680 -0.5742
17360TIP3    H173495   4.335   4.723   0.671 -0.7008 -0.6063  0.8644
17360TIP3    H273496   4.374   4.784   0.804 -0.6533  1.2973  0.0142
17361TIP3   OH273497   1.365   0.757  14.415 -0.4049 -0.3140 -0.1353
17361TIP3    H173498   1.317   0.831  14.379 -0.3131  0.1886  0.7404
17361TIP3    H273499   1.350   0.685  14.353 -3.2866 -0.5434  0.7021
17362TIP3   OH273500   0.587   0.261   3.874  0.0684 -0.2313 -0.3564
17362TIP3    H173501   0.606   0.273   3.780  0.7620  1.4082 -0.0456
17362TIP3    H273502   0.649   0.194   3.902 -0.2157 -0.8141 -1.0799
17363TIP3   OH273503   3.671   0.254   0.406  0.3622  0.1898 -0.3685
17363TIP3    H173504   3.703   0.166   0.387 -0.5763 -0.0734 -0.8083
17363TIP3    H273505   3.628   0.247   0.491  1.2579  0.4963  0.1268
17364TIP3   OH273506   3.029   6.019   5.019 -0.3011  0.4002  0.1942
17364TIP3    H173507   3.063   6.090   5.073 -0.3611  0.3939  0.2412
17364TIP3    H273508   2.936   6.015   5.041 -0.5669  1.1333 -0.7328
17365TIP3   OH273509   6.768   4.332  14.580  0.3676 -0.2862  0.0292
17365TIP3    H173510   6.805   4.346  14.667  0.5840 -2.1821  0.2882
17365TIP3    H273511   6.735   4.418  14.554  0.2163  0.3056  2.0007
17366TIP3   OH273512   5.575   3.565   4.958  0.2834  0.8580 -0.0304
17366TIP3    H173513   5.594   3.651   4.996 -0.7774  0.6902  0.9193
17366TIP3    H273514   5.652   3.512   4.979  0.2254  1.1119  0.8636
17367TIP3   OH273515   1.737   1.407  16.930  0.4483  0.3067 -0.3334
17367TIP3    H173516   1.709   1.334  16.986 -2.7528  2.1883  0.8057
17367TIP3    H273517   1.829   1.389  16.911  0.8744 -2.0116  3.0405
17368TIP3   OH273518   5.212   0.337  15.907  0.5109  0.2947 -0.0751
17368TIP3    H173519   5.226   0.423  15.946  1.8317  1.4079 -2.7494
17368TIP3    H273520   5.300   0.308  15.883 -0.1421 -0.7339 -1.3128
17369TIP3   OH273521   1.132   2.261  14.022 -0.3408 -0.6553 -0.3122
17369TIP3    H173522   1.049   2.292  13.986  0.3724 -0.3431 -1.7633
17369TIP3    H273523   1.193   2.264  13.948  2.0352  2.9103  1.5334
17370TIP3   OH273524   6.463   6.444   1.101  0.1007  0.4369  0.3996
17370TIP3    H173525   6.410   6.469   1.176 -2.1161 -0.9420 -0.6004
17370TIP3    H273526   6.551   6.432   1.136 -0.8687 -0.2525  2.7890
17371TIP3   OH273527   0.756   1.886   4.080  0.2936  0.0721 -0.0554
17371TIP3    H173528   0.721   1.882   3.992 -0.5957 -3.4638  0.3285
17371TIP3    H273529   0.850   1.895   4.068  0.1506  0.0586 -1.3275
17372TIP3   OH273530   3.658   2.176   2.651 -0.4575 -0.2116  0.4989
17372TIP3    H173531   3.727   2.233   2.683  0.3654 -0.8454 -0.0857
17372TIP3    H273532   3.603   2.158   2.727  0.7861 -0.7598  1.2882
17373TIP3   OH273533   2.459   4.183  15.265 -0.2243  0.3730 -0.3625
17373TIP3    H173534   2.538   4.233  15.285 -0.5542  0.4687  0.7657
17373TIP3    H273535   2.387   4.242  15.285 -0.5986 -0.1293 -0.1894
17374TIP3   OH273536   2.808   0.618  10.820  0.3010 -0.1887 -0.0609
17374TIP3    H173537   2.818   0.680  10.893 -1.4068 -0.6736  0.6433
17374TIP3    H273538   2.845   0.536  10.853 -0.3755 -0.3791  0.2617
17375TIP3   OH273539   0.965   5.875   5.974  0.1134  0.2833  0.0654
17375TIP3    H173540   1.031   5.819   5.934  1.3203  1.1475  0.7726
17375TIP3    H273541   0.953   5.947   5.912  0.8775  0.8467  0.5607
17376TIP3   OH273542   4.420   4.129   5.208 -0.1063  0.1064 -0.1085
17376TIP3    H173543   4.409   4.075   5.130 -0.5594 -1.2817  0.8776
17376TIP3    H273544   4.456   4.069   5.274  1.0915  1.4492  0.5149
17377TIP3   OH273545   4.691   6.361   3.933  0.0410  0.0903  0.0912
17377TIP3    H173546   4.677   6.267   3.922 -0.8513  0.1738  0.4111
17377TIP3    H273547   4.709   6.372   4.026  0.2835  0.2178  0.0294
17378TIP3   OH273548   5.221   3.948  15.888  0.1548 -0.3755  0.5960
17378TIP3    H173549   5.212   3.890  15.964  0.5181 -0.0335  0.9063
17378TIP3    H273550   5.309   3.929  15.854  0.7314  0.7687  1.3687
17379TIP3   OH273551   1.225   4.289   1.786  0.5698 -0.0747  0.0510
17379TIP3    H173552   1.205   4.199   1.761 -1.1999 -0.1846  1.6708
17379TIP3    H273553   1.221   4.289   1.882 -0.1744  1.8601  0.0687
17380TIP3   OH273554   6.610   1.108   3.891 -0.3105 -0.7382 -0.2836
17380TIP3    H173555   6.659   1.092   3.811 -1.9760  0.4315 -1.6116
17380TIP3    H273556   6.580   1.022   3.919 -0.6078 -1.0521 -1.5402
17381TIP3   OH273557   2.299   4.559   2.829  0.1074  0.0793 -0.3984
17381TIP3    H173558   2.346   4.625   2.778  1.0962  0.3398  0.8058
17381TIP3    H273559   2.300   4.481   2.773  3.9373 -0.6135  0.3503
17382TIP3   OH273560   4.717   5.795   0.125 -0.9246  0.0948  0.0099
17382TIP3    H173561   4.685   5.736   0.056  0.1015  0.8841 -1.1836
17382TIP3    H273562   4.798   5.754   0.155 -0.2489  0.8139 -0.7684
17383TIP3   OH273563   5.857   4.594  15.550  0.1334  0.3764 -0.3574
17383TIP3    H173564   5.881   4.635  15.633  0.4579 -0.4099 -0.0493
17383TIP3    H273565   5.904   4.510  15.550 -1.8164 -0.7754 -0.2126
17384TIP3   OH273566   0.051   5.104   2.102  0.4329 -0.1346 -0.2324
17384TIP3    H173567   0.141   5.116   2.134  0.5244 -0.4843 -0.3515
17384TIP3    H273568   0.005   5.065   2.176 -0.0322  1.5088  0.3861
17385TIP3   OH273569   5.464   5.208  11.062 -0.2304  0.3578 -0.0961
17385TIP3    H173570   5.452   5.128  11.113  1.4374 -0.5049 -0.9545
17385TIP3    H273571   5.522   5.182  10.990 -1.1731  1.9197 -1.4785
17386TIP3   OH273572   6.522   3.590  15.318  0.0894  0.4647  0.5598
17386TIP3    H173573   6.599   3.597  15.373  1.2661  0.9301 -1.0549
17386TIP3    H273574   6.460   3.653  15.355  0.9140  0.9083  1.2236
17387TIP3   OH273575   3.660   2.291   6.078  0.1681  0.0818 -0.4350
17387TIP3    H173576   3.729   2.282   6.143 -1.8913  2.2818  2.3389
17387TIP3    H273577   3.655   2.385   6.060 -1.0454 -0.1923 -1.7730
17388TIP3   OH273578   1.608   1.977   3.691 -0.6159  0.5328  0.5359
17388TIP3    H173579   1.575   1.897   3.732  0.2723  0.1110  0.4538
17388TIP3    H273580   1.699   1.956   3.667  0.0683  2.0045  1.7226
17389TIP3   OH273581   1.915   2.770  12.747  0.2607 -0.1135 -0.1671
17389TIP3    H173582   1.904   2.675  12.751  0.7613 -0.1468  0.9359
17389TIP3    H273583   1.986   2.783  12.685 -0.0443 -0.4369 -0.5898
17390TIP3   OH273584   0.252   6.479  12.668  0.0817  0.1873  0.1217
17390TIP3    H173585   0.182   6.535  12.702  2.2146  2.5866  0.8206
17390TIP3    H273586   0.254   6.498  12.574  0.5379  0.9912  0.2910
17391TIP3   OH273587   4.435   0.503  15.229 -0.3080 -0.0818 -0.1217
17391TIP3    H173588   4.383   0.531  15.305  1.8837 -0.0931  1.4850
17391TIP3    H273589   4.507   0.565  15.226  1.7400 -2.3164  0.2269
17392TIP3   OH273590   5.262   6.547  15.577  0.0984  0.3478  0.3000
17392TIP3    H173591   5.295   6.531  15.488 -2.4807 -2.9766 -0.2794
17392TIP3    H273592   5.195   6.614  15.566  0.7405  0.9550  0.0095
17393TIP3   OH273593   1.315   0.649  12.891  0.2964 -0.2049  0.0797
17393TIP3    H173594   1.317   0.663  12.985  0.5116 -1.2207  0.2395
17393TIP3    H273595   1.305   0.554  12.881 -2.8557  0.1032 -0.8980
17394TIP3   OH273596   0.390   6.441   3.713  0.5705 -0.0428  0.2000
17394TIP3    H173597   0.359   6.359   3.751  4.9155 -0.9040  2.5456
17394TIP3    H273598   0.464   6.415   3.658 -0.6764  2.0257 -2.7067
17395TIP3   OH273599   1.788   2.641  16.785  0.3360  0.3391  0.4688
17395TIP3    H173600   1.835   2.716  16.748  1.9983 -0.5524  0.6942
17395TIP3    H273601   1.750   2.597  16.709  1.4252  0.0468  0.0775
17396TIP3   OH273602   5.571   5.416   5.950  0.7110  0.2520  0.0063
17396TIP3    H173603   5.584   5.484   6.016 -0.0009  0.2633  0.1413
17396TIP3    H273604   5.490   5.373   5.976 -0.0782  0.8384 -1.3490
17397TIP3   OH273605   1.906   5.694  13.935  0.3380  0.6364  0.0238
17397TIP3    H173606   1.952   5.768  13.974  1.2613  0.8074 -1.3337
17397TIP3    H273607   1.838   5.734  13.881 -0.7253  0.4057  1.1264
17398TIP3   OH273608   3.731   2.603   3.067 -0.4801 -0.7405  0.7312
17398TIP3    H173609   3.652   2.563   3.104 -1.4430 -1.3425 -1.7656
17398TIP3    H273610   3.700   2.648   2.988  1.2219  1.6717  1.3585
17399TIP3   OH273611   1.038   4.642  11.175  0.0487  0.1337 -0.0041
17399TIP3    H173612   1.123   4.610  11.146 -0.2526  0.6601 -1.5531
17399TIP3    H273613   0.976   4.608  11.111 -0.9555 -0.3425  1.1666
17400TIP3   OH273614   3.090   0.783   3.921 -0.6976 -0.6010  0.1883
17400TIP3    H173615   3.067   0.865   3.964  1.4875  0.0709  0.2197
17400TIP3    H273616   3.092   0.719   3.992 -0.6847 -0.2914  0.4719
17401TIP3   OH273617   1.335   4.054  15.895 -0.1628 -0.1281  0.2790
17401TIP3    H173618   1.315   4.009  15.813 -1.8313  0.4305  0.3543
17401TIP3    H273619   1.351   4.145  15.869 -0.7049  0.0517  0.5650
17402TIP3   OH273620   3.774   0.320   1.464 -0.2764 -0.0689  0.6308
17402TIP3    H173621   3.733   0.402   1.433 -0.5535 -0.5169 -0.2237
17402TIP3    H273622   3.817   0.345   1.546  1.8119  1.5688 -0.8355
17403TIP3   OH273623   6.550   3.880  10.448  0.0606 -0.1925 -0.1166
17403TIP3    H173624   6.545   3.943  10.377  0.0498 -0.4050 -0.3069
17403TIP3    H273625   6.531   3.930  10.527 -2.2877 -0.3791 -0.4753
17404TIP3   OH273626   3.020   5.170   4.693 -0.1194  0.0410  0.6054
17404TIP3    H173627   2.972   5.205   4.769  0.4342  1.1262  0.4842
17404TIP3    H273628   3.108   5.205   4.704 -0.0863  0.3696 -0.6485
17405TIP3   OH273629   3.365   0.044   1.953 -0.1677  0.4222 -0.5400
17405TIP3    H173630   3.304   0.029   1.881  0.4578  0.5584 -1.1093
17405TIP3    H273631   3.450   0.020   1.918  0.2340  1.0693 -0.0386
17406TIP3   OH273632   0.803   5.248  13.378 -0.1928  0.0570 -0.7751
17406TIP3    H173633   0.861   5.176  13.353 -0.6017 -0.6413  0.2127
17406TIP3    H273634   0.856   5.300  13.438 -0.2432 -0.0034 -0.6781
17407TIP3   OH273635   5.221   0.388  16.224  0.3165  0.5758  0.3590
17407TIP3    H173636   5.225   0.472  16.269 -0.0940  1.3774 -1.0404
17407TIP3    H273637   5.134   0.387  16.183 -0.6272 -1.5259  2.1635
17408TIP3   OH273638   3.259   3.699  15.920 -0.6023  0.3853  0.2591
17408TIP3    H173639   3.236   3.729  15.831 -0.4865  2.2566  0.8063
17408TIP3    H273640   3.256   3.604  15.915  0.0398  0.4266 -1.9241
17409TIP3   OH273641   1.177   1.609  15.912  0.4770 -0.4281 -0.0632
17409TIP3    H173642   1.093   1.610  15.957  1.2573  0.5132  1.4603
17409TIP3    H273643   1.203   1.517  15.909  1.3736 -0.4242  3.4380
17410TIP3   OH273644   2.698   6.110   0.111  0.6565 -0.1095 -0.0201
17410TIP3    H173645   2.656   6.027   0.089  0.1449  0.1029  0.1256
17410TIP3    H273646   2.727   6.099   0.201  2.5061 -0.8811 -0.6640
17411TIP3   OH273647   3.610   1.616  16.055  0.4254 -0.0134  0.0154
17411TIP3    H173648   3.627   1.522  16.057 -0.8197 -0.3356 -2.0294
17411TIP3    H273649   3.610   1.642  16.147 -0.2572 -2.2211  0.7042
17412TIP3   OH273650   1.992   4.682   5.652  0.0418 -0.0381 -0.2199
17412TIP3    H173651   2.047   4.661   5.727  0.5529  0.9686 -0.3009
17412TIP3    H273652   1.933   4.607   5.644  1.0119 -0.8638  0.2247
17413TIP3   OH273653   6.195   0.256  15.613  0.2446 -0.3796 -0.2625
17413TIP3    H173654   6.166   0.306  15.690 -0.6491 -1.1075 -0.1112
17413TIP3    H273655   6.121   0.199  15.592  1.0017 -1.1885 -0.8151
17414TIP3   OH273656   5.612   5.575   0.081 -0.4613  0.3821  0.5416
17414TIP3    H173657   5.686   5.544   0.028  1.0930  2.6811  1.2327
17414TIP3    H273658   5.542   5.513   0.062  1.3249 -1.3191 -0.9220
17415TIP3   OH273659   4.914   5.984   3.726  0.4427  0.0485 -0.3384
17415TIP3    H173660   4.953   5.964   3.812 -1.3186  1.6065  0.9197
17415TIP3    H273661   4.943   6.074   3.708  1.1173 -0.3978 -1.6150
17416TIP3   OH273662   2.727   2.121  16.979 -0.3202 -0.0671  0.5101
17416TIP3    H173663   2.782   2.086  17.049 -0.9476  1.0490  1.6034
17416TIP3    H273664   2.698   2.044  16.930  1.3878 -0.7503  0.4997
17417TIP3   OH273665   4.579   5.024   1.723  0.0476  0.0032  0.6666
17417TIP3    H173666   4.650   5.056   1.778  0.1774 -0.5266  0.8169
17417TIP3    H273667   4.541   5.102   1.684  0.5164  0.3131  0.8267
17418TIP3   OH273668   0.682   5.247  11.264 -0.1754 -0.3365  0.4804
17418TIP3    H173669   0.736   5.292  11.328  2.0396 -1.6207 -0.3467
17418TIP3    H273670   0.672   5.158  11.299 -4.7068  0.5959  2.2408
17419TIP3   OH273671   6.005   5.157   5.811  0.5205 -0.2993 -0.0683
17419TIP3    H173672   6.030   5.079   5.860 -0.3750 -0.2511  0.4899
17419TIP3    H273673   5.982   5.123   5.724  0.0894 -0.6645  0.1851
17420TIP3   OH273674   3.957   3.753   2.081  0.1341 -0.3777 -0.6085
17420TIP3    H173675   4.033   3.699   2.107  0.4646 -0.0562 -0.9072
17420TIP3    H273676   3.918   3.706   2.008  1.5464  0.7349 -2.1450
17421TIP3   OH273677   5.405   1.875  12.542 -0.0341  0.1188 -0.0378
17421TIP3    H173678   5.377   1.964  12.561 -0.0459  0.1816 -0.3583
17421TIP3    H273679   5.493   1.869  12.581  0.2005  0.4481 -0.5169
17422TIP3   OH273680   3.944   5.926   5.828 -0.1575 -0.4844  0.3619
17422TIP3    H173681   3.894   5.908   5.749  0.0079  1.0748 -0.1250
17422TIP3    H273682   4.035   5.928   5.799 -0.0420 -0.4884  0.7134
17423TIP3   OH273683   1.616   0.567   3.760 -0.2123 -0.9057  0.1328
17423TIP3    H173684   1.627   0.543   3.852  0.5972 -0.0131  0.2920
17423TIP3    H273685   1.706   0.575   3.727 -0.4932 -1.9026 -0.9292
17424TIP3   OH273686   5.126   0.993  16.146  0.2738  0.3070  0.2192
17424TIP3    H173687   5.212   0.950  16.143 -0.0977 -0.6530  2.0112
17424TIP3    H273688   5.143   1.082  16.115  2.4281  0.8621  2.6746
17425TIP3   OH273689   3.213   4.139  13.117 -0.0384  0.2298  0.1606
17425TIP3    H173690   3.177   4.066  13.067  2.0678  0.3377 -1.6582
17425TIP3    H273691   3.257   4.194  13.052  0.4141  1.9048  1.7864
17426TIP3   OH273692   2.153   0.552   6.097 -0.4524 -0.0535  0.5811
17426TIP3    H173693   2.208   0.482   6.133 -1.7217 -0.5763  1.5635
17426TIP3    H273694   2.102   0.583   6.171 -2.2640 -0.3124 -0.5055
17427TIP3   OH273695   1.734   3.982   5.586 -0.1297  0.2926 -0.3067
17427TIP3    H173696   1.667   4.049   5.571 -0.4273  0.2860  0.9101
17427TIP3    H273697   1.709   3.941   5.668  0.8086 -0.4051 -0.3541
17428TIP3   OH273698   1.252   4.921   2.291  0.0786 -0.8041  0.4782
17428TIP3    H173699   1.186   4.910   2.222  0.0594 -1.7833  0.6451
17428TIP3    H273700   1.329   4.955   2.245 -0.3992 -0.0339  0.2209
17429TIP3   OH273701   1.535   4.871  11.968 -0.4989  0.0219  0.0478
17429TIP3    H173702   1.598   4.874  12.040 -0.0179 -1.8942 -0.2201
17429TIP3    H273703   1.466   4.812  11.999 -0.5564 -0.3954 -0.8548
17430TIP3   OH273704   4.824   5.792  12.279 -0.4521  0.7750  0.3051
17430TIP3    H173705   4.780   5.820  12.359 -0.1708  1.8097  0.1168
17430TIP3    H273706   4.815   5.867  12.220  0.3006  0.4490 -0.2358
17431TIP3   OH273707   6.021   0.971  12.197 -0.1856  0.5937  0.1409
17431TIP3    H173708   6.045   1.032  12.127  2.1974 -0.6963 -0.2841
17431TIP3    H273709   6.075   0.997  12.272 -0.0936 -0.1914  0.3599
17432TIP3   OH273710   3.518   4.989  16.629 -0.1675 -0.2451 -0.3950
17432TIP3    H173711   3.540   5.081  16.618 -2.9246  0.4806 -0.5798
17432TIP3    H273712   3.592   4.952  16.676  0.5185  2.3084  0.6984
17433TIP3   OH273713   4.301   2.022  12.849  0.3993  0.5625  0.0470
17433TIP3    H173714   4.380   2.071  12.874  0.6301 -0.2574  0.9748
17433TIP3    H273715   4.231   2.061  12.900  0.2300  1.1346 -0.6029
17434TIP3   OH273716   0.232   2.767  16.107 -0.4392  0.0236 -0.3389
17434TIP3    H173717   0.289   2.736  16.177  0.2334  0.0422 -0.8625
17434TIP3    H273718   0.271   2.731  16.027 -2.1754 -1.4632 -0.5775
17435TIP3   OH273719   6.293   0.563   5.912 -0.1761 -0.3104  0.1055
17435TIP3    H173720   6.259   0.509   5.841  0.0094  0.6830 -0.7522
17435TIP3    H273721   6.234   0.546   5.985 -0.6386 -0.9929 -0.4136
17436TIP3   OH273722   2.549   1.042   4.361  0.1927 -0.3833  0.4995
17436TIP3    H173723   2.595   0.958   4.362 -0.0605 -0.5543 -0.9737
17436TIP3    H273724   2.615   1.105   4.332 -0.2551 -0.4979 -0.8235
17437TIP3   OH273725   2.429   3.874  15.580  0.3618  0.2020  0.1152
17437TIP3    H173726   2.427   3.809  15.650  0.1493 -0.5974 -0.6181
17437TIP3    H273727   2.409   3.957  15.624 -0.3633 -0.3682  0.9055
17438TIP3   OH273728   1.965   1.215   2.606 -0.1405  0.0482 -0.0772
17438TIP3    H173729   1.930   1.303   2.595  0.5343  0.6885  2.3699
17438TIP3    H273730   1.890   1.157   2.588 -1.2554  1.2089  0.7051
17439TIP3   OH273731   6.125   0.434  16.242 -0.3031  0.0102 -0.7533
17439TIP3    H173732   6.036   0.469  16.239  0.1156  1.0727 -3.5011
17439TIP3    H273733   6.114   0.340  16.254 -1.8201  0.0397 -1.7380
17440TIP3   OH273734   1.189   1.218   0.918 -0.0890 -0.1330  0.0660
17440TIP3    H173735   1.140   1.137   0.934  0.6087 -0.7592 -0.8718
17440TIP3    H273736   1.169   1.240   0.826  1.0751 -0.2002 -0.2163
17441TIP3   OH273737   1.137   1.331  15.901 -0.4043 -0.0715  0.0549
17441TIP3    H173738   1.143   1.271  15.975 -0.1676  0.7518  0.7179
17441TIP3    H273739   1.069   1.294  15.845 -2.9703  0.9586  2.2554
17442TIP3   OH273740   1.503   0.876   4.056  0.6572  0.0029  0.1696
17442TIP3    H173741   1.593   0.849   4.076  0.2190  0.3505  3.0313
17442TIP3    H273742   1.448   0.810   4.100 -0.5242 -0.1069 -1.3800
17443TIP3   OH273743   6.407   5.719   5.261  0.6388 -0.4021 -0.0910
17443TIP3    H173744   6.421   5.652   5.194  0.0589  0.5700 -1.2180
17443TIP3    H273745   6.394   5.800   5.212  0.4900  0.3962  1.2139
17444TIP3   OH273746   3.571   2.361  13.007 -0.2442  0.7520 -0.1538
17444TIP3    H173747   3.628   2.411  12.949 -0.2691  0.8792 -0.0679
17444TIP3    H273748   3.491   2.347  12.956  0.1896 -0.1771 -0.6029
17445TIP3   OH273749   4.519   6.645  11.089 -0.2310 -0.1380 -0.3672
17445TIP3    H173750   4.569   6.652  11.007 -1.4039  0.5914 -1.0430
17445TIP3    H273751   4.428   6.661  11.063 -0.7009 -0.4873  0.9934
17446TIP3   OH273752   4.890   4.265   3.548 -0.0400 -0.2525 -0.4839
17446TIP3    H173753   4.866   4.234   3.461 -1.4783 -0.0289 -0.1928
17446TIP3    H273754   4.921   4.186   3.594 -2.3966 -1.0626 -0.1739
17447TIP3   OH273755   6.464   2.136  16.527  0.3166  0.0769 -0.2421
17447TIP3    H173756   6.540   2.077  16.523 -0.7079 -1.2215 -1.6052
17447TIP3    H273757   6.422   2.116  16.610  0.7385 -0.1199 -0.0746
17448TIP3   OH273758   2.183   4.027   1.814 -0.1515 -0.1798  0.1733
17448TIP3    H173759   2.153   3.942   1.845  1.0750 -0.7151 -0.0469
17448TIP3    H273760   2.195   4.079   1.893 -1.8141  0.1315  0.2592
17449TIP3   OH273761   4.084   2.191   1.257 -0.4772  0.4966 -0.3620
17449TIP3    H173762   4.165   2.224   1.218  1.5193 -1.7053  1.6728
17449TIP3    H273763   4.040   2.147   1.184  2.3367 -2.0556 -0.7361
17450TIP3   OH273764   0.568   2.810   0.923  0.1299 -0.7400  0.0866
17450TIP3    H173765   0.564   2.763   1.006 -0.1475 -0.3862  0.2758
17450TIP3    H273766   0.477   2.827   0.901  0.2336 -0.0935  0.1355
17451TIP3   OH273767   5.699   3.248  15.298  0.0141 -0.4382  0.0265
17451TIP3    H173768   5.621   3.232  15.245  0.2449 -2.8885  0.2940
17451TIP3    H273769   5.668   3.245  15.388  0.0620  0.9832  0.1082
17452TIP3   OH273770   6.632   5.717   5.448 -0.6943 -0.1217 -0.5206
17452TIP3    H173771   6.697   5.674   5.393 -0.3425 -0.4724  0.1629
17452TIP3    H273772   6.553   5.721   5.394 -0.5378 -1.0324 -0.8246
17453TIP3   OH273773   2.101   3.360  12.207  0.0420 -0.3773  0.2561
17453TIP3    H173774   2.180   3.406  12.178 -0.5701  0.4912 -0.0653
17453TIP3    H273775   2.115   3.345  12.300  1.1582 -1.4276 -0.0359
17454TIP3   OH273776   0.674   3.954  13.360 -0.2291 -0.2779  0.0755
17454TIP3    H173777   0.742   4.014  13.328 -0.6807 -0.4410 -1.2401
17454TIP3    H273778   0.592   3.994  13.332 -0.5140 -1.8264 -1.4504
17455TIP3   OH273779   6.092   1.257   0.389  0.1459 -0.0329 -0.0311
17455TIP3    H173780   6.136   1.315   0.452 -0.6707  1.2819 -0.6184
17455TIP3    H273781   6.138   1.273   0.306 -0.8313  0.6757 -0.4497
17456TIP3   OH273782   0.989   0.628   3.421  0.3807 -0.4411  0.0856
17456TIP3    H173783   1.013   0.658   3.508 -0.3783 -0.5231  0.3351
17456TIP3    H273784   1.025   0.540   3.414  1.3854 -0.0292 -0.1091
17457TIP3   OH273785   1.811   1.206   2.057  0.0736  0.1361  0.1134
17457TIP3    H173786   1.791   1.189   2.149  1.5242  0.3802  0.4985
17457TIP3    H273787   1.837   1.121   2.022  0.2377  0.1756  0.1353
17458TIP3   OH273788   0.590   5.075   2.139  0.5201  0.1088  0.1743
17458TIP3    H173789   0.598   5.048   2.230 -0.6456 -0.8060  0.0295
17458TIP3    H273790   0.629   5.003   2.089 -0.5837 -0.3050 -0.1169
17459TIP3   OH273791   2.964   1.603  15.693 -0.0112 -0.1171 -0.1150
17459TIP3    H173792   2.879   1.578  15.729 -0.8747  1.5137 -0.8947
17459TIP3    H273793   2.946   1.624  15.601  0.8898  1.7653  0.0973
17460TIP3   OH273794   6.104   2.551  13.576  0.3960  0.4423  0.0879
17460TIP3    H173795   6.083   2.643  13.590 -0.4845  0.1816  0.5711
17460TIP3    H273796   6.041   2.503  13.630  1.5084 -0.4200  0.6737
17461TIP3   OH273797   3.696   5.115   0.790  0.1808 -0.3107  0.3911
17461TIP3    H173798   3.631   5.180   0.818 -0.8729 -0.8472 -0.7074
17461TIP3    H273799   3.724   5.144   0.703  1.9601  0.2880  1.1295
17462TIP3   OH273800   3.697   6.450  16.016  0.0032  0.4130 -0.0412
17462TIP3    H173801   3.753   6.413  16.084  0.0768  1.0814  0.2656
17462TIP3    H273802   3.740   6.531  15.990 -0.4286  0.5512 -0.3365
17463TIP3   OH273803   3.570   4.749  13.020 -0.2894  0.1890  0.4070
17463TIP3    H173804   3.654   4.708  13.041  1.4417  2.7803 -0.8328
17463TIP3    H273805   3.535   4.776  13.105 -1.5994 -3.7092  1.2860
17464TIP3   OH273806   4.251   1.000  15.713  0.2775 -0.4474 -0.6009
17464TIP3    H173807   4.274   0.923  15.765  2.4003  1.3322  1.3283
17464TIP3    H273808   4.334   1.048  15.704 -0.4813  0.4867 -3.7679
17465TIP3   OH273809   4.804   1.633  14.469  0.7549  0.0545 -0.0447
17465TIP3    H173810   4.869   1.695  14.438  2.5007 -1.8785 -0.5008
17465TIP3    H273811   4.836   1.605  14.555 -0.0981 -0.0639  0.2409
17466TIP3   OH273812   5.327   5.813  16.943 -0.0449  0.2334 -0.1243
17466TIP3    H173813   5.418   5.787  16.928  0.4979  1.5053  0.7576
17466TIP3    H273814   5.288   5.737  16.986  0.3921 -0.5912 -1.1312
17467TIP3   OH273815   3.273   2.820   1.542 -0.0665  0.0960  0.6155
17467TIP3    H173816   3.338   2.861   1.599 -0.3981  1.8890 -0.2356
17467TIP3    H273817   3.318   2.744   1.505  0.7853  0.0251  1.7347
17468TIP3   OH273818   1.872   4.023   4.060  0.0078 -0.3509  0.5364
17468TIP3    H173819   1.879   3.999   4.153  0.0168 -1.1700  0.3354
17468TIP3    H273820   1.941   3.972   4.018 -0.2444 -0.2694  0.0274
17469TIP3   OH273821   6.340   2.051   0.394  0.4133 -0.5728  0.6876
17469TIP3    H173822   6.267   2.067   0.334 -0.4410  0.9225  2.0348
17469TIP3    H273823   6.368   1.962   0.374  1.4540  0.4356 -3.2164
17470TIP3   OH273824   5.811   6.546   6.303  0.7643  0.0931  0.1651
17470TIP3    H173825   5.741   6.540   6.369 -1.5493  1.5609 -1.9662
17470TIP3    H273826   5.781   6.490   6.231  3.9902 -2.7822  0.8052
17471TIP3   OH273827   2.740   6.021   3.245 -0.1239 -0.5399  0.2440
17471TIP3    H173828   2.748   5.949   3.307 -0.1089  1.7534  3.0997
17471TIP3    H273829   2.657   6.063   3.267 -1.4634 -1.0364 -3.0911
17472TIP3   OH273830   0.585   4.369   5.029  0.4288  0.6018 -0.1141
17472TIP3    H173831   0.663   4.408   5.069  0.5948  0.0824  0.0749
17472TIP3    H273832   0.540   4.325   5.101 -0.4386  1.5245 -0.0789
17473TIP3   OH273833   4.524   2.561  11.672 -0.1083  0.1749  0.5770
17473TIP3    H173834   4.580   2.496  11.716 -0.2950 -0.2554  0.1944
17473TIP3    H273835   4.546   2.644  11.714 -0.8053 -0.3261  1.9942
17474TIP3   OH273836   5.429   6.404   2.915 -0.0836  0.0001 -0.1914
17474TIP3    H173837   5.374   6.483   2.915  0.6543  0.6720  3.1550
17474TIP3    H273838   5.366   6.332   2.906 -1.1298  0.8676 -0.1235
17475TIP3   OH273839   5.507   3.158  13.854 -0.3100 -0.3397  0.2217
17475TIP3    H173840   5.477   3.112  13.775 -1.8204  1.1052 -0.1152
17475TIP3    H273841   5.602   3.164  13.844 -0.6242  1.6598 -2.5957
17476TIP3   OH273842   3.556   6.711   3.640 -0.6533  0.7315 -0.2603
17476TIP3    H173843   3.576   6.629   3.594  0.3547  0.9161 -0.1847
17476TIP3    H273844   3.542   6.775   3.571  1.9420  1.2641 -0.3812
17477TIP3   OH273845   3.800   3.766   2.650 -0.1151 -0.1938 -0.4113
17477TIP3    H173846   3.735   3.808   2.707 -0.3820  0.1514 -0.9706
17477TIP3    H273847   3.818   3.831   2.582  0.2417 -0.5897 -0.6961
17478TIP3   OH273848   1.279   2.638  14.393  0.0589  0.3025 -0.1534
17478TIP3    H173849   1.312   2.682  14.315  1.4532  1.3779  0.9958
17478TIP3    H273850   1.322   2.682  14.466 -1.4648 -0.4400  1.2621
17479TIP3   OH273851   6.634   1.589   3.103  0.2221 -0.0415 -0.8699
17479TIP3    H173852   6.718   1.550   3.128  0.5701  0.1001 -1.7498
17479TIP3    H273853   6.628   1.669   3.155  1.2849  0.6452 -1.7519
17480TIP3   OH273854   5.820   6.534  13.499  0.2378 -0.1665 -0.0456
17480TIP3    H173855   5.905   6.543  13.542  0.2655  0.7101 -0.2615
17480TIP3    H273856   5.840   6.504  13.411  0.4628  1.6830 -0.6498
17481TIP3   OH273857   2.873   5.863   5.705 -0.1296  0.2408  0.7730
17481TIP3    H173858   2.884   5.806   5.629  1.5657  0.6142  0.6940
17481TIP3    H273859   2.786   5.901   5.695  0.5509  1.3058 -1.7157
17482TIP3   OH273860   0.733   4.227  13.550 -0.3471  0.1312  0.4606
17482TIP3    H173861   0.780   4.236  13.467 -1.3785 -0.4944 -0.2178
17482TIP3    H273862   0.711   4.317  13.576  1.6971  0.4888  1.1101
17483TIP3   OH273863   1.891   6.418   5.408  0.2325  0.3267 -0.1445
17483TIP3    H173864   1.915   6.410   5.316 -1.0894  0.9101 -0.5648
17483TIP3    H273865   1.975   6.421   5.455  0.9091 -1.5865 -1.1457
17484TIP3   OH273866   0.916   6.057  13.198  0.2579  0.5099 -0.2037
17484TIP3    H173867   0.927   6.074  13.292 -0.2723  2.6017 -0.4694
17484TIP3    H273868   0.822   6.063  13.183 -0.0858 -3.0092 -0.4072
17485TIP3   OH273869   4.167   5.923   5.332  0.6495  0.2876  0.2561
17485TIP3    H173870   4.248   5.950   5.375  0.2765 -1.3133  2.0920
17485TIP3    H273871   4.103   5.989   5.358  0.6539 -0.1486  1.4157
17486TIP3   OH273872   3.295   2.328  16.232 -0.4975 -0.4013 -0.1094
17486TIP3    H173873   3.309   2.247  16.185 -0.6396 -1.0062  0.8583
17486TIP3    H273874   3.266   2.301  16.319 -0.4357  0.6787  0.2720
17487TIP3   OH273875   0.277   3.869   0.960 -0.0278  0.0390  0.1649
17487TIP3    H173876   0.195   3.877   1.009 -1.0623 -1.6478 -1.1556
17487TIP3    H273877   0.271   3.783   0.918  1.9573  0.3299 -0.8367
17488TIP3   OH273878   5.686   1.182   0.067  0.1394  0.0828  0.2540
17488TIP3    H173879   5.692   1.090   0.042  1.6249  0.1298  0.3456
17488TIP3    H273880   5.610   1.186   0.125  0.8729 -1.3629  1.3899
17489TIP3   OH273881   2.156   4.501   4.669  0.4498  0.4596 -0.3276
17489TIP3    H173882   2.066   4.472   4.656  0.1154  1.9446 -1.6540
17489TIP3    H273883   2.159   4.589   4.631  2.1583  0.9453  0.7920
17490TIP3   OH273884   5.184   3.699  14.537  0.0753 -0.1711  0.5047
17490TIP3    H173885   5.264   3.751  14.540  1.2036 -1.8435  0.1474
17490TIP3    H273886   5.196   3.639  14.464 -0.9637 -1.2935  1.2165
17491TIP3   OH273887   4.869   5.562   2.093 -0.2616 -0.3495 -0.0183
17491TIP3    H173888   4.887   5.604   2.009 -1.0634  3.6741  1.6331
17491TIP3    H273889   4.940   5.497   2.102  1.8665  1.4508 -2.2821
17492TIP3   OH273890   5.401   3.225   1.822 -0.0551  0.2015 -0.0956
17492TIP3    H173891   5.395   3.188   1.734 -1.4371 -1.7018  0.7442
17492TIP3    H273892   5.488   3.199   1.853 -1.0491 -2.7200  0.5442
17493TIP3   OH273893   3.364   3.982  15.256 -0.2711  0.3200 -0.0893
17493TIP3    H173894   3.376   3.922  15.182 -1.5714  0.0035 -0.0741
17493TIP3    H273895   3.378   3.927  15.333 -1.7879 -0.0677 -0.0700
17494TIP3   OH273896   1.824   3.989   1.846 -0.2159  0.2975  0.1743
17494TIP3    H173897   1.891   3.957   1.786 -0.7970  0.7283 -0.7317
17494TIP3    H273898   1.807   3.915   1.904 -0.9707 -0.8133 -1.3752
17495TIP3   OH273899   3.690   2.016   5.056 -0.4558  0.2675 -0.2754
17495TIP3    H173900   3.609   1.978   5.021 -0.4456 -0.6455  0.6432
17495TIP3    H273901   3.690   1.990   5.148  0.6962  0.5975 -0.1765
17496TIP3   OH273902   5.619   3.435   4.137 -0.0533  0.5504 -0.1243
17496TIP3    H173903   5.534   3.427   4.093 -0.4490  2.1529  0.2784
17496TIP3    H273904   5.655   3.346   4.136 -1.4159 -0.0254 -0.9299
17497TIP3   OH273905   5.906   5.300   1.571 -0.3578 -0.0080 -0.0181
17497TIP3    H173906   5.941   5.334   1.488 -0.2400  1.2515  0.5316
17497TIP3    H273907   5.824   5.347   1.584 -1.5623 -1.8737 -0.5470
17498TIP3   OH273908   3.563   0.100  11.459  0.2214 -0.5817 -0.7110
17498TIP3    H173909   3.605   0.101  11.373 -1.1129  2.9902 -1.4764
17498TIP3    H273910   3.621   0.151  11.515 -1.2292  1.3443 -0.8657
17499TIP3   OH273911   3.575   3.751  13.443  0.2265  0.2196  0.2887
17499TIP3    H173912   3.570   3.681  13.378 -0.2394 -1.1116  1.6721
17499TIP3    H273913   3.644   3.722  13.503  0.4279  1.2538  0.5729
17500TIP3   OH273914   4.026   2.484   6.208  0.3167 -0.2407 -0.2497
17500TIP3    H173915   4.038   2.458   6.117  2.0833 -1.1886  0.2194
17500TIP3    H273916   3.960   2.424   6.242 -3.2705  2.4328 -1.7725
17501TIP3   OH273917   3.475   4.085  14.421  0.0985 -0.6019 -0.7333
17501TIP3    H173918   3.542   4.153  14.436 -0.0529 -0.4578 -0.7067
17501TIP3    H273919   3.500   4.015  14.481  0.2256 -0.5491 -0.7225
17502TIP3   OH273920   0.300   0.386  12.704  0.7048  0.6974  0.0471
17502TIP3    H173921   0.319   0.455  12.767 -0.5480  0.9372  0.2008
17502TIP3    H273922   0.236   0.330  12.748  0.0624  0.6793 -0.8650
17503TIP3   OH273923   6.165   3.660  15.595  0.4595 -0.0004 -0.5254
17503TIP3    H173924   6.126   3.690  15.677  0.8047  1.5495 -0.8980
17503TIP3    H273925   6.096   3.608  15.554  0.9192 -2.4655  1.5730
17504TIP3   OH273926   4.505   3.913  15.970  0.3067  0.6289  0.1504
17504TIP3    H173927   4.562   3.972  15.920  1.6508 -1.8292 -1.3826
17504TIP3    H273928   4.564   3.871  16.033 -0.1163 -0.7999 -0.3841
17505TIP3   OH273929   3.164   1.687  12.274  0.0180  0.2071 -0.3356
17505TIP3    H173930   3.104   1.702  12.201  1.2062  0.5373 -1.2610
17505TIP3    H273931   3.250   1.674  12.233  0.5405 -0.5750  0.9414
17506TIP3   OH273932   5.900   1.565  10.797  0.3539 -0.0624 -0.2646
17506TIP3    H173933   5.907   1.649  10.843 -0.8046  0.4516 -0.9669
17506TIP3    H273934   5.866   1.589  10.711 -2.2615 -1.4502  0.2928
17507TIP3   OH273935   6.063   2.780   4.322 -0.3390 -0.3494 -0.1992
17507TIP3    H173936   6.090   2.821   4.404  0.6575 -0.1987 -0.5978
17507TIP3    H273937   6.029   2.852   4.269 -1.3673 -0.5065  0.2180
17508TIP3   OH273938   1.304   4.156  15.114 -0.0765  0.0816 -0.2384
17508TIP3    H173939   1.374   4.195  15.063  0.6176 -0.9083 -0.0732
17508TIP3    H273940   1.228   4.212  15.098  0.3511  0.2866 -1.6601
17509TIP3   OH273941   3.531   2.533   1.797 -0.3134  0.6784  0.0283
17509TIP3    H173942   3.438   2.511   1.788 -1.0519  3.5303 -0.3345
17509TIP3    H273943   3.563   2.540   1.707 -0.2854  1.5470  0.0910
17510TIP3   OH273944   1.342   2.272  14.557 -0.1931 -0.2976  0.0157
17510TIP3    H173945   1.358   2.258  14.463  0.6505 -1.4451  0.3163
17510TIP3    H273946   1.267   2.217  14.577 -0.4393  0.0277  0.0043
17511TIP3   OH273947   0.075   0.098   0.455  0.3899 -0.0868 -0.4012
17511TIP3    H173948   0.012   0.133   0.518  0.4941  0.6692 -0.7039
17511TIP3    H273949   0.128   0.174   0.430 -0.5735 -0.0369 -2.5091
17512TIP3   OH273950   0.517   3.222  16.389 -0.1969 -0.1179  0.1783
17512TIP3    H173951   0.449   3.154  16.392 -0.0125 -0.3107 -0.0388
17512TIP3    H273952   0.547   3.229  16.480 -1.7187  1.2019  0.6344
17513TIP3   OH273953   3.283   0.421   0.305  0.3816  0.4402 -0.6986
17513TIP3    H173954   3.349   0.464   0.250  0.4963  0.3371 -0.6412
17513TIP3    H273955   3.288   0.466   0.389  0.2008  0.6027 -0.7736
17514TIP3   OH273956   0.757   3.475  12.064  0.1820 -0.3055  0.3880
17514TIP3    H173957   0.708   3.552  12.094 -0.8071 -0.0599 -1.6817
17514TIP3    H273958   0.841   3.480  12.110 -0.8198  0.6007  2.2020
17515TIP3   OH273959   6.656   3.699  15.777 -0.3186  0.4402  0.0187
17515TIP3    H173960   6.640   3.699  15.683 -1.0719  1.3689  0.1356
17515TIP3    H273961   6.733   3.755  15.788 -0.9712  1.3482  0.0570
17516TIP3   OH273962   0.252   0.307   2.795  0.1581  0.2913 -1.1196
17516TIP3    H173963   0.273   0.400   2.789  0.4892  0.5481  2.2303
17516TIP3    H273964   0.157   0.303   2.783  0.1408  1.0474 -1.2752
17517TIP3   OH273965   2.190   4.892  16.602  0.2122 -0.2577 -0.1846
17517TIP3    H173966   2.197   4.842  16.683  0.5151 -1.1460 -0.7488
17517TIP3    H273967   2.233   4.838  16.536  1.3069  1.1094 -0.6620
17518TIP3   OH273968   1.250   5.681   4.630  0.2687  0.1107 -0.0534
17518TIP3    H173969   1.251   5.775   4.652  0.2851 -0.2260  1.4693
17518TIP3    H273970   1.308   5.675   4.554  0.8162  1.2491  0.2429
17519TIP3   OH273971   4.724   3.984  11.848 -0.7352 -0.1779 -0.1438
17519TIP3    H173972   4.806   4.034  11.841 -1.0304  0.2753 -0.3654
17519TIP3    H273973   4.695   3.973  11.757  0.0665 -2.0073 -0.2354
17520TIP3   OH273974   1.806   0.534   0.985  0.3933  0.1875 -0.3059
17520TIP3    H173975   1.842   0.490   1.062 -2.0441 -1.3479  0.0814
17520TIP3    H273976   1.876   0.529   0.920  1.1742 -1.9868  0.5999
17521TIP3   OH273977   4.109   2.201  12.467  0.5712  0.0870  0.7529
17521TIP3    H173978   4.018   2.227  12.454  0.5609 -0.7652 -1.1733
17521TIP3    H273979   4.109   2.106  12.455  1.8620  0.1973 -0.3380
17522TIP3   OH273980   5.570   4.839   3.056  0.6810 -0.4539 -0.4339
17522TIP3    H173981   5.644   4.899   3.064  0.0089  0.7805 -2.5448
17522TIP3    H273982   5.567   4.792   3.139  2.3956  1.1226  0.5802
17523TIP3   OH273983   2.977   3.501   0.148  0.7898  0.8809 -0.2378
17523TIP3    H173984   2.963   3.481   0.241  1.1190 -0.0635 -0.3839
17523TIP3    H273985   3.028   3.583   0.149  2.3780 -0.0733  0.4759
17524TIP3   OH273986   5.437   6.570   4.555 -0.4807  0.1716  0.2442
17524TIP3    H173987   5.444   6.506   4.626  1.3781 -1.0414 -0.9607
17524TIP3    H273988   5.449   6.654   4.598  0.2020 -0.4981  1.4319
17525TIP3   OH273989   4.517   2.459  12.847  0.0844  0.1728  0.3960
17525TIP3    H173990   4.510   2.431  12.938 -1.2835 -0.2612  0.1881
17525TIP3    H273991   4.484   2.384  12.797 -0.2136  0.8160 -0.3929
17526TIP3   OH273992   4.026   1.776   1.206  0.3818 -0.1205 -0.2698
17526TIP3    H173993   3.954   1.716   1.186  0.6138 -0.4914 -0.0007
17526TIP3    H273994   4.003   1.813   1.292 -0.2219  0.8828 -0.8311
17527TIP3   OH273995   5.189   2.398   5.387 -0.3430  0.0819 -0.5326
17527TIP3    H173996   5.196   2.470   5.449 -0.2920 -0.5294  0.1777
17527TIP3    H273997   5.274   2.355   5.390 -0.3465  0.0320 -1.0141
17528TIP3   OH273998   3.147   4.816  14.643  0.1901 -0.1488  0.5862
17528TIP3    H173999   3.069   4.852  14.599  0.7499 -0.1286 -0.4284
17528TIP3    H274000   3.173   4.883  14.705 -0.1550  0.1716  0.3895
17529TIP3   OH274001   6.391   2.660  13.527  0.2231  0.0987  0.5097
17529TIP3    H174002   6.302   2.629  13.544  0.3309 -0.6559 -0.2680
17529TIP3    H274003   6.444   2.623  13.598  0.0473 -0.0505  0.5642
17530TIP3   OH274004   6.050   1.140   5.756 -0.1410 -0.0215  0.4036
17530TIP3    H174005   6.112   1.212   5.751 -0.3164  0.1237  0.2869
17530TIP3    H274006   6.104   1.061   5.753 -0.0310  0.0887 -0.8128
17531TIP3   OH274007   2.274   4.572  13.669  0.0949  0.3775  0.0564
17531TIP3    H174008   2.350   4.592  13.724  0.2250  5.5418 -1.5049
17531TIP3    H274009   2.205   4.627  13.704 -2.2738 -2.1462 -0.3070
17532TIP3   OH274010   6.473   5.114   2.045  0.0027  0.1366 -0.3714
17532TIP3    H174011   6.435   5.039   2.091  0.1822 -0.5378 -1.2840
17532TIP3    H274012   6.507   5.170   2.114 -1.6481  0.2115  0.4177
17533TIP3   OH274013   5.438   2.131  15.067  0.1573 -0.3137 -0.3598
17533TIP3    H174014   5.367   2.177  15.022  0.8493  2.6265  1.3455
17533TIP3    H274015   5.517   2.159  15.022  0.7110  1.4002  1.5331
17534TIP3   OH274016   4.306   4.238   0.923 -0.5227  0.4712 -0.1232
17534TIP3    H174017   4.368   4.169   0.944 -2.2708 -0.5112  2.2908
17534TIP3    H274018   4.344   4.317   0.962  0.2318  0.3349 -0.5766
17535TIP3   OH274019   4.514   6.593  12.349  0.1742  0.0471 -0.4081
17535TIP3    H174020   4.516   6.549  12.434 -1.2462 -0.5065 -0.6273
17535TIP3    H274021   4.527   6.685  12.369 -1.0522  0.0441  0.5252
17536TIP3   OH274022   5.747   0.393  11.886 -0.6220  0.1464 -0.2046
17536TIP3    H174023   5.817   0.454  11.863  0.2073 -0.7784 -0.1954
17536TIP3    H274024   5.692   0.389  11.807 -0.7201  0.9269 -0.1882
17537TIP3   OH274025   4.021   5.078  14.908 -0.2219 -0.2029 -0.4820
17537TIP3    H174026   3.997   5.007  14.849  0.4041 -0.6830 -0.1753
17537TIP3    H274027   4.103   5.049  14.947 -0.8502 -0.0943  0.9641
17538TIP3   OH274028   4.061   2.674   5.582 -0.9591  0.5920  0.1001
17538TIP3    H174029   4.007   2.729   5.640 -1.0078  1.2767 -0.5740
17538TIP3    H274030   4.057   2.718   5.497 -1.0540 -0.5117 -0.4827
17539TIP3   OH274031   2.814   0.631   0.124  0.0540  0.1574 -0.7078
17539TIP3    H174032   2.882   0.565   0.109 -0.8476 -1.3595  1.2390
17539TIP3    H274033   2.733   0.587   0.097 -0.3274  1.4471 -1.7487
17540TIP3   OH274034   1.363   2.465   3.716  0.1476 -0.2465 -0.2406
17540TIP3    H174035   1.347   2.509   3.633  1.0930  1.8974  0.6484
17540TIP3    H274036   1.405   2.382   3.691  0.3346  0.3085 -1.8954
17541TIP3   OH274037   5.055   4.444   1.459  0.1305  0.5324 -0.7822
17541TIP3    H174038   5.112   4.418   1.386 -0.3966  0.3592 -1.1332
17541TIP3    H274039   5.017   4.527   1.432 -0.7457  0.0377 -1.0888
17542TIP3   OH274040   0.707   1.774   5.707  0.1675  0.0496 -0.2041
17542TIP3    H174041   0.636   1.740   5.761 -1.1028 -0.4289 -2.0866
17542TIP3    H274042   0.770   1.701   5.700 -0.1337 -0.2148 -0.1587
17543TIP3   OH274043   5.979   2.800  14.894  0.0444  0.3545 -0.0341
17543TIP3    H174044   5.999   2.802  14.988  3.3419  0.9686 -0.6263
17543TIP3    H274045   6.006   2.713  14.865 -1.9483 -0.2288 -0.3117
17544TIP3   OH274046   5.678   0.913  11.262  0.1852 -0.5032  0.3971
17544TIP3    H174047   5.704   0.821  11.263 -0.0002 -0.5580  0.1584
17544TIP3    H274048   5.693   0.942  11.172 -0.1879 -0.4254  0.3554
17545TIP3   OH274049   3.846   1.245   5.426 -0.6916  0.6278 -0.3128
17545TIP3    H174050   3.859   1.304   5.352  1.1800  0.1614 -0.4088
17545TIP3    H274051   3.833   1.159   5.386  2.7009 -0.0912 -0.2277
17546TIP3   OH274052   1.736   2.957  14.489  0.1441 -0.6018 -0.1944
17546TIP3    H174053   1.724   2.930  14.580 -0.9328  1.0146  0.1876
17546TIP3    H274054   1.818   3.006  14.489 -1.9991  3.4602  1.0416
17547TIP3   OH274055   3.406   6.286   5.377 -0.0890  0.2840  0.5316
17547TIP3    H174056   3.372   6.270   5.465  0.0637  0.8192  0.6921
17547TIP3    H274057   3.497   6.311   5.390  0.0245  0.0561  0.1943
17548TIP3   OH274058   3.601   1.461  11.903  0.0743 -1.0969  0.6158
17548TIP3    H174059   3.554   1.408  11.839 -0.4173  1.1226 -1.0097
17548TIP3    H274060   3.682   1.486  11.858 -0.1921  0.3387  0.8708
17549TIP3   OH274061   2.132   5.238   4.273 -0.4315 -0.4709 -0.0121
17549TIP3    H174062   2.062   5.220   4.336 -1.0111 -0.5173 -0.6644
17549TIP3    H274063   2.189   5.299   4.319 -1.5269  0.4968  0.1184
17550TIP3   OH274064   5.271   4.825  15.384 -0.0829 -0.1127 -0.4463
17550TIP3    H174065   5.178   4.831  15.366 -0.4322 -0.3245  1.1581
17550TIP3    H274066   5.311   4.895  15.332 -1.2917  0.8720 -0.0839
17551TIP3   OH274067   3.343   3.205   4.118 -0.0500 -0.5233  0.3886
17551TIP3    H174068   3.378   3.267   4.055 -1.9505 -0.2297 -0.4199
17551TIP3    H274069   3.407   3.206   4.190  0.5714  1.4683 -0.1231
17552TIP3   OH274070   4.275   3.670   3.997 -0.3177  0.2827  0.0401
17552TIP3    H174071   4.253   3.605   4.064 -1.0539  1.1192  0.6348
17552TIP3    H274072   4.244   3.753   4.034  2.3587  1.3210  0.1921
17553TIP3   OH274073   3.011   1.872  11.804  0.4910  0.0949 -0.1493
17553TIP3    H174074   2.947   1.921  11.752  2.4634  2.9035 -0.1748
17553TIP3    H274075   3.085   1.859  11.745  2.1184  1.9018  1.3650
17554TIP3   OH274076   6.671   6.450   7.006 -0.2316 -0.0044  0.2757
17554TIP3    H174077   6.635   6.509   6.939 -1.2760 -1.9390 -0.9486
17554TIP3    H274078   6.594   6.413   7.049  0.3782 -1.2604  0.3157
17555TIP3   OH274079   5.008   6.311  13.607 -0.4146  0.0496  0.7894
17555TIP3    H174080   4.986   6.396  13.647 -2.4098 -0.5583  1.1395
17555TIP3    H274081   5.083   6.280  13.657 -0.9970  0.6756  2.1190
17556TIP3   OH274082   3.538   5.776  15.921  1.0884  0.1067  0.2318
17556TIP3    H174083   3.603   5.841  15.892  1.4532 -0.0461  0.6892
17556TIP3    H274084   3.581   5.692  15.906 -0.1280 -0.1740 -2.2337
17557TIP3   OH274085   4.763   5.156   2.351 -0.0833 -0.2434 -0.0623
17557TIP3    H174086   4.779   5.124   2.440  0.6228 -1.1658 -0.4949
17557TIP3    H274087   4.684   5.209   2.357  0.0869 -0.1147  1.1542
17558TIP3   OH274088   3.074   5.378   2.082  0.0727 -0.3059  0.3585
17558TIP3    H174089   2.995   5.394   2.133  0.0721  0.6044  0.0796
17558TIP3    H274090   3.061   5.291   2.044 -1.1934  0.1949 -0.4056
17559TIP3   OH274091   5.597   2.039   0.022  0.4596  0.3201 -0.5451
17559TIP3    H174092   5.519   2.053  -0.032  0.2524  0.6184 -0.1685
17559TIP3    H274093   5.565   2.037   0.112  0.8494  0.1688 -0.4063
17560TIP3   OH274094   3.826   2.832   3.551  0.1341  0.3878 -0.2857
17560TIP3    H174095   3.778   2.864   3.475  1.8096  1.7210 -0.8321
17560TIP3    H274096   3.892   2.773   3.515 -0.6339 -0.9486  0.4067
17561TIP3   OH274097   0.883   1.337  16.215 -0.2640 -0.1438 -0.2141
17561TIP3    H174098   0.839   1.280  16.278  0.7169  0.1034  0.7247
17561TIP3    H274099   0.946   1.280  16.171 -0.8637 -0.2881 -0.9001
17562TIP3   OH274100   2.389   4.230   4.624 -0.9863  0.1316  0.0358
17562TIP3    H174101   2.316   4.250   4.565 -0.4136  1.3760 -0.2772
17562TIP3    H274102   2.463   4.216   4.566 -0.8933 -0.8335  0.3695
17563TIP3   OH274103   6.642   3.153  13.765  0.8029 -0.1624  0.2519
17563TIP3    H174104   6.681   3.082  13.714  0.1347  1.3526 -2.6186
17563TIP3    H274105   6.705   3.225  13.757 -0.5314  0.9446 -0.7987
17564TIP3   OH274106   1.179   1.216  16.666  0.5254 -0.3141 -0.6003
17564TIP3    H174107   1.107   1.279  16.658  1.2534  0.4034 -1.9495
17564TIP3    H274108   1.252   1.258  16.619  1.5713 -1.3810  0.0231
17565TIP3   OH274109   1.581   4.817   0.106  0.4286  0.3843  0.5473
17565TIP3    H174110   1.503   4.785   0.061  1.9742 -2.0263 -0.6384
17565TIP3    H274111   1.625   4.872   0.042  0.6091  0.2363  0.5422
17566TIP3   OH274112   5.500   0.392   4.514 -0.2714  0.5435 -0.3485
17566TIP3    H174113   5.412   0.356   4.525  0.0859  0.0084  0.8139
17566TIP3    H274114   5.509   0.454   4.586  0.3260  0.5633 -0.4412
17567TIP3   OH274115   1.734   6.462  16.161 -0.2472  0.6143  0.1689
17567TIP3    H174116   1.652   6.419  16.138  0.1148  0.4987 -0.9297
17567TIP3    H274117   1.710   6.555  16.170 -0.7941  0.3784  1.4083
17568TIP3   OH274118   3.000   2.260   1.736 -0.7552 -0.0501 -0.1025
17568TIP3    H174119   3.023   2.200   1.664  0.9760 -0.4371  0.7443
17568TIP3    H274120   3.054   2.337   1.722 -1.3718  0.4295  0.0759
17569TIP3   OH274121   2.997   6.459  13.493  0.1170 -0.6309 -0.3858
17569TIP3    H174122   3.076   6.489  13.540  0.2469  0.7107 -1.3780
17569TIP3    H274123   2.932   6.444  13.561  0.8516 -0.5095  0.3536
17570TIP3   OH274124   0.444   5.224   3.665 -0.2841  0.2004  0.6060
17570TIP3    H174125   0.480   5.283   3.730  1.9681  1.2720 -1.4177
17570TIP3    H274126   0.427   5.279   3.588 -0.7832 -1.3102 -0.4350
17571TIP3   OH274127   5.873   0.430   3.798 -0.2385  0.4240 -0.2087
17571TIP3    H174128   5.934   0.368   3.840  0.4503  0.0231 -1.7182
17571TIP3    H274129   5.795   0.427   3.853  0.6736  0.0634  1.1311
17572TIP3   OH274130   4.978   0.611   1.116 -0.1008 -0.0646  0.1844
17572TIP3    H174131   4.980   0.606   1.021 -1.5052 -3.3621  0.1803
17572TIP3    H274132   4.927   0.690   1.135 -0.7023  0.0918 -1.8179
17573TIP3   OH274133   3.717   6.737  16.456  0.0878 -0.7396 -0.7080
17573TIP3    H174134   3.666   6.670  16.501  1.9999 -0.7229  1.7246
17573TIP3    H274135   3.658   6.812  16.449 -0.2164 -0.5228  2.5099
17574TIP3   OH274136   0.848   3.238   2.715  0.4208 -0.4638 -0.0817
17574TIP3    H174137   0.798   3.179   2.771  1.7307 -1.7950 -0.2739
17574TIP3    H274138   0.829   3.325   2.749  0.7576 -1.1942  2.0996
17575TIP3   OH274139   5.195   6.288   2.525  0.3143  0.0032  0.0854
17575TIP3    H174140   5.256   6.235   2.474 -0.8302 -1.6044  0.3266
17575TIP3    H274141   5.238   6.373   2.532  1.9835 -0.7249 -0.7459
17576TIP3   OH274142   5.016   6.267  14.921  0.2529 -0.1822  0.2759
17576TIP3    H174143   4.993   6.175  14.928 -0.9844  0.1971  1.5957
17576TIP3    H274144   5.112   6.268  14.918  0.2728 -1.5123 -0.1232
17577TIP3   OH274145   0.638   5.581   1.229  0.4807  0.7847  0.3168
17577TIP3    H174146   0.645   5.600   1.135 -1.0822  1.1439  0.2600
17577TIP3    H274147   0.547   5.554   1.242  0.0224  2.9096  2.1085
17578TIP3   OH274148   6.607   5.055  17.093  0.4381 -0.0936 -0.4931
17578TIP3    H174149   6.563   4.971  17.077 -0.3527  0.0044  0.9965
17578TIP3    H274150   6.637   5.083  17.007  0.2309 -1.6412 -1.1004
17579TIP3   OH274151   6.497   4.960   6.234 -0.1542 -0.2083  0.0405
17579TIP3    H174152   6.446   5.028   6.279 -0.9778 -1.1805  0.6201
17579TIP3    H274153   6.432   4.893   6.211  0.5306 -0.4676 -1.1669
17580TIP3   OH274154   1.808   4.876  14.274 -0.0624  0.0167  0.6061
17580TIP3    H174155   1.850   4.837  14.197 -0.6709  0.2787  0.1379
17580TIP3    H274156   1.861   4.954  14.292  1.0142 -0.8785  1.4027
17581TIP3   OH274157   1.044   6.068  16.986 -0.1992  0.1232 -0.3814
17581TIP3    H174158   1.056   6.110  17.071  0.7764 -0.1954 -0.3538
17581TIP3    H274159   1.132   6.041  16.959 -0.8763 -3.0099  0.1848
17582TIP3   OH274160   1.295   0.126  11.964  0.6095 -0.2585  0.4212
17582TIP3    H174161   1.352   0.193  11.925 -0.1479  0.2404  0.1537
17582TIP3    H274162   1.224   0.115  11.901 -0.2834  0.0707  1.3481
17583TIP3   OH274163   5.672   1.077  14.490 -0.1223 -0.7139  0.3678
17583TIP3    H174164   5.674   1.170  14.469 -2.6291 -1.0094 -1.6616
17583TIP3    H274165   5.737   1.037  14.432 -2.1963 -0.6546 -2.2167
17584TIP3   OH274166   1.758   2.152  15.894 -0.3476 -0.6161 -0.0796
17584TIP3    H174167   1.772   2.245  15.878  0.0135 -0.7779 -0.7729
17584TIP3    H274168   1.665   2.137  15.874 -0.6016 -0.2572  0.8157
17585TIP3   OH274169   1.052   2.263   0.805 -0.4426  0.5702  0.3201
17585TIP3    H174170   1.004   2.340   0.836 -1.9459 -1.0981  2.4861
17585TIP3    H274171   0.987   2.212   0.756 -0.1880 -0.4700  1.0213
17586TIP3   OH274172   6.151   6.645   5.994 -0.1997 -0.3568  0.1631
17586TIP3    H174173   6.207   6.590   6.047 -0.0999 -0.3374  0.0783
17586TIP3    H274174   6.211   6.689   5.933 -0.2133  0.2710  0.6002
17587TIP3   OH274175   6.533   5.054  14.997  0.4437 -0.2105  0.1836
17587TIP3    H174176   6.518   5.127  14.937  0.1641  1.5312  2.2671
17587TIP3    H274177   6.468   4.989  14.972 -0.6064  1.0645 -0.5152
17588TIP3   OH274178   4.957   2.539  11.934 -0.5035 -0.1830 -0.2121
17588TIP3    H174179   5.015   2.608  11.901 -0.9826  0.5417  0.4152
17588TIP3    H274180   4.933   2.488  11.856  2.0501 -1.3803 -0.3064
17589TIP3   OH274181   5.232   3.228  17.142  0.3136 -0.0019 -0.5261
17589TIP3    H174182   5.142   3.201  17.159 -0.8193  2.5831 -1.8192
17589TIP3    H274183   5.255   3.285  17.215  0.6097  0.0063 -0.6208
17590TIP3   OH274184   5.215   4.450   1.032  0.5938  0.1915  0.2068
17590TIP3    H174185   5.274   4.435   1.106  1.1561 -3.2276 -0.7260
17590TIP3    H274186   5.252   4.525   0.986  1.9838  0.5044  1.7446
17591TIP3   OH274187   5.685   5.165  15.418 -0.1788 -0.4155 -0.5427
17591TIP3    H174188   5.659   5.199  15.503 -1.3626 -1.9286 -0.2493
17591TIP3    H274189   5.779   5.148  15.426 -0.5159 -1.8860  1.0032
17592TIP3   OH274190   6.441   2.595  16.177 -0.5280 -0.4126 -0.0645
17592TIP3    H174191   6.423   2.507  16.212 -0.2628 -0.2892  0.3838
17592TIP3    H274192   6.532   2.612  16.201 -0.1811 -0.5139 -1.2283
17593TIP3   OH274193   4.305   2.460   5.296 -0.4521 -0.2187 -0.3412
17593TIP3    H174194   4.316   2.416   5.381  0.0484 -1.0429 -0.8260
17593TIP3    H274195   4.340   2.398   5.232  1.7472  1.5287 -0.9294
17594TIP3   OH274196   2.250   0.313   2.487 -0.1549  0.0247 -0.3115
17594TIP3    H174197   2.215   0.401   2.472 -1.0661 -0.0952  0.9348
17594TIP3    H274198   2.256   0.306   2.582  0.1028 -1.1838 -0.4080
17595TIP3   OH274199   5.383   5.676   5.649 -0.1546  0.3829  0.0239
17595TIP3    H174200   5.314   5.709   5.593  0.8534  1.0535 -0.8501
17595TIP3    H274201   5.462   5.678   5.595  0.3171 -1.6660  0.5381
17596TIP3   OH274202   3.616   6.081  16.442 -0.4211  0.2711  0.2421
17596TIP3    H174203   3.544   6.143  16.428 -2.0234 -1.5951 -0.1379
17596TIP3    H274204   3.628   6.038  16.357  0.7963  0.1733  0.4444
17597TIP3   OH274205   1.703   0.489   3.390  0.2898  0.6682  0.0722
17597TIP3    H174206   1.632   0.551   3.372 -0.4669  0.0960  0.9762
17597TIP3    H274207   1.759   0.493   3.313 -0.7718  1.0752 -0.6977
17598TIP3   OH274208   5.281   3.062  12.481 -0.1015 -0.0113  0.4931
17598TIP3    H174209   5.186   3.073  12.484 -0.1243  0.1386 -0.4587
17598TIP3    H274210   5.293   2.974  12.446  0.1027  0.4491 -0.6378
17599TIP3   OH274211   1.442   3.828   5.541 -0.1665  0.4422  0.4424
17599TIP3    H174212   1.383   3.753   5.540 -1.8950  1.7459 -0.8493
17599TIP3    H274213   1.420   3.874   5.622 -0.3859  0.5263  0.3344
17600TIP3   OH274214   1.581   6.610   5.780 -0.5761 -0.9229  0.0069
17600TIP3    H174215   1.589   6.619   5.685  1.0088  1.7667  0.2899
17600TIP3    H274216   1.648   6.547   5.804  0.1017 -0.4339 -0.5497
17601TIP3   OH274217   2.566   0.403  10.844  0.1657  0.3536  0.0178
17601TIP3    H174218   2.623   0.408  10.921 -0.6956  0.2244  0.6860
17601TIP3    H274219   2.598   0.472  10.786 -0.9883  2.5145  1.7800
17602TIP3   OH274220   0.742   0.028   1.111 -0.2383 -0.0472 -0.0178
17602TIP3    H174221   0.717   0.061   1.198 -1.4560 -0.4494 -0.1971
17602TIP3    H274222   0.829  -0.010   1.124  0.3539  1.4570  0.6220
17603TIP3   OH274223   4.041   2.027   4.382  0.2645  0.0653  0.1151
17603TIP3    H174224   3.956   1.987   4.364 -0.2997  1.0320  0.5808
17603TIP3    H274225   4.054   2.090   4.311  0.3023  0.3598  0.3824
17604TIP3   OH274226   2.134   6.062   2.550 -0.0623 -0.2301  0.3719
17604TIP3    H174227   2.050   6.081   2.591  0.2530 -0.6431  1.2442
17604TIP3    H274228   2.121   5.978   2.506 -0.0117 -0.4679  0.8043
17605TIP3   OH274229   2.009   1.660   3.271  0.3568  0.1124 -0.3298
17605TIP3    H174230   2.103   1.648   3.284  0.0168 -0.1333  2.3564
17605TIP3    H274231   1.969   1.580   3.305 -0.8165 -0.2136 -2.3371
17606TIP3   OH274232   5.930   2.404  11.318  0.3737 -0.7487 -0.6563
17606TIP3    H174233   5.859   2.361  11.366 -0.0949  1.8744  1.2262
17606TIP3    H274234   5.886   2.446  11.244  0.0202  0.4093  0.1947
17607TIP3   OH274235   2.544   6.039   0.790  0.1743  0.0429 -0.2244
17607TIP3    H174236   2.462   6.019   0.835  0.5220  1.9615  1.3897
17607TIP3    H274237   2.610   6.039   0.859  1.3281 -0.1970 -1.2912
17608TIP3   OH274238   3.651   3.721  13.078  0.4514  0.4660 -0.2606
17608TIP3    H174239   3.562   3.752  13.095  0.8884  0.6221  2.0868
17608TIP3    H274240   3.705   3.799  13.083  1.1185 -0.0473  2.1702
17609TIP3   OH274241   5.708   0.663  11.246 -0.3119 -0.5072 -0.4413
17609TIP3    H174242   5.736   0.680  11.156 -1.8055  2.1992 -0.5033
17609TIP3    H274243   5.623   0.619  11.237  0.8876 -3.0257 -0.2631
17610TIP3   OH274244   1.350   0.921  16.813 -0.2078 -0.0433  0.1733
17610TIP3    H174245   1.437   0.900  16.777 -1.3720 -0.4097 -2.6722
17610TIP3    H274246   1.369   0.977  16.888  2.5100 -0.5165 -0.0318
17611TIP3   OH274247   6.690   3.933   5.976 -0.2099  0.4502  0.0087
17611TIP3    H174248   6.715   3.918   6.067 -0.8464  0.1332  0.1382
17611TIP3    H274249   6.623   3.867   5.959  1.0992 -0.6298 -1.2209
17612TIP3   OH274250   6.136   3.101   0.183  0.0604 -0.0915 -0.2063
17612TIP3    H174251   6.069   3.058   0.129  0.2091  1.3960 -1.6723
17612TIP3    H274252   6.219   3.070   0.147  0.2061 -1.3638  1.1329
17613TIP3   OH274253   2.464   1.125   0.462  0.0215 -0.1657  0.2906
17613TIP3    H174254   2.556   1.108   0.440  0.0110 -0.3386  0.3809
17613TIP3    H274255   2.429   1.039   0.486 -0.8971 -0.6684 -2.4676
17614TIP3   OH274256   4.024   0.715  11.744 -0.8445  0.7703 -0.3926
17614TIP3    H174257   4.085   0.728  11.816 -0.8966  0.7411 -0.3437
17614TIP3    H274258   3.969   0.642  11.771 -0.4319  0.3241 -0.7518
17615TIP3   OH274259   5.581   6.653   2.025 -0.2471 -0.3461 -0.0021
17615TIP3    H174260   5.647   6.611   2.080  1.8602  1.8197 -0.7131
17615TIP3    H274261   5.512   6.588   2.017  1.4421 -2.4526  1.4082
17616TIP3   OH274262   0.768   6.550   0.095 -1.2452 -0.2325 -0.5221
17616TIP3    H174263   0.724   6.469   0.121 -0.5901 -0.7036 -0.8217
17616TIP3    H274264   0.830   6.568   0.166 -2.6268  1.0093  0.4084
17617TIP3   OH274265   0.454   4.414  12.754 -0.3018 -0.7929  0.1864
17617TIP3    H174266   0.503   4.332  12.751  0.9944 -0.0339 -0.7901
17617TIP3    H274267   0.460   4.449  12.665  0.0570  0.8370  0.8104
17618TIP3   OH274268   6.258   0.620  13.142  0.0320  0.1417  0.0840
17618TIP3    H174269   6.283   0.690  13.080  1.8410  1.1693  1.8513
17618TIP3    H274270   6.266   0.661  13.228 -0.4755 -1.8208  1.1092
17619TIP3   OH274271   3.712   3.365  10.909  0.0710  0.0558  0.1568
17619TIP3    H174272   3.732   3.453  10.941 -0.5695  0.6110 -0.8998
17619TIP3    H274273   3.684   3.378  10.819 -1.8554 -1.0093  0.5450
17620TIP3   OH274274   0.144   6.251   3.949  0.0772 -0.3457  0.0778
17620TIP3    H174275   0.235   6.250   3.921  0.9917  3.2583  2.2481
17620TIP3    H274276   0.142   6.198   4.029  0.1706 -0.6485 -0.1183
17621TIP3   OH274277   3.753   4.274   3.312 -1.0711 -0.0895  0.0373
17621TIP3    H174278   3.746   4.261   3.406 -2.0787  1.4819  0.2254
17621TIP3    H274279   3.839   4.239   3.289  0.3804  1.8603  2.0132
17622TIP3   OH274280   1.965   0.003   5.352  0.2841  0.5395 -0.1711
17622TIP3    H174281   2.060  -0.013   5.355 -0.0817 -1.8623  1.9581
17622TIP3    H274282   1.942  -0.010   5.260  1.7742 -0.6681 -0.4183
17623TIP3   OH274283   3.884   3.052  12.482 -0.0171  0.5694 -0.3660
17623TIP3    H174284   3.858   3.104  12.558 -0.4236  0.6817 -0.5757
17623TIP3    H274285   3.946   2.988  12.516 -0.3767  0.4658  0.1025
17624TIP3   OH274286   6.735   6.116   2.380 -0.0867  0.3774 -0.0826
17624TIP3    H174287   6.664   6.148   2.435  0.3300  0.8914  0.1631
17624TIP3    H274288   6.809   6.105   2.440  0.0014 -0.3138 -0.3039
17625TIP3   OH274289   1.782   0.770  12.402  0.5376  0.0950 -0.1382
17625TIP3    H174290   1.723   0.805  12.469  1.2189 -0.6789  0.8882
17625TIP3    H274291   1.852   0.728  12.451  1.7189  0.6001 -1.3411
17626TIP3   OH274292   1.735   6.182   6.447 -0.1240  0.4514  0.1130
17626TIP3    H174293   1.720   6.115   6.381 -0.5441  2.8480 -2.4233
17626TIP3    H274294   1.812   6.230   6.416  0.7015  0.6486  2.3006
17627TIP3   OH274295   0.950   2.445  13.879  0.0730 -0.5551  0.0872
17627TIP3    H174296   0.867   2.444  13.928  0.3939  0.6376  0.6944
17627TIP3    H274297   0.925   2.426  13.789 -1.1644  1.7293 -0.1183
17628TIP3   OH274298   5.821   1.705   2.222  0.4078 -0.5406 -0.1291
17628TIP3    H174299   5.798   1.676   2.310 -2.4519 -1.2022 -0.9882
17628TIP3    H274300   5.783   1.792   2.214  1.3409 -0.1480 -0.4831
17629TIP3   OH274301   3.665   3.468   2.346 -0.1896  0.4356 -0.0606
17629TIP3    H174302   3.689   3.411   2.419  2.1245  1.0623 -0.2405
17629TIP3    H274303   3.688   3.418   2.268  1.0674  1.2484 -0.2364
17630TIP3   OH274304   1.889   4.433   1.679 -0.7253  0.5435  0.1700
17630TIP3    H174305   1.852   4.513   1.642  1.3960  0.5349 -2.2665
17630TIP3    H274306   1.889   4.371   1.606  1.3460 -0.3209  0.8254
17631TIP3   OH274307   4.772   2.500   1.395 -0.7463  0.4846 -0.2747
17631TIP3    H174308   4.710   2.534   1.330 -3.0337  1.3084  2.1582
17631TIP3    H274309   4.740   2.412   1.414 -0.9306  0.7338  0.6415
17632TIP3   OH274310   3.789   4.146   5.768 -0.1683  0.2024  0.2386
17632TIP3    H174311   3.698   4.115   5.769 -0.0847 -0.0271  0.5789
17632TIP3    H274312   3.811   4.149   5.675 -1.3936  2.8350 -0.0828
17633TIP3   OH274313   6.513   4.490  16.249 -0.2555 -0.5797 -0.2949
17633TIP3    H174314   6.455   4.518  16.320  0.5113 -0.0306  0.1348
17633TIP3    H274315   6.469   4.414  16.211 -0.6477 -0.9465  0.8305
17634TIP3   OH274316   1.162   3.853   0.658 -0.5792  0.5285  0.0404
17634TIP3    H174317   1.158   3.916   0.586  1.7685 -1.1898 -1.7599
17634TIP3    H274318   1.120   3.774   0.623  1.7092 -0.7482 -0.0175
17635TIP3   OH274319   3.070   1.353  16.628 -0.0389  0.0294 -0.4210
17635TIP3    H174320   2.976   1.357  16.608  0.4809  0.5158 -3.1113
17635TIP3    H274321   3.090   1.259  16.628 -0.5269 -0.0863  0.3036
17636TIP3   OH274322   4.564   2.215  13.886 -0.1052 -0.0231 -0.2888
17636TIP3    H174323   4.620   2.247  13.815  0.7779 -0.8505  0.0136
17636TIP3    H274324   4.622   2.161  13.940 -0.2634  1.9978  2.0973
17637TIP3   OH274325   2.094   2.457  17.124  0.4642  0.0342  0.3162
17637TIP3    H174326   2.130   2.407  17.051  0.6276 -0.3260  0.6383
17637TIP3    H274327   2.016   2.408  17.150 -0.5151  1.0447 -0.6530
17638TIP3   OH274328   0.776   3.880  11.945 -0.1694  0.0064 -0.0209
17638TIP3    H174329   0.814   3.802  11.985 -2.0618 -1.1072 -0.2709
17638TIP3    H274330   0.848   3.943  11.942  1.2582 -1.5122  0.7280
17639TIP3   OH274331   2.337   6.773  10.396  0.2843 -0.2713 -0.1313
17639TIP3    H174332   2.275   6.701  10.402  0.4859 -0.4519 -0.2252
17639TIP3    H274333   2.293   6.846  10.439  0.4723 -0.7135  0.8337
17640TIP3   OH274334   2.204   0.075  17.146 -0.0409 -0.0174  0.6447
17640TIP3    H174335   2.146   0.120  17.085 -1.3764 -1.5642  0.6932
17640TIP3    H274336   2.177   0.105  17.232 -1.3843 -1.3502  0.7170
17641TIP3   OH274337   4.713   5.258  15.640  0.5156 -0.0183 -0.2259
17641TIP3    H174338   4.663   5.177  15.638 -0.3956  0.4570  1.5169
17641TIP3    H274339   4.769   5.254  15.561 -3.0494 -0.0185 -3.0035
17642TIP3   OH274340   2.114   2.023   0.287  0.1034 -0.6004  0.2931
17642TIP3    H174341   2.165   1.951   0.323 -1.4553 -0.9108  2.0469
17642TIP3    H274342   2.145   2.100   0.334  1.4846 -0.1406 -1.2923
17643TIP3   OH274343   5.264   5.577  10.646  0.2937  0.1000  0.0709
17643TIP3    H174344   5.231   5.656  10.603  1.7203  0.2242 -0.8792
17643TIP3    H274345   5.194   5.551  10.706 -1.2701  0.6620 -1.4074
17644TIP3   OH274346   4.949   0.374  15.425  0.1358 -0.2048  0.2612
17644TIP3    H174347   5.007   0.404  15.495  0.9501  1.3748 -1.0275
17644TIP3    H274348   4.889   0.447  15.411  0.0641 -0.4466 -0.7573
17645TIP3   OH274349   2.396   4.326   2.374  0.6470 -0.3102 -0.7043
17645TIP3    H174350   2.446   4.397   2.335  0.6129  0.7352  1.0720
17645TIP3    H274351   2.434   4.246   2.336 -0.0773  0.6170 -3.6212
17646TIP3   OH274352   0.446   2.632  15.989  0.0898  0.0409 -0.2027
17646TIP3    H174353   0.485   2.578  15.920 -1.6107 -1.8673  0.2172
17646TIP3    H274354   0.495   2.610  16.068 -0.8989 -1.3354  0.0623
17647TIP3   OH274355   0.763   0.967  14.828  0.1431  0.0634 -0.8427
17647TIP3    H174356   0.699   1.038  14.826 -0.2789 -0.2323  0.8734
17647TIP3    H274357   0.743   0.919  14.908  0.9459 -1.5183 -1.5421
17648TIP3   OH274358   3.302   6.258  14.085 -0.0052  0.0205  0.9821
17648TIP3    H174359   3.351   6.261  14.003  1.6558 -0.5095  1.9074
17648TIP3    H274360   3.284   6.165  14.100  1.9128 -0.1821  2.4124
17649TIP3   OH274361   6.070   5.741   4.179 -0.1655 -0.4450  0.0446
17649TIP3    H174362   6.093   5.754   4.271 -0.8281  0.6645  0.0641
17649TIP3    H274363   6.001   5.675   4.181 -1.2387  0.6466  0.4914
17650TIP3   OH274364   2.892   3.459   3.871  0.3117  0.0918  0.4618
17650TIP3    H174365   2.813   3.510   3.852  2.5059  3.3047 -0.8783
17650TIP3    H274366   2.922   3.429   3.785  1.7918  1.0020  0.6278
17651TIP3   OH274367   3.660   3.298  14.396  0.6755  0.0353  0.0104
17651TIP3    H174368   3.673   3.393  14.392  0.3956  0.0588 -0.4804
17651TIP3    H274369   3.748   3.261  14.390  0.7583  0.2601 -0.1901
17652TIP3   OH274370   1.014   1.876  14.535 -0.4291  0.1147  1.1029
17652TIP3    H174371   1.079   1.865  14.466 -2.8657  0.6078 -1.4609
17652TIP3    H274372   0.993   1.787  14.563 -2.3147 -0.5184 -1.8534
17653TIP3   OH274373   0.782   6.241   4.860  0.1446  0.7749 -0.3423
17653TIP3    H174374   0.809   6.150   4.852  3.3234  1.4660  1.0027
17653TIP3    H274375   0.801   6.279   4.774 -0.0479  0.4378 -0.5348
17654TIP3   OH274376   3.811   6.731   3.346  0.1620  0.5939 -0.7420
17654TIP3    H174377   3.889   6.740   3.400 -1.2699  0.2474  1.5242
17654TIP3    H274378   3.776   6.820   3.339 -0.2982  0.4786 -0.0281
17655TIP3   OH274379   4.673   2.257   4.294 -0.7128 -0.5150 -0.2634
17655TIP3    H174380   4.579   2.274   4.307 -1.0572 -0.0859 -2.7263
17655TIP3    H274381   4.693   2.301   4.211  1.4292 -1.5065 -0.3269
17656TIP3   OH274382   1.948   4.825  12.092  0.4742  0.3167  0.0203
17656TIP3    H174383   1.905   4.893  12.040  2.6898  1.3733 -0.5102
17656TIP3    H274384   1.939   4.745  12.039 -0.4815  0.5834 -0.2427
17657TIP3   OH274385   5.065   1.479  17.042  0.6636  0.0652 -0.5318
17657TIP3    H174386   5.067   1.572  17.064 -0.3296 -0.3116  1.3810
17657TIP3    H274387   5.045   1.435  17.125 -1.4776 -1.6465 -1.8304
17658TIP3   OH274388   3.411   6.569  11.232  0.0576  0.0603  0.1855
17658TIP3    H174389   3.317   6.568  11.250 -0.0624  1.0729 -0.3163
17658TIP3    H274390   3.429   6.658  11.203  1.2386 -0.0387  0.5732
17659TIP3   OH274391   3.691   4.376   0.517 -1.0154 -0.1147 -0.1617
17659TIP3    H174392   3.776   4.364   0.475 -1.2450 -2.1166 -0.1622
17659TIP3    H274393   3.711   4.417   0.601  0.0562 -1.3078  0.1957
17660TIP3   OH274394   2.494   3.264  11.785 -0.2348  0.1362 -0.8671
17660TIP3    H174395   2.516   3.174  11.811  2.3990  1.0187  0.4008
17660TIP3    H274396   2.402   3.274  11.810 -0.8412 -2.3828 -1.7214
17661TIP3   OH274397   6.342   5.926   3.126 -0.4862 -0.1889 -0.2125
17661TIP3    H174398   6.291   5.976   3.190  0.3563  1.3835 -0.7009
17661TIP3    H274399   6.352   5.986   3.052  0.9006 -0.9427 -0.6759
17662TIP3   OH274400   5.340   2.167  15.834  0.5812 -0.4754 -0.1714
17662TIP3    H174401   5.371   2.183  15.745  0.4346 -1.4675 -0.4148
17662TIP3    H274402   5.273   2.233  15.849  0.7720 -0.1540 -0.7107
17663TIP3   OH274403   6.287   3.038   5.858 -0.2251  0.0127  0.5695
17663TIP3    H174404   6.338   2.985   5.920 -1.6501 -1.0008  0.9403
17663TIP3    H274405   6.335   3.033   5.776  1.0499  0.3457  1.2736
17664TIP3   OH274406   5.668   0.644  14.526  0.1894 -0.4775  0.5310
17664TIP3    H174407   5.682   0.632  14.432  3.1557  1.4576  0.6007
17664TIP3    H274408   5.728   0.582  14.568 -0.8157 -1.0395  1.1834
17665TIP3   OH274409   0.198   3.645  15.850  0.0576  0.6373 -0.0912
17665TIP3    H174410   0.167   3.573  15.794  0.4495  0.0130  0.4839
17665TIP3    H274411   0.280   3.613  15.887  0.4073  1.5166 -0.0818
17666TIP3   OH274412   0.296   2.245  12.245 -1.0007  0.0730 -0.4113
17666TIP3    H174413   0.298   2.328  12.292  0.4987 -0.5222  0.6690
17666TIP3    H274414   0.206   2.213  12.255 -0.7254 -0.0614  2.1827
17667TIP3   OH274415   3.681   3.984   0.881 -0.1138  0.4799 -0.2067
17667TIP3    H174416   3.754   3.946   0.832  0.0762  2.5228 -1.6469
17667TIP3    H274417   3.614   3.917   0.881  1.2015 -0.8921 -0.1436
17668TIP3   OH274418   2.459   0.460   4.067  0.3839  0.1628 -0.3320
17668TIP3    H174419   2.415   0.525   4.122 -0.1794 -0.2728 -0.2623
17668TIP3    H274420   2.485   0.509   3.988  1.2477  0.8039  0.3219
17669TIP3   OH274421   0.349   0.426   3.491  0.0706 -0.0722  0.0442
17669TIP3    H174422   0.372   0.405   3.581  1.7778 -0.5134 -0.4618
17669TIP3    H274423   0.395   0.509   3.474 -2.4442  1.5168  0.3924
17670TIP3   OH274424   1.578   3.044   2.923  0.2720  0.1524 -0.0147
17670TIP3    H174425   1.666   3.028   2.957  0.1807 -0.1910  0.0665
17670TIP3    H274426   1.579   3.135   2.895 -0.4307  1.3455  3.3966
17671TIP3   OH274427   0.141   0.319  13.798 -0.6236  0.3633  0.1947
17671TIP3    H174428   0.140   0.307  13.893  0.1355 -0.6437  0.0986
17671TIP3    H274429   0.051   0.307  13.770 -1.0847  1.9149  0.9076
17672TIP3   OH274430   0.430   1.635   6.349  0.7942  0.2246  0.0762
17672TIP3    H174431   0.465   1.590   6.426 -1.1887 -0.5920  0.5507
17672TIP3    H274432   0.455   1.579   6.276 -0.7133 -1.1587  0.5568
17673TIP3   OH274433   2.740   0.740   3.289  0.1025  0.6534  0.5049
17673TIP3    H174434   2.776   0.787   3.214  0.2650 -0.0793  0.1113
17673TIP3    H274435   2.810   0.742   3.355  0.8149 -0.5515 -0.1658
17674TIP3   OH274436   4.037   0.732   2.726  0.3911  0.4610  0.1715
17674TIP3    H174437   3.967   0.757   2.666  0.0604 -2.2279 -0.6745
17674TIP3    H274438   4.106   0.699   2.670  2.2879  2.6950  1.0142
17675TIP3   OH274439   6.028   2.728   0.953 -0.2300 -0.2368 -0.1751
17675TIP3    H174440   6.076   2.737   1.035  2.4125  1.8506 -1.7733
17675TIP3    H274441   5.973   2.806   0.948 -2.2410 -1.5257  0.6047
17676TIP3   OH274442   5.361   4.674   1.030 -0.0472 -0.3650  0.0387
17676TIP3    H174443   5.352   4.762   0.992 -0.4020 -1.2660 -2.0734
17676TIP3    H274444   5.416   4.688   1.108 -2.1152  2.0764  1.2187
17677TIP3   OH274445   2.092   3.127   1.208  0.9359  0.0364 -0.5471
17677TIP3    H174446   2.006   3.103   1.244  1.9672 -1.2523  1.2374
17677TIP3    H274447   2.155   3.085   1.267  2.8594 -3.3913 -4.4566
17678TIP3   OH274448   4.005   3.064   1.125  0.1184  0.0100  0.4950
17678TIP3    H174449   4.016   3.123   1.199 -1.0755 -1.4635  1.9072
17678TIP3    H274450   4.092   3.027   1.110  0.2566 -0.0894  1.5193
17679TIP3   OH274451   3.252   4.226   2.811  0.7223  0.5088 -0.2488
17679TIP3    H174452   3.257   4.281   2.889 -0.2807 -0.1188  0.2736
17679TIP3    H274453   3.159   4.224   2.788  1.0745  1.3631 -1.9742
17680TIP3   OH274454   5.084   4.604   3.722  0.6213  0.0551 -0.0517
17680TIP3    H174455   5.044   4.688   3.701 -0.4806  0.1894  2.2765
17680TIP3    H274456   5.018   4.539   3.699  1.1658 -0.1493 -1.1051
17681TIP3   OH274457   2.520   6.034   1.210 -0.3043  0.1141 -0.3705
17681TIP3    H174458   2.545   6.120   1.243 -1.6196  0.4472 -0.2050
17681TIP3    H274459   2.542   5.974   1.282  0.2177  0.3624 -0.3202
17682TIP3   OH274460   0.546   5.697   0.657 -0.0582  0.4785 -0.5374
17682TIP3    H174461   0.587   5.613   0.674 -1.0958 -0.3884 -2.1085
17682TIP3    H274462   0.473   5.700   0.719  1.0915  1.1131  0.8382
17683TIP3   OH274463   1.451   2.351   5.205  0.2331 -0.0453 -0.3345
17683TIP3    H174464   1.526   2.377   5.258 -0.9307  0.8642  0.9354
17683TIP3    H274465   1.473   2.380   5.117  2.4679 -2.0979 -0.5747
17684TIP3   OH274466   4.464   2.817  13.269  0.2710 -0.5399 -0.5445
17684TIP3    H174467   4.467   2.762  13.190 -0.5499 -1.8194  0.2742
17684TIP3    H274468   4.371   2.829  13.287  0.4492  0.2775 -0.1277
17685TIP3   OH274469   4.990   1.195  16.345 -0.3078  0.1200 -0.1732
17685TIP3    H174470   4.941   1.272  16.315  0.1627  1.1726  1.6268
17685TIP3    H274471   4.925   1.125  16.351 -0.8804  0.5571 -1.1493
17686TIP3   OH274472   0.510   4.529   2.780 -0.2230 -0.0543 -1.0667
17686TIP3    H174473   0.598   4.494   2.768 -0.5647 -0.8891 -1.2534
17686TIP3    H274474   0.460   4.455   2.814 -0.2661  1.0852  1.5621
17687TIP3   OH274475   2.720   3.105  13.343 -0.2062  0.2342  0.4068
17687TIP3    H174476   2.745   3.016  13.369  1.1347  0.4776 -0.0165
17687TIP3    H274477   2.715   3.154  13.425  2.2236  0.5477  0.4315
17688TIP3   OH274478   3.870   5.630   6.275 -0.3873  0.3824  0.1426
17688TIP3    H174479   3.861   5.603   6.366  1.4016  1.2994  0.6258
17688TIP3    H274480   3.951   5.588   6.245  0.1139  1.6728 -0.3954
17689TIP3   OH274481   4.771   0.016  15.188  0.9088 -0.0937 -0.1758
17689TIP3    H174482   4.771   0.107  15.157  0.7090 -0.3964 -1.0993
17689TIP3    H274483   4.717  -0.031  15.124 -1.4686 -0.3575  1.8761
17690TIP3   OH274484   0.068   1.306   0.082  0.5367  0.1691  0.3435
17690TIP3    H174485   0.023   1.237   0.033  0.1317  0.3409  0.4736
17690TIP3    H274486   0.161   1.284   0.073  0.4581  0.0632 -0.2978
17691TIP3   OH274487   3.588   5.910   0.708 -0.0274 -0.0443  0.3697
17691TIP3    H174488   3.682   5.910   0.690 -0.1830  2.0759 -0.6505
17691TIP3    H274489   3.551   5.847   0.646  0.6200 -0.4038  0.3413
17692TIP3   OH274490   1.262   4.631   1.814 -0.0718  0.2096  0.2268
17692TIP3    H174491   1.303   4.585   1.887 -0.8246 -1.2198 -0.2121
17692TIP3    H274492   1.331   4.690   1.782  0.1820  1.0736  2.2210
17693TIP3   OH274493   3.600   2.730   5.096 -0.7088 -0.0412 -0.8155
17693TIP3    H174494   3.660   2.680   5.152 -0.0504 -0.5585 -1.9450
17693TIP3    H274495   3.622   2.822   5.114  1.8420 -0.1997 -2.6074
17694TIP3   OH274496   0.456   5.882   4.072  0.4329  0.5350 -0.4083
17694TIP3    H174497   0.526   5.940   4.041  1.7459 -0.3427  0.7396
17694TIP3    H274498   0.466   5.803   4.018  2.1183 -0.6268  1.4403
17695TIP3   OH274499   2.799   1.240  13.465 -0.1275  0.8687  0.2549
17695TIP3    H174500   2.737   1.309  13.490 -1.7032 -0.9920  1.8912
17695TIP3    H274501   2.809   1.250  13.371 -2.8120  1.3949 -0.0645
17696TIP3   OH274502   3.283   0.374  15.161 -0.1316  0.5699  0.3463
17696TIP3    H174503   3.264   0.332  15.244 -0.0800  0.8361  0.4942
17696TIP3    H274504   3.378   0.379  15.158 -0.0712 -0.5863 -0.3045
17697TIP3   OH274505   6.678   1.135   1.707 -0.0609  0.2795 -0.1309
17697TIP3    H174506   6.723   1.140   1.792  0.7362  0.5194 -0.5569
17697TIP3    H274507   6.748   1.120   1.644 -0.6373  0.2370 -0.7679
17698TIP3   OH274508   0.014   2.095   5.120  0.5984  0.1433 -0.0709
17698TIP3    H174509   0.090   2.084   5.177  1.4204  0.6089 -1.0340
17698TIP3    H274510  -0.057   2.122   5.178  0.8268 -1.5109  1.0294
17699TIP3   OH274511   0.735   2.118  16.286  0.1525  0.1381  0.5193
17699TIP3    H174512   0.713   2.211  16.290 -1.3559  0.0954 -3.1050
17699TIP3    H274513   0.655   2.073  16.312  0.0101 -0.0971 -0.2966
17700TIP3   OH274514   4.167   2.863   6.348 -0.2538  0.5191 -0.0068
17700TIP3    H174515   4.175   2.779   6.392 -1.7371  0.4903  0.2600
17700TIP3    H274516   4.109   2.846   6.274  1.5676  0.7425 -1.5501
17701TIP3   OH274517   6.080   2.664  11.622  0.8543 -0.2718  0.0361
17701TIP3    H174518   6.120   2.578  11.611  0.0004 -0.5923 -0.6176
17701TIP3    H274519   6.100   2.689  11.712  0.3598 -1.5325  0.5066
17702TIP3   OH274520   6.317   0.485  13.995 -0.4574  0.5436 -0.0547
17702TIP3    H174521   6.406   0.489  13.959 -0.0060 -1.9990  0.5602
17702TIP3    H274522   6.261   0.512  13.922  0.7028 -0.2196 -1.3020
17703TIP3   OH274523   4.804   3.376   6.428  0.1521  0.2128 -0.4772
17703TIP3    H174524   4.769   3.461   6.458 -1.0018  0.2313 -1.8066
17703TIP3    H274525   4.881   3.362   6.483 -1.0191  0.9505  1.4697
17704TIP3   OH274526   3.464   0.812  11.847  0.6038 -0.8248 -0.1939
17704TIP3    H174527   3.444   0.770  11.930 -1.3893 -0.6990 -0.5633
17704TIP3    H274528   3.560   0.819  11.846  0.6767  1.1944  3.0968
17705TIP3   OH274529   0.583   3.004  15.497  0.0092 -0.0046 -0.2565
17705TIP3    H174530   0.576   3.058  15.576 -1.5833 -0.2686 -0.1830
17705TIP3    H274531   0.655   3.044  15.448  0.3747  0.7749  0.8546
17706TIP3   OH274532   4.029   5.368   0.411  0.7328 -0.7891 -0.2872
17706TIP3    H174533   3.966   5.393   0.479  0.3110  1.3750 -1.3950
17706TIP3    H274534   3.989   5.294   0.367  1.2887 -2.6716  2.1190
17707TIP3   OH274535   3.392   3.019   1.970 -0.3777 -0.1591  0.3792
17707TIP3    H174536   3.306   2.998   2.007 -1.2363  1.3514 -0.6571
17707TIP3    H274537   3.396   3.115   1.971  0.3020 -0.1108 -1.6966
17708TIP3   OH274538   4.278   0.090  14.116 -0.1626 -0.3065 -0.0449
17708TIP3    H174539   4.211   0.148  14.081  0.5259  1.1518  0.9845
17708TIP3    H274540   4.341   0.148  14.158  1.4966 -1.6735 -0.5361
17709TIP3   OH274541   0.801   1.096  12.776 -0.1436 -0.5773 -0.6384
17709TIP3    H174542   0.840   1.011  12.799 -2.5155 -1.5442  0.1072
17709TIP3    H274543   0.847   1.159  12.831 -0.7646 -1.9065  1.5306
17710TIP3   OH274544   2.470   0.005  16.512 -0.1321 -0.0041 -0.2153
17710TIP3    H174545   2.381   0.024  16.541  0.1936  2.6449 -0.7012
17710TIP3    H274546   2.525   0.038  16.583  0.4939 -1.1395 -0.1570
17711TIP3   OH274547   0.501   1.454  16.584  0.6017  0.4928  0.5041
17711TIP3    H174548   0.550   1.489  16.658  0.5822  0.8295  0.3573
17711TIP3    H274549   0.425   1.411  16.624  0.2339  1.2604  0.6423
17712TIP3   OH274550   6.740   3.307   6.245 -0.7769 -0.1081  0.0950
17712TIP3    H174551   6.778   3.224   6.218 -0.3199 -0.5806  2.0683
17712TIP3    H274552   6.815   3.363   6.263 -1.0793  0.7989 -1.2635
17713TIP3   OH274553   4.329   4.752   3.874  0.0531  0.2324  0.1805
17713TIP3    H174554   4.345   4.685   3.941  0.5047  0.3601  0.2025
17713TIP3    H274555   4.268   4.813   3.916  1.2814  0.9808  0.9342
17714TIP3   OH274556   3.557   2.829  16.581 -0.2403 -0.0539  0.4932
17714TIP3    H174557   3.540   2.903  16.640 -1.0751 -1.4155  2.0319
17714TIP3    H274558   3.518   2.856  16.498  1.3468  2.1039  0.3655
17715TIP3   OH274559   2.641   3.513  14.998  0.7093 -0.1602 -0.1688
17715TIP3    H174560   2.589   3.462  15.060  0.5552 -1.8358 -1.6179
17715TIP3    H274561   2.725   3.526  15.042 -0.5402  1.8617  1.8566
17716TIP3   OH274562   4.361   1.944   2.303 -0.6930  0.1753 -0.1333
17716TIP3    H174563   4.294   1.876   2.304 -0.1671 -0.3925 -1.5185
17716TIP3    H274564   4.397   1.942   2.215 -0.3539  1.9659 -0.0899
17717TIP3   OH274565   1.177   0.882  14.118 -0.2764 -0.6950  0.2208
17717TIP3    H174566   1.183   0.790  14.093 -1.1163 -1.2144  1.7459
17717TIP3    H274567   1.189   0.930  14.037  0.1947 -2.1514 -0.6129
17718TIP3   OH274568   2.542   2.693   5.774 -0.1394 -0.0739 -0.1695
17718TIP3    H174569   2.572   2.713   5.685 -1.2444 -0.4209 -0.6407
17718TIP3    H274570   2.610   2.636   5.810 -0.2448 -0.9021 -1.2263
17719TIP3   OH274571   2.513   5.044  12.355  0.1009  0.0960 -0.1697
17719TIP3    H174572   2.557   5.122  12.389 -0.6339  0.1589  0.6749
17719TIP3    H274573   2.470   5.005  12.432  0.8290 -1.3965 -0.4785
17720TIP3   OH274574   2.347   3.176   3.646 -0.2652  0.0021 -0.1515
17720TIP3    H174575   2.304   3.259   3.627  0.9799  0.3395 -1.7102
17720TIP3    H274576   2.336   3.164   3.741 -2.9016  0.5129 -0.3303
17721TIP3   OH274577   3.511   0.822   1.364 -0.0437  0.1639 -0.0898
17721TIP3    H174578   3.601   0.848   1.381  0.5199 -2.4075  1.2280
17721TIP3    H274579   3.481   0.782   1.446 -1.3720 -1.7222 -1.4105
17722TIP3   OH274580   5.743   1.611  13.928  0.5660  0.1214 -0.4128
17722TIP3    H174581   5.668   1.650  13.972  1.3879  0.9071  0.3303
17722TIP3    H274582   5.706   1.538  13.878 -0.6132  0.2079  0.2944
17723TIP3   OH274583   3.287   6.523  14.033  0.6668 -0.3093 -0.1728
17723TIP3    H174584   3.359   6.516  13.971  0.9989  2.5472 -0.2588
17723TIP3    H274585   3.266   6.433  14.056  2.1991 -1.3576 -2.4950
17724TIP3   OH274586   2.459   4.231   1.546 -0.1020  0.1480  0.1145
17724TIP3    H174587   2.520   4.296   1.582 -0.9629  0.6190  0.7827
17724TIP3    H274588   2.508   4.188   1.476  0.8460  0.8009  0.3494
17725TIP3   OH274589   0.121   5.536  16.039 -0.2846  0.0773  0.8840
17725TIP3    H174590   0.206   5.492  16.048  0.7358  1.7500 -0.1948
17725TIP3    H274591   0.098   5.560  16.128  0.7966  0.3349  1.1154
17726TIP3   OH274592   4.108   1.336  10.770 -0.0537  0.2350  0.3167
17726TIP3    H174593   4.145   1.324  10.683 -0.0661  0.2566  0.3085
17726TIP3    H274594   4.046   1.264  10.781  1.6524 -1.1670  1.2429
17727TIP3   OH274595   3.228   6.604   2.159 -0.2760 -0.1607  0.5075
17727TIP3    H174596   3.237   6.529   2.100 -3.7847  0.2677 -0.8155
17727TIP3    H274597   3.264   6.678   2.110  2.3365 -0.7149  1.4472
17728TIP3   OH274598   5.949   0.748   0.121 -0.1188 -0.6470 -0.5142
17728TIP3    H174599   5.961   0.842   0.117  0.3744 -0.6893 -0.1101
17728TIP3    H274600   5.883   0.729   0.055  1.3065 -0.2664 -2.1220
17729TIP3   OH274601   2.724   5.669   1.982 -0.3411  0.1815  0.1640
17729TIP3    H174602   2.686   5.754   1.962  0.5170  0.3944 -0.6495
17729TIP3    H274603   2.806   5.667   1.932 -0.2847 -1.0684  0.2677
17730TIP3   OH274604   4.526   6.753   3.096  0.5224 -0.1181  0.4082
17730TIP3    H174605   4.433   6.775   3.096  0.6061  0.2465 -0.2811
17730TIP3    H274606   4.542   6.715   3.010  1.2028  0.6199  0.2062
17731TIP3   OH274607   2.318   6.557  13.702 -0.4975 -0.0858  0.4511
17731TIP3    H174608   2.274   6.474  13.684 -0.4500  0.1104 -0.6472
17731TIP3    H274609   2.248   6.623  13.699 -0.4438 -0.0166  0.7182
17732TIP3   OH274610   3.939   4.158   2.916  0.4590 -0.3568 -0.1550
17732TIP3    H174611   3.946   4.177   3.010 -1.7457  1.5547 -0.2773
17732TIP3    H274612   4.021   4.189   2.879  0.3598  1.2520  0.8632
17733TIP3   OH274613   1.237   3.757  12.293  0.5610 -0.0550  0.3854
17733TIP3    H174614   1.311   3.698  12.313  0.9300  0.4639  0.5846
17733TIP3    H274615   1.242   3.770  12.198  0.5984 -0.1912  0.3689
17734TIP3   OH274616   6.692   1.451   6.446 -0.4645 -0.3773  0.1998
17734TIP3    H174617   6.734   1.532   6.417  0.1828 -0.9005 -0.3575
17734TIP3    H274618   6.746   1.420   6.519  0.6616 -1.5003 -1.0661
17735TIP3   OH274619   1.461   3.609  11.104 -0.4614 -0.4096 -0.1076
17735TIP3    H174620   1.494   3.563  11.181 -0.6979  0.2475  0.3961
17735TIP3    H274621   1.378   3.646  11.132 -0.4988 -0.0688 -0.6500
17736TIP3   OH274622   2.781   3.730  16.150  0.0200  0.4934  0.0991
17736TIP3    H174623   2.872   3.720  16.121 -0.2500  1.3309 -1.1228
17736TIP3    H274624   2.786   3.725  16.246  1.0140 -1.8681 -0.0222
17737TIP3   OH274625   6.386   2.947   6.105 -0.4347  0.2221 -0.5084
17737TIP3    H174626   6.434   2.874   6.145  1.7743  1.3472 -0.9886
17737TIP3    H274627   6.295   2.931   6.130  0.4964 -0.3938  3.0009
17738TIP3   OH274628   5.539   5.059   4.095  0.2261  0.4590  0.1671
17738TIP3    H174629   5.450   5.044   4.128  1.2141  0.1113  3.0110
17738TIP3    H274630   5.546   5.004   4.018 -1.6850 -0.3714  0.5269
17739TIP3   OH274631   2.919   3.277  14.879  0.1570 -0.0425  0.1137
17739TIP3    H174632   2.922   3.183  14.861  0.4742 -0.0862  0.3712
17739TIP3    H274633   2.849   3.287  14.944  0.2201 -0.1235  0.1958
17740TIP3   OH274634   0.205   4.260   5.339  0.0820  0.5329  0.0572
17740TIP3    H174635   0.264   4.335   5.339 -0.2394  0.8780  2.4012
17740TIP3    H274636   0.117   4.298   5.332  0.0039 -0.0068 -3.9781
17741TIP3   OH274637   4.236   1.709   5.796 -0.2350 -0.3050 -0.3556
17741TIP3    H174638   4.257   1.766   5.871 -2.2546  0.0042  0.0278
17741TIP3    H274639   4.142   1.719   5.784  0.0098 -0.4542 -2.8969
17742TIP3   OH274640   5.509   5.483   2.003  0.5485  0.0409  0.1893
17742TIP3    H174641   5.419   5.503   2.030  0.8948  0.2479  1.2435
17742TIP3    H274642   5.510   5.388   1.992 -0.2940  0.2028 -1.7803
17743TIP3   OH274643   3.949   4.346   2.071 -0.3414  0.5729  0.2788
17743TIP3    H174644   4.000   4.294   2.133  0.4788  2.1838  1.0281
17743TIP3    H274645   3.858   4.333   2.099 -0.2785 -1.3245 -0.2828
17744TIP3   OH274646   4.056   4.564   5.205  0.5753 -0.0157  0.3415
17744TIP3    H174647   4.131   4.508   5.184 -0.9019 -1.6327 -1.0297
17744TIP3    H274648   4.007   4.515   5.271 -2.5737 -2.3691 -3.2580
17745TIP3   OH274649   0.541   3.972  13.951  0.3483  0.3354 -0.0103
17745TIP3    H174650   0.502   3.932  14.028 -1.8682 -1.1972 -1.8061
17745TIP3    H274651   0.567   3.898  13.896  3.9103  1.3202  0.0726
17746TIP3   OH274652   2.820   5.409  17.019 -0.1417 -0.3043 -0.3599
17746TIP3    H174653   2.754   5.467  16.982 -0.7093 -0.6704  0.0688
17746TIP3    H274654   2.771   5.346  17.071  0.6637  0.4346  1.3668
17747TIP3   OH274655   5.009   0.065   0.078  0.1252  0.1956  0.0886
17747TIP3    H174656   4.978   0.104  -0.004  0.4523  0.4502  0.0852
17747TIP3    H274657   5.102   0.086   0.081  0.0554  0.4449  0.6699
17748TIP3   OH274658   6.158   1.889  12.846 -0.0774  0.7008  0.2513
17748TIP3    H174659   6.248   1.859  12.831 -0.6910 -1.2593  0.2801
17748TIP3    H274660   6.165   1.947  12.922  1.0491 -0.1541  0.8280
17749TIP3   OH274661   6.456   1.576   6.181 -0.5235  0.4173  0.4604
17749TIP3    H174662   6.441   1.509   6.248 -0.1921 -0.8661 -0.6954
17749TIP3    H274663   6.436   1.659   6.224 -2.3256 -0.5279  1.5413
17750TIP3   OH274664   1.032   4.359   0.467 -0.1883  0.0148  0.4140
17750TIP3    H174665   1.064   4.446   0.444  2.1259 -1.2916 -1.8267
17750TIP3    H274666   0.950   4.350   0.419  1.1093 -0.1019 -1.9119
17751TIP3   OH274667   0.386   6.508  13.838  0.6443  0.2350  0.7039
17751TIP3    H174668   0.473   6.548  13.846  1.2397 -1.0535  0.9558
17751TIP3    H274669   0.356   6.534  13.751  1.9169 -0.4841  0.0185
17752TIP3   OH274670   0.080   5.472  12.006 -0.0106  0.1904 -0.2136
17752TIP3    H174671   0.067   5.542  11.942 -0.6616 -0.1852 -0.4987
17752TIP3    H274672   0.064   5.514  12.091 -0.9088  0.2776 -0.4154
17753TIP3   OH274673   3.280   0.764   6.564 -0.2199  0.4629  0.1629
17753TIP3    H174674   3.364   0.719   6.556 -0.5897  0.0116 -1.7877
17753TIP3    H274675   3.303   0.855   6.581  0.6121  0.0825  1.1685
17754TIP3   OH274676   4.892   0.341   1.185  0.2409  0.2567 -0.4198
17754TIP3    H174677   4.913   0.434   1.195  1.3470  0.3161 -2.6872
17754TIP3    H274678   4.953   0.297   1.245  0.6534  0.9324 -0.3249
17755TIP3   OH274679   2.523   6.108   2.804  0.5956 -0.2298  0.1272
17755TIP3    H174680   2.590   6.065   2.751 -1.6330 -3.7711 -0.1566
17755TIP3    H274681   2.448   6.049   2.800 -2.1355  2.8325  1.5130
17756TIP3   OH274682   4.905   2.198   4.670 -0.1141  0.1569  0.2978
17756TIP3    H174683   4.990   2.159   4.691 -0.1947  0.3267  0.9754
17756TIP3    H274684   4.842   2.130   4.693 -0.2413  0.5765  1.2589
17757TIP3   OH274685   2.611   5.233  15.928  0.6981  0.5923  0.0151
17757TIP3    H174686   2.559   5.258  16.004 -0.0063 -0.6773 -0.0251
17757TIP3    H274687   2.693   5.200  15.965  0.0238 -0.8378  0.3174
17758TIP3   OH274688   0.696   1.908   1.060  0.1302  0.0340 -0.3967
17758TIP3    H174689   0.669   1.975   0.997  1.5930  1.4235  0.3535
17758TIP3    H274690   0.764   1.858   1.015 -0.7075 -0.7180 -0.8332
17759TIP3   OH274691   2.958   3.895   3.996  0.4108  0.6815 -0.3942
17759TIP3    H174692   2.992   3.943   3.920 -1.8982  1.3658 -1.0733
17759TIP3    H274693   2.956   3.960   4.067 -3.1820  1.9807 -1.4382
17760TIP3   OH274694   3.037   6.317   0.019 -0.3128 -0.5666 -0.7002
17760TIP3    H174695   3.112   6.371   0.044  0.0526 -1.9021  1.4228
17760TIP3    H274696   3.075   6.245  -0.032 -0.0667 -1.3131  0.4837
17761TIP3   OH274697   3.775   1.588  14.113 -0.1939  0.1360  0.3757
17761TIP3    H174698   3.700   1.532  14.134 -0.2731  0.4095  0.8432
17761TIP3    H274699   3.801   1.625  14.197  1.4546 -1.1446  0.4851
17762TIP3   OH274700   6.659   5.825   4.479 -0.0445 -0.3078 -0.0669
17762TIP3    H174701   6.729   5.772   4.440 -1.3696 -1.4686 -0.9754
17762TIP3    H274702   6.645   5.895   4.415 -0.4023 -0.6732 -0.3953
17763TIP3   OH274703   4.729   2.774  10.402 -0.6101  0.0611  0.1328
17763TIP3    H174704   4.785   2.773  10.480 -2.2084  1.7194  1.4055
17763TIP3    H274705   4.788   2.787  10.329  0.8591 -0.6007  1.1610
17764TIP3   OH274706   4.748   5.164   3.684  0.7081  0.1636 -0.0242
17764TIP3    H174707   4.752   5.161   3.588  0.5199 -1.8424  0.0004
17764TIP3    H274708   4.779   5.079   3.712 -1.9656 -0.3883  1.5881
17765TIP3   OH274709   4.683   1.859  12.872  0.2652 -0.2450  0.4737
17765TIP3    H174710   4.600   1.812  12.875  0.9726 -1.6493 -0.6370
17765TIP3    H274711   4.665   1.936  12.819  0.0025 -1.3460 -1.1024
17766TIP3   OH274712   3.201   3.968  13.508  0.5052 -0.0685 -0.6348
17766TIP3    H174713   3.293   3.992  13.496  0.2046  2.7178  1.6453
17766TIP3    H274714   3.186   3.975  13.602 -1.4849 -2.9637 -0.6296
17767TIP3   OH274715   1.983   1.677   0.031  0.4948  0.3781 -0.1123
17767TIP3    H174716   2.031   1.686  -0.051 -0.9902 -0.4390 -1.1358
17767TIP3    H274717   1.919   1.749   0.029 -0.1634 -0.1908 -0.1506
17768TIP3   OH274718   4.431   2.506   1.469 -0.1592  0.3286 -0.6900
17768TIP3    H174719   4.444   2.451   1.547  1.4813  0.2549 -0.9864
17768TIP3    H274720   4.519   2.531   1.442 -0.7738  1.4877 -1.7393
17769TIP3   OH274721   1.682   1.357   6.251 -0.0169  0.3825  0.4735
17769TIP3    H174722   1.736   1.278   6.255 -2.0666 -1.0660  1.4530
17769TIP3    H274723   1.696   1.391   6.162 -0.4987 -2.1964 -0.6881
17770TIP3   OH274724   4.708   2.681   2.406 -0.1018 -0.3566  0.3523
17770TIP3    H174725   4.720   2.765   2.363 -0.3286 -1.3731 -1.8566
17770TIP3    H274726   4.794   2.660   2.442  0.3055  0.1904 -0.2817
17771TIP3   OH274727   6.095   1.458  14.290  0.5152  0.0994  0.2757
17771TIP3    H174728   6.183   1.421  14.284  0.5670 -0.0736  1.7491
17771TIP3    H274729   6.108   1.553  14.285  0.7990  0.0780  0.5886
17772TIP3   OH274730   4.712   4.071   4.108 -0.3327  0.1303 -0.3811
17772TIP3    H174731   4.666   4.147   4.071 -3.2539 -1.8782 -1.2356
17772TIP3    H274732   4.767   4.108   4.176 -0.9368  3.1094 -1.3429
17773TIP3   OH274733   5.282   3.847  12.857  0.1048 -0.3867 -0.1878
17773TIP3    H174734   5.314   3.769  12.812  2.6595  0.6599 -0.3882
17773TIP3    H274735   5.294   3.918  12.794 -0.8153  0.4000  0.4856
17774TIP3   OH274736   0.045   4.788   3.868  0.2583  0.0957  1.0120
17774TIP3    H174737   0.070   4.877   3.845 -0.3195  0.1550  0.5919
17774TIP3    H274738   0.090   4.771   3.951  1.7558  0.1654  0.2491
17775TIP3   OH274739   3.431   6.394   3.882  0.1715  0.2686 -0.0832
17775TIP3    H174740   3.519   6.421   3.908  0.3431 -1.6437  1.5359
17775TIP3    H274741   3.413   6.316   3.934 -1.7431 -0.5076 -1.7642
17776TIP3   OH274742   1.020   2.135  15.179 -0.0099  0.1099 -0.1120
17776TIP3    H174743   0.975   2.204  15.228 -1.0500  0.1147 -1.0295
17776TIP3    H274744   1.111   2.139  15.209  0.0899  2.2769 -0.5722
17777TIP3   OH274745   3.618   0.716  15.978  0.2956 -0.0673  0.4768
17777TIP3    H174746   3.536   0.762  15.995 -1.2238 -1.8953 -1.3354
17777TIP3    H274747   3.657   0.703  16.065 -1.0083  1.3936  1.3229
17778TIP3   OH274748   1.011   2.752   1.484 -0.2883 -0.4048 -0.4248
17778TIP3    H174749   1.086   2.694   1.473 -0.3064 -0.8333  1.4314
17778TIP3    H274750   1.048   2.837   1.508 -0.3861 -0.5759  0.3411
17779TIP3   OH274751   5.997   2.477   5.259  0.9993 -0.2599  0.5402
17779TIP3    H174752   5.910   2.498   5.294  1.5852  4.0056 -0.0645
17779TIP3    H274753   5.985   2.478   5.164  1.7187  0.7957  0.4413
17780TIP3   OH274754   5.291   2.347   1.367  0.7340 -0.1536 -0.4712
17780TIP3    H174755   5.385   2.326   1.365  0.9518  0.7004 -0.1288
17780TIP3    H274756   5.268   2.341   1.460  0.3987 -0.5565 -0.5805
17781TIP3   OH274757   5.599   5.691  11.760  0.5327 -0.4580 -0.4531
17781TIP3    H174758   5.686   5.677  11.798  0.6686 -0.2634 -0.6818
17781TIP3    H274759   5.544   5.622  11.798  0.5010  0.1182  0.5766
17782TIP3   OH274760   6.403   4.800   4.383 -0.0239 -0.0672  0.2313
17782TIP3    H174761   6.466   4.764   4.320 -0.0337  0.0866  0.1305
17782TIP3    H274762   6.449   4.874   4.422 -0.6251  0.9193 -0.8511
17783TIP3   OH274763   4.758   4.860   1.066 -0.0936 -0.3916  0.0609
17783TIP3    H174764   4.845   4.881   1.100  0.2377 -1.1763 -0.2735
17783TIP3    H274765   4.734   4.778   1.109 -1.5715  0.8257  1.7079
17784TIP3   OH274766   0.122   3.927  14.513  0.0990 -0.3214  0.7494
17784TIP3    H174767   0.135   4.014  14.477 -0.8395  0.7448  2.8115
17784TIP3    H274768   0.040   3.897  14.475 -0.6416  0.5855  1.5925
17785TIP3   OH274769   6.470   6.710  11.359  0.1311  0.2912 -0.2933
17785TIP3    H174770   6.405   6.740  11.296 -0.1769 -1.8998 -1.1014
17785TIP3    H274771   6.496   6.623  11.328  2.7944  0.6954  0.4945
17786TIP3   OH274772   3.299   2.965   3.092  0.0447  0.3426 -0.2098
17786TIP3    H174773   3.345   3.037   3.048  0.3926  0.0615 -0.3037
17786TIP3    H274774   3.294   2.992   3.183 -1.0697  1.1351 -0.4774
17787TIP3   OH274775   1.295   5.883   2.903 -0.2716 -0.2850 -0.5157
17787TIP3    H174776   1.216   5.932   2.880 -0.4880 -1.1555 -1.7510
17787TIP3    H274777   1.265   5.792   2.912  0.4046 -0.4602  0.0669
17788TIP3   OH274778   5.121   2.274   5.766 -0.4293  0.1282  0.3220
17788TIP3    H174779   5.213   2.249   5.769  0.0472  1.4786 -1.1687
17788TIP3    H274780   5.075   2.205   5.813  1.1727 -1.4496 -0.3237
17789TIP3   OH274781   1.864   4.855   4.854 -0.1667  0.0514  0.0297
17789TIP3    H174782   1.958   4.839   4.854 -0.4103 -1.6557 -0.0417
17789TIP3    H274783   1.848   4.907   4.933  0.5554 -1.7954  1.4807
17790TIP3   OH274784   1.977   6.231   2.315 -0.1926  0.3875  0.5735
17790TIP3    H174785   1.973   6.310   2.369  0.7564  0.8631 -0.0156
17790TIP3    H274786   2.069   6.205   2.317 -0.3830 -0.3294  0.2381
17791TIP3   OH274787   6.169   2.421  14.762 -0.1281  0.0500  0.1741
17791TIP3    H174788   6.207   2.350  14.813  2.7932  0.8468 -0.7148
17791TIP3    H274789   6.244   2.467  14.725 -2.0207  0.8784 -2.9917
17792TIP3   OH274790   1.153   2.984  11.580  0.2166  0.2920  0.0225
17792TIP3    H174791   1.072   3.033  11.592 -0.0378  0.1374 -0.9806
17792TIP3    H274792   1.156   2.966  11.486  0.4060 -1.4292  0.3293
17793TIP3   OH274793   2.982   2.066  14.382 -0.2799  0.3668 -0.1168
17793TIP3    H174794   2.956   2.158  14.380 -2.9266 -0.3072 -2.1253
17793TIP3    H274795   2.922   2.025  14.442  0.4493 -0.1955  0.2419
17794TIP3   OH274796   4.605   4.895  11.069  0.2655  0.9642 -0.2682
17794TIP3    H174797   4.607   4.908  10.974 -0.1693  1.4616 -0.2145
17794TIP3    H274798   4.682   4.941  11.101  1.4881 -0.7937 -0.5472
17795TIP3   OH274799   4.768   5.301   3.331  0.7117  0.0274 -0.2012
17795TIP3    H174800   4.775   5.206   3.323  0.0226 -0.0430  0.0073
17795TIP3    H274801   4.685   5.323   3.289  0.8460  0.5336 -0.2090
17796TIP3   OH274802   1.237   1.923   1.711  0.0314 -0.2783 -0.0708
17796TIP3    H174803   1.272   2.008   1.685 -0.5383  0.3262  1.0839
17796TIP3    H274804   1.233   1.873   1.629  0.9161  0.5909 -0.6690
17797TIP3   OH274805   0.464   5.680   3.870 -0.3017 -0.3486 -0.4833
17797TIP3    H174806   0.548   5.645   3.842  0.5471  1.4410 -0.2802
17797TIP3    H274807   0.400   5.614   3.841  1.3366 -3.6039  2.5055
17798TIP3   OH274808   1.328   3.012   0.903  0.3068 -0.5201  0.5871
17798TIP3    H174809   1.236   2.990   0.892  0.2217  0.6380 -1.6405
17798TIP3    H274810   1.375   2.938   0.866  0.2894 -0.8615  1.2228
17799TIP3   OH274811   0.795   2.679   3.467  0.3718  0.2316  0.6562
17799TIP3    H174812   0.760   2.591   3.455  0.8102  0.0547  0.6609
17799TIP3    H274813   0.732   2.736   3.422  0.8551 -0.2172 -0.6308
17800TIP3   OH274814   2.237   2.163   5.758  0.0699  0.8660  0.1721
17800TIP3    H174815   2.201   2.075   5.763  2.1377  0.0108  1.8370
17800TIP3    H274816   2.198   2.201   5.680  0.6760 -2.2829 -1.8538
17801TIP3   OH274817   4.887   2.960  14.433  0.3847  0.2279 -0.3037
17801TIP3    H174818   4.843   2.976  14.517 -0.5108  1.7408 -1.0261
17801TIP3    H274819   4.951   2.892  14.453  1.8883  2.2067  2.1944
17802TIP3   OH274820   6.401   4.267  11.951  0.0015  0.0500  0.5467
17802TIP3    H174821   6.407   4.206  11.878 -0.7402  1.2262 -0.5441
17802TIP3    H274822   6.308   4.285  11.960  0.3012  4.0679 -1.9164
17803TIP3   OH274823   6.702   0.110   3.894  0.1013  0.6813  0.5492
17803TIP3    H174824   6.666   0.029   3.857  0.8583  1.0067 -1.0159
17803TIP3    H274825   6.641   0.178   3.866 -0.5727  0.6683  1.9242
17804TIP3   OH274826   2.917   5.150   0.360 -0.3019  0.0830  0.5423
17804TIP3    H174827   2.951   5.103   0.436 -0.1779  1.5258  1.4220
17804TIP3    H274828   2.914   5.241   0.388  1.4785  0.9619 -1.8072
17805TIP3   OH274829   6.221   6.551  10.837 -0.1131  0.3415  0.5748
17805TIP3    H174830   6.301   6.579  10.881  1.8753 -0.2415 -2.3732
17805TIP3    H274831   6.230   6.456  10.829 -0.9204  0.3163 -0.1198
17806TIP3   OH274832   6.686   0.050   5.321  0.2793  0.1243 -0.2928
17806TIP3    H174833   6.631   0.046   5.243  2.6048  0.3247 -2.0487
17806TIP3    H274834   6.707  -0.042   5.340 -1.1520 -0.0009  0.7943
17807TIP3   OH274835   2.692   3.260   5.892  1.0124 -0.0539 -0.1747
17807TIP3    H174836   2.751   3.314   5.944  1.3089  0.3944 -0.9582
17807TIP3    H274837   2.749   3.212   5.832  0.5818  0.3785 -0.9343
17808TIP3   OH274838   4.372   4.634   2.001 -0.3029  0.1320  0.3911
17808TIP3    H174839   4.439   4.634   2.069 -0.1453 -0.6159  0.2411
17808TIP3    H274840   4.365   4.543   1.974 -0.5704  0.3737 -0.3926
17809TIP3   OH274841   6.301   1.250   0.664 -0.3664  0.3011 -0.3457
17809TIP3    H174842   6.302   1.212   0.576  0.4154 -0.7419  0.0915
17809TIP3    H274843   6.287   1.175   0.722 -0.4458  0.9196  0.4439
17810TIP3   OH274844   2.337   2.043   2.309  0.4870  0.3127  0.2707
17810TIP3    H174845   2.386   2.108   2.259  0.5347  0.0484 -0.0253
17810TIP3    H274846   2.361   2.061   2.400 -0.9001  1.9077  0.3759
17811TIP3   OH274847   1.346   4.603   4.161  0.6839 -0.1306 -0.0800
17811TIP3    H174848   1.430   4.647   4.169 -0.1999  2.1906 -2.3029
17811TIP3    H274849   1.316   4.622   4.072 -2.6061 -0.0411  0.8905
17812TIP3   OH274850   4.560   0.174  16.782  0.6795  0.1794  0.6409
17812TIP3    H174851   4.514   0.175  16.866  0.8042  2.7895  0.7448
17812TIP3    H274852   4.575   0.081  16.764 -1.1296 -0.5516  2.5067
17813TIP3   OH274853   2.286   0.178  15.216  0.0663 -0.3524 -0.2367
17813TIP3    H174854   2.376   0.207  15.228  0.0783 -0.5007  0.0428
17813TIP3    H274855   2.294   0.094  15.171  0.0346  0.0352 -0.9711
17814TIP3   OH274856   1.188   3.150  12.698  0.0368  0.2381 -0.1386
17814TIP3    H174857   1.138   3.116  12.624 -1.9944  1.7129  0.4481
17814TIP3    H274858   1.140   3.228  12.725  1.2361  0.2722  2.1643
17815TIP3   OH274859   1.656   5.630   4.250 -0.3355 -0.3514 -0.1636
17815TIP3    H174860   1.659   5.559   4.186  0.7806 -0.4031 -0.0704
17815TIP3    H274861   1.706   5.597   4.325  0.0769  0.4737 -0.0650
17816TIP3   OH274862   4.135   0.889   2.346  0.1610  0.3279 -0.0834
17816TIP3    H174863   4.208   0.949   2.333 -0.6359  1.0615 -1.3998
17816TIP3    H274864   4.070   0.940   2.393 -0.1594  0.2214 -0.4015
17817TIP3   OH274865   6.521   1.569   3.926 -0.0637 -0.6430  0.7386
17817TIP3    H174866   6.532   1.663   3.938  0.5317 -0.7238  0.8657
17817TIP3    H274867   6.514   1.557   3.831  0.3713 -0.5165  0.6866
17818TIP3   OH274868   3.721   4.284   0.831  0.6716 -0.5174 -0.2459
17818TIP3    H174869   3.774   4.363   0.835 -0.9814  0.6452 -0.0410
17818TIP3    H274870   3.741   4.237   0.912 -1.3610  1.8293  1.7982
17819TIP3   OH274871   6.172   0.082   3.121  0.1345  0.1372 -0.3297
17819TIP3    H174872   6.205   0.125   3.200 -2.6231 -0.5967  1.3591
17819TIP3    H274873   6.084   0.118   3.109 -0.2197 -1.1367 -2.0194
17820TIP3   OH274874   1.920   2.582   3.977 -0.3003 -0.3270  0.7445
17820TIP3    H174875   1.920   2.487   3.991  1.0530 -0.9616 -2.5940
17820TIP3    H274876   2.012   2.606   3.976 -0.6216  1.0272  1.2743
17821TIP3   OH274877   1.743   6.209   5.012  0.5053  0.2861  0.4691
17821TIP3    H174878   1.699   6.152   4.950  2.3297 -1.5803  0.7531
17821TIP3    H274879   1.675   6.235   5.074 -0.3969 -1.8680  0.4859
17822TIP3   OH274880   2.913   1.039  11.250 -0.0169  0.0633 -0.3528
17822TIP3    H174881   2.858   1.031  11.172 -3.8805  1.5084  1.9850
17822TIP3    H274882   2.879   0.973  11.310  1.2840  0.5723  0.9889
17823TIP3   OH274883   3.373   1.619  12.818  0.2370  0.3394  0.7231
17823TIP3    H174884   3.334   1.567  12.887 -0.4531  0.4385  0.4159
17823TIP3    H274885   3.392   1.704  12.859 -1.9936  1.1052  0.3448
17824TIP3   OH274886   3.437   5.938   1.586  0.0457 -0.4173  0.0290
17824TIP3    H174887   3.414   5.953   1.494 -1.3578 -0.4242  0.3549
17824TIP3    H274888   3.454   5.844   1.591  2.8596 -0.0413 -0.7538
17825TIP3   OH274889   4.201   5.868  12.880  0.1373  0.4107 -0.0248
17825TIP3    H174890   4.122   5.834  12.923  0.0489 -0.2620 -0.7007
17825TIP3    H274891   4.240   5.791  12.837  1.9048  0.4216  1.4115
17826TIP3   OH274892   2.343   3.964  16.686 -0.4191 -0.0934  0.1000
17826TIP3    H174893   2.256   3.938  16.654 -0.3926 -0.1261  0.0544
17826TIP3    H274894   2.326   4.039  16.742 -0.7574 -1.4816  1.9771
17827TIP3   OH274895   5.124   3.487  15.922  0.9392 -0.3809 -0.4239
17827TIP3    H174896   5.166   3.424  15.863  0.7926 -0.1765 -0.7536
17827TIP3    H274897   5.194   3.514  15.982  0.5578 -2.2427  0.9250
17828TIP3   OH274898   1.864   5.027  11.954 -0.0184  0.0499 -0.2822
17828TIP3    H174899   1.785   5.054  11.907  1.1501  3.4658 -0.5393
17828TIP3    H274900   1.922   4.994  11.885  0.0820  0.9224 -0.6230
17829TIP3   OH274901   2.328   5.623   2.212 -0.1571 -0.2387  0.2063
17829TIP3    H174902   2.375   5.592   2.135  0.3309  1.3346 -0.1654
17829TIP3    H274903   2.293   5.543   2.252  0.2677 -1.1669 -1.1756
17830TIP3   OH274904   0.135   0.903   1.493 -0.1124  0.9514 -0.0502
17830TIP3    H174905   0.161   0.874   1.406  0.7783 -1.6916  0.9984
17830TIP3    H274906   0.040   0.912   1.488 -0.2317 -0.5197 -0.9502
17831TIP3   OH274907   5.044   1.765  14.394  0.4526 -0.1053  0.3925
17831TIP3    H174908   5.048   1.853  14.354  1.4590 -1.3330 -2.5259
17831TIP3    H274909   5.135   1.737  14.398  0.1052 -1.2028  0.8102
17832TIP3   OH274910   4.121   2.408   5.088  0.8289 -0.1167 -0.8115
17832TIP3    H174911   4.170   2.448   5.160  1.0904 -1.8103 -0.0007
17832TIP3    H274912   4.061   2.348   5.132 -1.0585  0.9041 -1.8639
17833TIP3   OH274913   3.948   1.503  16.541  0.3152 -0.4254  0.9643
17833TIP3    H174914   3.938   1.558  16.463 -2.4367  0.1592  1.6007
17833TIP3    H274915   3.969   1.416  16.506 -1.6220 -0.3668 -0.5426
17834TIP3   OH274916   4.876   5.744  13.034 -0.1145 -0.0223  0.1769
17834TIP3    H174917   4.811   5.749  12.964 -0.0587  2.1017  0.2194
17834TIP3    H274918   4.824   5.730  13.113 -0.5740  1.6712  0.2093
17835TIP3   OH274919   2.723   0.740   3.695 -0.3374 -0.0581 -0.8737
17835TIP3    H174920   2.751   0.828   3.668  0.3757 -0.5827 -1.9543
17835TIP3    H274921   2.758   0.683   3.626  1.9755 -1.5708  1.3908
17836TIP3   OH274922   1.708   3.467  10.922  0.3968 -0.3866 -0.2715
17836TIP3    H174923   1.716   3.512  11.006 -3.1093 -1.8679  1.0257
17836TIP3    H274924   1.742   3.530  10.858 -0.7154  2.5562  1.8190
17837TIP3   OH274925   3.253   0.383   3.077  0.4072  0.3624 -0.3248
17837TIP3    H174926   3.304   0.449   3.030 -0.1199  1.0866  0.1072
17837TIP3    H274927   3.163   0.397   3.049  0.3457 -0.4847 -0.5832
17838TIP3   OH274928   1.429   0.133   4.846 -0.1613 -0.0008  0.1326
17838TIP3    H174929   1.362   0.188   4.887  0.7850  0.4681  1.0847
17838TIP3    H274930   1.470   0.087   4.919  0.1416 -0.7578 -0.5036
17839TIP3   OH274931   2.099   4.949   2.253 -0.2999 -0.0196  0.1182
17839TIP3    H174932   2.128   4.878   2.195 -1.9280  0.1404 -0.9455
17839TIP3    H274933   2.179   4.979   2.296  0.7404 -1.1011 -0.9996
17840TIP3   OH274934   1.705   2.734   5.067  0.6051  0.1928  0.2522
17840TIP3    H174935   1.725   2.801   5.132 -1.0512  0.0322  0.9993
17840TIP3    H274936   1.612   2.715   5.081  0.8339 -1.6756 -0.4773
17841TIP3   OH274937   1.756   2.350  13.058 -0.2419  0.2716  0.2898
17841TIP3    H174938   1.755   2.372  12.965 -1.1229  0.0017  0.2225
17841TIP3    H274939   1.689   2.406  13.097 -1.3435 -1.0534  0.3917
17842TIP3   OH274940   3.993   6.057  13.631 -0.0886 -0.0452  0.0371
17842TIP3    H174941   4.015   6.130  13.690 -1.3368  0.4277 -0.0637
17842TIP3    H274942   3.915   6.086  13.585  0.6830 -0.5432 -1.6401
17843TIP3   OH274943   4.395   2.466  16.353  0.6110  0.0509  0.0787
17843TIP3    H174944   4.354   2.414  16.422  0.3745  0.5973  0.3552
17843TIP3    H274945   4.487   2.471  16.379  1.1336 -2.0738 -1.0896
17844TIP3   OH274946   2.194   6.342  13.601 -0.4775  0.8255  0.2712
17844TIP3    H174947   2.249   6.311  13.529 -0.7706 -1.6068  1.0087
17844TIP3    H274948   2.105   6.343  13.565 -0.4961  0.5735  0.3090
17845TIP3   OH274949   6.409   1.928   2.443  0.2251  0.1097  0.1367
17845TIP3    H174950   6.400   1.834   2.433  2.0787 -0.1144  0.2128
17845TIP3    H274951   6.328   1.964   2.407  0.4122 -1.3893 -1.9279
17846TIP3   OH274952   2.869   2.824  11.960  0.2886 -0.1936  0.2853
17846TIP3    H174953   2.806   2.876  12.010  0.3334 -0.8571  1.0641
17846TIP3    H274954   2.863   2.857  11.871 -1.4520 -0.5056  0.2512
17847TIP3   OH274955   4.969   3.249   5.639 -0.1015 -0.5427  0.0239
17847TIP3    H174956   5.002   3.245   5.550 -0.9717  0.7017 -0.3865
17847TIP3    H274957   5.045   3.275   5.692  0.8973 -3.1414 -0.0045
17848TIP3   OH274958   4.770   4.985   6.099  0.0629  0.5246  0.5179
17848TIP3    H174959   4.752   4.928   6.174  0.2642 -0.2557 -0.0211
17848TIP3    H274960   4.855   4.956   6.066  1.2971  2.6361  1.5976
17849TIP3   OH274961   2.470   0.894   2.380  0.2415 -0.4288  0.2115
17849TIP3    H174962   2.485   0.873   2.288 -0.2727 -0.0143  0.0218
17849TIP3    H274963   2.375   0.887   2.391  0.3591 -1.1375  0.8866
17850TIP3   OH274964   6.251   5.209   4.586 -0.7038 -0.3866  0.1021
17850TIP3    H174965   6.199   5.194   4.507 -2.8363  0.2056  1.3250
17850TIP3    H274966   6.293   5.294   4.571 -0.5751 -0.5700 -0.6312
17851TIP3   OH274967   0.421   6.727  16.061 -0.4199  0.3208  0.5043
17851TIP3    H174968   0.388   6.658  16.003 -0.9024 -0.4309  1.6275
17851TIP3    H274969   0.506   6.694  16.090 -0.8404 -0.0304  1.3835
17852TIP3   OH274970   6.475   6.458   4.024 -0.2722  0.4138 -0.0560
17852TIP3    H174971   6.459   6.525   4.090 -2.0513  0.9478 -0.9450
17852TIP3    H274972   6.509   6.506   3.948 -1.2824  0.3128 -0.5978
17853TIP3   OH274973   6.604   5.767  16.428 -0.0443  0.6317  0.2304
17853TIP3    H174974   6.565   5.775  16.341 -0.0101  0.3796  0.1940
17853TIP3    H274975   6.680   5.710  16.416  1.2625  2.3349 -0.0059
17854TIP3   OH274976   3.189   1.789   5.969 -0.5213 -0.1782 -0.7341
17854TIP3    H174977   3.224   1.711   5.925  0.6465  0.2241 -0.5560
17854TIP3    H274978   3.163   1.847   5.898  0.7643  0.2060 -0.9204
17855TIP3   OH274979   1.439   1.922   5.228 -0.0753 -0.4756 -0.2179
17855TIP3    H174980   1.418   1.972   5.149  1.0357 -0.2072 -0.3649
17855TIP3    H274981   1.376   1.850   5.229 -0.2908 -0.3150 -1.1896
17856TIP3   OH274982   3.002   3.483   4.589 -0.2244 -0.5459 -0.8068
17856TIP3    H174983   3.034   3.452   4.674 -2.0935  0.3428  0.2927
17856TIP3    H274984   2.907   3.488   4.600 -0.5211 -0.5103 -3.0122
17857TIP3   OH274985   6.770   5.040  12.581 -0.1158  0.2271  0.2871
17857TIP3    H174986   6.757   5.132  12.602  0.5396  0.3972 -0.0414
17857TIP3    H274987   6.865   5.029  12.575 -0.2093 -0.2764 -0.5062
17858TIP3   OH274988   0.857   4.155  12.964  0.8914 -0.1854 -0.2252
17858TIP3    H174989   0.941   4.190  12.934  1.7518 -1.7896  0.2109
17858TIP3    H274990   0.810   4.132  12.884  1.1375  0.0800 -0.4500
17859TIP3   OH274991   2.879   5.492  11.952 -0.6161 -0.4337 -0.1956
17859TIP3    H174992   2.846   5.572  11.993  0.2871  0.7683 -1.6943
17859TIP3    H274993   2.865   5.505  11.858  0.2392 -1.7007 -0.5373
17860TIP3   OH274994   3.598   1.211  12.201  0.1853  0.4168  0.2626
17860TIP3    H174995   3.603   1.156  12.279 -0.0697  0.3980  0.2651
17860TIP3    H274996   3.506   1.209  12.176  0.7132 -2.0288 -1.8207
17861TIP3   OH274997   3.476   1.380   2.246  0.0423  0.5128  0.0802
17861TIP3    H174998   3.440   1.454   2.197  0.0681  1.3360  1.2714
17861TIP3    H274999   3.412   1.311   2.235  0.1246  0.6028 -1.2422
17862TIP3   OH275000   4.109   5.262  12.486  0.0055  0.2131 -0.5219
17862TIP3    H175001   4.168   5.201  12.530 -0.6218  0.7493  1.1563
17862TIP3    H275002   4.021   5.229  12.505 -0.3547  1.7039  0.5825
17863TIP3   OH275003   3.938   1.981  15.704  0.3645  0.0857  0.8677
17863TIP3    H175004   3.868   1.916  15.712 -0.0468  0.6085  1.6566
17863TIP3    H275005   4.018   1.933  15.723 -0.0072 -0.0464  2.1717
17864TIP3   OH275006   3.926   2.854   3.832 -0.0585 -0.1743  0.1763
17864TIP3    H175007   4.013   2.895   3.829 -0.8602  1.5265 -1.6459
17864TIP3    H275008   3.894   2.858   3.742 -1.4554 -2.1332  0.5249
17865TIP3   OH275009   4.179   5.648   4.159 -0.2656 -0.6385 -0.2241
17865TIP3    H175010   4.248   5.691   4.109  2.5613  2.4698  5.3280
17865TIP3    H275011   4.208   5.557   4.166  1.4405 -0.1872 -0.8920
17866TIP3   OH275012   4.540   4.006   5.513  0.3566  0.0888  0.0482
17866TIP3    H175013   4.538   4.096   5.546 -2.0347  0.8662 -1.8765
17866TIP3    H275014   4.483   3.957   5.572  1.4282 -0.1373  0.9254
17867TIP3   OH275015   4.436   1.491  16.554  0.0511  0.0681 -0.0300
17867TIP3    H175016   4.365   1.545  16.519  0.2719  0.5610  0.2749
17867TIP3    H275017   4.515   1.544  16.541  0.0336  0.7013  2.0851
17868TIP3   OH275018   3.249   2.489   4.366  0.4716  0.2507  0.3505
17868TIP3    H175019   3.321   2.552   4.366  0.2701  0.5012 -1.1197
17868TIP3    H275020   3.291   2.404   4.382  1.0650  0.4225 -0.2831
17869TIP3   OH275021   3.154   0.930   2.794  0.1164  0.1490  0.0889
17869TIP3    H175022   3.101   0.905   2.719 -1.1145  2.0768  0.2617
17869TIP3    H275023   3.129   0.869   2.863 -1.2996  0.5343 -0.0717
17870TIP3   OH275024   5.521   5.119  12.075  0.7796 -0.5431  0.1673
17870TIP3    H175025   5.478   5.199  12.105 -0.7041 -1.5938  1.0196
17870TIP3    H275026   5.451   5.068  12.034  1.3989 -1.9221  0.7469
17871TIP3   OH275027   0.428   0.137  13.600 -0.2017  0.6413 -0.2912
17871TIP3    H175028   0.523   0.137  13.602 -0.2036  0.5276 -0.1739
17871TIP3    H275029   0.405   0.154  13.509 -0.0671  0.1373 -0.4179
17872TIP3   OH275030   3.415   3.381  12.281  0.0997  0.6485  0.1740
17872TIP3    H175031   3.320   3.379  12.274 -0.1941  1.8227  2.5072
17872TIP3    H275032   3.437   3.474  12.285  1.1405  0.3941  1.2880
17873TIP3   OH275033   4.001   6.765   1.278  0.0070  0.1692  0.4153
17873TIP3    H175034   4.027   6.699   1.213 -1.1272 -1.2836  1.3729
17873TIP3    H275035   4.000   6.848   1.229 -1.2843 -0.9300 -1.5720
17874TIP3   OH275036   0.822   4.888   1.193 -0.1045 -0.0600  0.0947
17874TIP3    H175037   0.871   4.861   1.270  0.1012 -0.0562 -0.0350
17874TIP3    H275038   0.875   4.860   1.119  0.6746  1.6777 -0.0426
17875TIP3   OH275039   6.393   5.294   2.443 -0.2168 -0.0001 -0.0132
17875TIP3    H175040   6.398   5.367   2.382 -0.1056  0.7706  0.8957
17875TIP3    H275041   6.339   5.327   2.515 -0.4183 -0.9189  0.2683
17876TIP3   OH275042   2.130   5.588  12.726  0.2534  0.2297  0.4741
17876TIP3    H175043   2.198   5.522  12.714  0.0604  0.1068  0.0354
17876TIP3    H275044   2.072   5.577  12.651 -0.7068 -0.2057  1.2480
17877TIP3   OH275045   0.149   2.905   5.359  0.1208 -0.0270 -0.0767
17877TIP3    H175046   0.207   2.836   5.326 -1.2273 -1.4903  0.4502
17877TIP3    H275047   0.207   2.967   5.401  1.4415 -0.5725 -1.0064
17878TIP3   OH275048   4.876   3.927  14.048 -0.3155 -0.1903 -0.0112
17878TIP3    H175049   4.784   3.902  14.036 -0.6684  1.5452 -1.2553
17878TIP3    H275050   4.919   3.904  13.966  0.1811 -0.2022  0.2472
17879TIP3   OH275051   6.449   1.677  11.686  0.0886 -0.3232  1.0167
17879TIP3    H175052   6.366   1.713  11.717 -0.1677 -0.9194  1.0346
17879TIP3    H275053   6.437   1.582  11.689 -0.2598 -0.4525 -1.7166
17880TIP3   OH275054   4.145   4.323   2.802 -0.2262 -0.2842  0.3536
17880TIP3    H175055   4.088   4.399   2.811 -0.1060 -0.2357  0.7166
17880TIP3    H275056   4.231   4.359   2.779 -0.5847 -0.4168 -1.3582
17881TIP3   OH275057   4.729   1.803   4.332 -0.0780 -1.0408  0.2995
17881TIP3    H175058   4.640   1.770   4.316  0.3370 -2.2263  0.3057
17881TIP3    H275059   4.786   1.735   4.295  0.8279 -0.8835  1.3715
17882TIP3   OH275060   3.331   0.653  13.260  0.1276  0.2551  0.1989
17882TIP3    H175061   3.261   0.717  13.272 -2.9010 -2.6086 -0.5956
17882TIP3    H275062   3.326   0.630  13.167  1.5486 -0.6769  0.3235
17883TIP3   OH275063   6.522   2.768   1.626  0.0681  0.3142 -0.6412
17883TIP3    H175064   6.529   2.859   1.600 -2.0562  0.5713 -0.4784
17883TIP3    H275065   6.492   2.771   1.717  0.3099 -0.5503 -0.5234
17884TIP3   OH275066   5.499   2.841   5.767  0.2324 -0.2562  0.3901
17884TIP3    H175067   5.421   2.805   5.809 -0.5834  0.4766 -0.4418
17884TIP3    H275068   5.476   2.933   5.751  1.7716  0.3299  1.3181
17885TIP3   OH275069   0.159   2.542   2.571  0.3773  0.2871 -0.0956
17885TIP3    H175070   0.236   2.539   2.627 -0.4129 -1.5669  0.9967
17885TIP3    H275071   0.166   2.463   2.516 -0.8978 -0.1296  0.2902
17886TIP3   OH275072   1.953   0.336  17.103 -0.0245  0.0949  0.0142
17886TIP3    H175073   1.918   0.405  17.048  0.6242 -0.0242 -0.5722
17886TIP3    H275074   1.909   0.346  17.188  0.5661  1.6571  0.1574
17887TIP3   OH275075   2.878   6.738  11.429  0.1962  0.3191  0.2068
17887TIP3    H175076   2.931   6.676  11.379  0.0898  1.2353 -1.0924
17887TIP3    H275077   2.790   6.700  11.428 -0.0738  0.8754 -1.3803
17888TIP3   OH275078   3.922   5.083  15.542 -0.2680  0.1653 -0.1161
17888TIP3    H175079   3.939   5.027  15.467 -5.3193 -0.2784 -1.2920
17888TIP3    H275080   3.904   5.169  15.504  0.1436  0.7359  0.9354
17889TIP3   OH275081   2.231   2.736   5.433  0.0165 -0.3397 -0.0963
17889TIP3    H175082   2.249   2.779   5.350  0.7383 -0.1062  0.1668
17889TIP3    H275083   2.152   2.684   5.418  2.1979 -3.3772 -2.0961
17890TIP3   OH275084   2.468   2.185   1.501 -0.2232  0.1023 -0.0173
17890TIP3    H175085   2.506   2.240   1.433  1.8102 -3.2519 -1.9102
17890TIP3    H275086   2.544   2.158   1.554 -0.7906 -2.0305 -0.1812
17891TIP3   OH275087   5.399   3.906  14.472  0.0852  0.1449 -0.1775
17891TIP3    H175088   5.430   3.928  14.560  0.3751 -3.8668  0.9032
17891TIP3    H275089   5.472   3.927  14.414  1.7372 -1.4928  1.2214
17892TIP3   OH275090   0.907   5.936  14.545  0.0861 -0.0779  0.1130
17892TIP3    H175091   0.835   5.949  14.607  0.6584  1.7270  0.4802
17892TIP3    H275092   0.867   5.892  14.470 -1.5300  1.3352  0.0816
17893TIP3   OH275093   6.009   4.665  15.332 -0.9235 -0.2154  0.2232
17893TIP3    H175094   6.055   4.584  15.311 -0.2555 -0.0146  0.8853
17893TIP3    H275095   5.971   4.649  15.418 -0.7435  0.1931  0.3804
17894TIP3   OH275096   5.872   1.540  12.998  0.2091 -0.1645 -0.1784
17894TIP3    H175097   5.791   1.492  13.014  0.5185 -0.6439 -0.0578
17894TIP3    H275098   5.864   1.619  13.052 -1.1444  0.8950 -1.8097
17895TIP3   OH275099   5.803   1.022   5.839 -0.1537 -0.0532  0.0112
17895TIP3    H175100   5.893   1.043   5.814  0.2264 -1.9436 -0.3278
17895TIP3    H275101   5.799   0.927   5.836 -1.9379 -0.0381  0.8742
17896TIP3   OH275102   6.224   1.855   0.018 -0.1847  0.0081  0.0109
17896TIP3    H175103   6.132   1.834   0.002 -0.0713 -0.5602  0.0810
17896TIP3    H275104   6.260   1.777   0.061 -0.0358  0.8107  1.3962
17897TIP3   OH275105   4.851   3.905   1.013  0.0207 -0.0096 -0.0830
17897TIP3    H175106   4.800   3.945   1.084  0.8665  0.4166  0.3031
17897TIP3    H275107   4.875   3.979   0.957 -1.9416 -0.5213 -1.6988
17898TIP3   OH275108   6.730   1.559  12.014  0.0166 -0.2234  0.6672
17898TIP3    H175109   6.691   1.572  12.100  0.5485  3.0871  0.5224
17898TIP3    H275110   6.661   1.516  11.963 -1.1729 -0.0701  2.0740
17899TIP3   OH275111   2.158   0.557   4.984 -0.0575  0.3309  0.9452
17899TIP3    H175112   2.063   0.569   4.987  0.0409  2.2092 -0.9851
17899TIP3    H275113   2.191   0.608   5.057 -0.4709  0.6683  0.9011
17900TIP3   OH275114   5.927   4.450   5.038 -0.1942 -0.1035  0.1795
17900TIP3    H175115   5.936   4.372   5.093 -0.5032  1.0351  1.9368
17900TIP3    H275116   5.834   4.453   5.015 -0.0194 -0.7190 -0.6701
17901TIP3   OH275117   2.933   4.348  16.356  0.3823  0.3505  0.0164
17901TIP3    H175118   2.942   4.439  16.329  0.9356  1.2512  2.9081
17901TIP3    H275119   3.012   4.330  16.406  0.0562 -1.6005 -0.0916
17902TIP3   OH275120   3.656   5.009   4.339 -0.4285  0.0632 -0.3242
17902TIP3    H175121   3.660   4.931   4.396  0.1286  0.8221  0.7106
17902TIP3    H275122   3.664   4.973   4.250 -1.4123 -1.1610  0.0454
17903TIP3   OH275123   0.097   4.052   5.810  0.3504 -0.2701  0.3326
17903TIP3    H175124   0.016   4.018   5.847 -1.2326  0.4228 -2.2357
17903TIP3    H275125   0.124   3.987   5.745 -0.0081  0.9795 -1.1363
17904TIP3   OH275126   2.524   1.740  16.292 -0.5808  0.0489  0.9463
17904TIP3    H175127   2.437   1.713  16.263  0.1872  0.1882 -1.7328
17904TIP3    H275128   2.582   1.669  16.264  0.2955  0.3106  2.0141
17905TIP3   OH275129   3.817   5.466   2.295  0.7827 -0.6216  0.0651
17905TIP3    H175130   3.764   5.536   2.258 -0.7141 -2.5435 -1.6517
17905TIP3    H275131   3.784   5.455   2.384 -1.0568 -1.0887 -0.6314
17906TIP3   OH275132   2.813   6.014  12.816 -0.6878 -0.2868 -0.0193
17906TIP3    H175133   2.755   6.030  12.741 -0.3265  0.6008 -0.1160
17906TIP3    H275134   2.810   6.095  12.866 -1.8142 -1.2480  1.5573
17907TIP3   OH275135   5.216   4.810   2.677 -0.0214  0.4198 -0.7350
17907TIP3    H175136   5.290   4.788   2.734 -1.0399  1.5679  1.0907
17907TIP3    H275137   5.216   4.905   2.674 -0.1775  0.3996 -2.4837
17908TIP3   OH275138   3.817   4.805  15.244 -0.2364 -0.2302 -0.3233
17908TIP3    H175139   3.837   4.779  15.334 -0.0733  1.2767  0.0997
17908TIP3    H275140   3.900   4.842  15.212 -0.4822 -0.1518 -0.8666
17909TIP3   OH275141   6.361   5.549  15.151 -0.0515  0.2422  0.2396
17909TIP3    H175142   6.342   5.457  15.136 -0.3592  0.3344  0.0324
17909TIP3    H275143   6.285   5.595  15.115  0.3284  0.5995 -0.1248
17910TIP3   OH275144   0.305   2.621  14.146  0.7560 -0.0867  0.0267
17910TIP3    H175145   0.242   2.667  14.201  0.2531  0.4440 -0.9558
17910TIP3    H275146   0.373   2.686  14.128  1.4121 -0.5478  0.7879
17911TIP3   OH275147   2.504   5.021   5.098 -0.0207 -0.2760 -0.1486
17911TIP3    H175148   2.497   5.116   5.104 -0.4727 -0.1680 -1.8119
17911TIP3    H275149   2.598   5.004   5.088  0.1183 -0.0637  0.7308
17912TIP3   OH275150   5.787   6.727   0.120 -0.3979 -0.1656 -0.0991
17912TIP3    H175151   5.809   6.634   0.121  1.5830  0.2493  0.8818
17912TIP3    H275152   5.824   6.761   0.201  0.1366  1.7089 -1.0658
17913TIP3   OH275153   4.705   2.007   0.494 -0.3176  0.3858 -0.7100
17913TIP3    H175154   4.677   2.049   0.575 -0.4752  0.2344 -0.6831
17913TIP3    H275155   4.679   1.915   0.505  2.2220 -0.2962  0.2614
17914TIP3   OH275156   0.188   4.530   5.604  0.6334 -0.0610 -0.4462
17914TIP3    H175157   0.139   4.551   5.525  1.1472  0.1252 -0.7221
17914TIP3    H275158   0.161   4.441   5.626 -0.7338  0.4665  0.1055
17915TIP3   OH275159   2.798   1.213  15.543  0.1261  0.0768  0.3854
17915TIP3    H175160   2.783   1.279  15.476  0.4301  0.0607  0.3009
17915TIP3    H275161   2.879   1.241  15.586 -0.7512  0.8278  1.6198
17916TIP3   OH275162   5.547   3.669  11.084  0.0277  0.6116  0.0753
17916TIP3    H175163   5.479   3.709  11.029  0.8115  0.6995 -0.8607
17916TIP3    H275164   5.559   3.731  11.156  0.4317  1.5290 -0.7607
17917TIP3   OH275165   2.875   3.103   3.346  0.4050 -0.6427 -0.7741
17917TIP3    H175166   2.797   3.124   3.397  1.5930 -0.5725  1.0721
17917TIP3    H275167   2.888   3.009   3.361  1.6150 -0.3196  0.3154
17918TIP3   OH275168   5.438   6.645  12.355 -0.5502  0.5690  0.4989
17918TIP3    H175169   5.408   6.558  12.329  0.5963  0.3568 -0.2047
17918TIP3    H275170   5.533   6.640  12.348 -0.4993  2.9604 -3.4335
17919TIP3   OH275171   1.461   3.893  11.243  0.1208 -0.8473 -0.3213
17919TIP3    H175172   1.539   3.940  11.272 -0.0580 -0.6342 -0.1737
17919TIP3    H275173   1.491   3.805  11.222  0.0123 -1.5648  2.1087
17920TIP3   OH275174   6.503   5.051  14.536  0.2882 -0.1767 -0.6899
17920TIP3    H175175   6.518   5.079  14.626 -0.9487  1.3502 -0.9169
17920TIP3    H275176   6.409   5.035  14.531  0.9178 -5.6612 -0.3187
17921TIP3   OH275177   1.368   2.840   3.284  0.3605 -0.6531  0.3292
17921TIP3    H175178   1.376   2.772   3.217  0.2578  1.1859 -1.6762
17921TIP3    H275179   1.403   2.918   3.242 -1.2902  0.9795  1.8304
17922TIP3   OH275180   1.767   4.132  16.969 -0.7025  0.3055  0.2495
17922TIP3    H175181   1.678   4.098  16.979 -0.6991  0.5281  1.1357
17922TIP3    H275182   1.824   4.056  16.978 -0.8250 -0.0401 -1.5065
17923TIP3   OH275183   5.171   0.958  11.042 -0.1537  0.3861 -0.3999
17923TIP3    H175184   5.198   1.044  11.009 -2.4145  0.6885 -1.7127
17923TIP3    H275185   5.219   0.895  10.988 -1.3323  0.8929 -2.1363
17924TIP3   OH275186   0.558   2.421   3.678  0.0891 -0.1388  0.0715
17924TIP3    H175187   0.471   2.461   3.675  1.4219  2.9290 -1.8364
17924TIP3    H275188   0.560   2.364   3.601  1.1461  3.4032 -2.8059
17925TIP3   OH275189   6.716   2.698  13.865  0.2943 -0.0467  0.1933
17925TIP3    H175190   6.719   2.734  13.954  0.4515 -0.1888  0.2453
17925TIP3    H275191   6.696   2.773  13.810  0.1084  0.0254  0.3598
17926TIP3   OH275192   0.017   4.360  12.086  0.2678  0.2916  1.0233
17926TIP3    H175193   0.033   4.353  11.992  2.9145 -1.7350  1.4945
17926TIP3    H275194   0.067   4.438  12.113  0.4452  0.2246  0.8932
17927TIP3   OH275195   1.437   1.560   0.205 -0.0050  0.4399  0.3677
17927TIP3    H175196   1.364   1.617   0.178  0.3630  2.0872  2.5707
17927TIP3    H275197   1.445   1.574   0.299  1.7776 -1.3907  0.5650
17928TIP3   OH275198   4.376   5.239   0.078 -0.1984  0.5204 -0.2061
17928TIP3    H175199   4.444   5.276   0.134 -0.1458 -1.0432  0.8002
17928TIP3    H275200   4.302   5.299   0.088 -0.0692  0.4595  1.2690
17929TIP3   OH275201   1.648   3.369  15.070 -0.1518  0.0957 -0.0492
17929TIP3    H175202   1.591   3.373  15.147 -0.1703 -0.5247 -0.0270
17929TIP3    H275203   1.711   3.299  15.091  1.7861  1.9347  0.7289
17930TIP3   OH275204   5.358   6.489   0.076  0.0233  0.5927 -0.0792
17930TIP3    H175205   5.311   6.531   0.004  0.1828  0.0519 -0.5027
17930TIP3    H275206   5.327   6.399   0.075  0.6890  0.3618 -0.0372
17931TIP3   OH275207   6.155   2.877  13.410  0.2573 -0.4062 -0.6565
17931TIP3    H175208   6.155   2.927  13.492  0.4196 -1.2243 -0.1543
17931TIP3    H275209   6.247   2.854  13.396  0.1198 -0.9853 -0.6216
17932TIP3   OH275210   3.552   1.683   3.833 -0.0660  0.6359  0.9218
17932TIP3    H175211   3.568   1.699   3.740 -0.6481  0.7646  0.8401
17932TIP3    H275212   3.636   1.699   3.875 -0.2699  2.5567  0.6716
17933TIP3   OH275213   5.951   1.074  11.763 -0.5343  0.1100  0.1389
17933TIP3    H175214   5.880   1.078  11.826 -1.1553 -0.4678 -0.5106
17933TIP3    H275215   6.031   1.077  11.816 -1.0434 -1.0209  0.9923
17934TIP3   OH275216   1.199   0.734  17.187  0.3400 -0.1173 -0.0423
17934TIP3    H175217   1.127   0.681  17.156  2.2532 -1.5396 -2.3469
17934TIP3    H275218   1.237   0.684  17.259  1.1199 -1.1095 -1.1200
17935TIP3   OH275219   1.879   4.095  13.833  0.6009  0.4513 -0.2820
17935TIP3    H175220   1.954   4.091  13.893  1.6400  1.1414 -1.4714
17935TIP3    H275221   1.919   4.103  13.746 -0.8452  1.9860 -0.8616
17936TIP3   OH275222   4.173   6.302  15.809  0.0785 -1.0377  0.1083
17936TIP3    H175223   4.258   6.258  15.802  0.9273  0.2805  1.3538
17936TIP3    H275224   4.115   6.254  15.750  1.7235 -1.9019 -0.8698
17937TIP3   OH275225   1.412   2.878  11.998  0.5263 -0.3714  0.2591
17937TIP3    H175226   1.422   2.845  12.087  0.8598 -1.2908 -0.1036
17937TIP3    H275227   1.352   2.952  12.006  1.3254  0.1774  1.3762
17938TIP3   OH275228   4.446   1.492   6.172  0.0722  0.2366 -0.1374
17938TIP3    H175229   4.378   1.523   6.231 -1.3155  0.9415 -2.0228
17938TIP3    H275230   4.450   1.397   6.188 -2.2009 -0.0216 -0.7578
17939TIP3   OH275231   6.121   0.550   2.170 -0.3305 -0.2802 -0.7025
17939TIP3    H175232   6.191   0.537   2.106 -0.5345  3.0874 -1.7951
17939TIP3    H275233   6.163   0.539   2.255  0.8876 -0.8360 -1.3516
17940TIP3   OH275234   5.643   6.707  12.087  0.9507  0.3446 -0.1081
17940TIP3    H175235   5.685   6.624  12.061 -2.1815 -0.7520 -2.2983
17940TIP3    H275236   5.638   6.757  12.006 -1.6797  0.4603  0.0571
17941TIP3   OH275237   0.214   6.475   2.390 -0.0213  0.6691 -0.5305
17941TIP3    H175238   0.270   6.553   2.389  0.8797  0.0409 -0.2312
17941TIP3    H275239   0.269   6.407   2.428 -0.6681 -0.2149 -1.1545
17942TIP3   OH275240   1.665   2.723   2.005  0.5049  0.5500 -0.4223
17942TIP3    H175241   1.706   2.642   1.973 -1.6771 -0.7299 -0.2553
17942TIP3    H275242   1.631   2.700   2.092 -0.2280  1.6056 -0.4064
17943TIP3   OH275243   4.011   3.051  15.733 -0.0193  0.0043 -1.3510
17943TIP3    H175244   4.082   3.011  15.683  1.2514 -0.6161  0.8165
17943TIP3    H275245   3.970   2.978  15.780  0.9642  0.8513  0.9996
17944TIP3   OH275246   5.630   0.815   4.159  0.4689  0.2543 -0.1622
17944TIP3    H175247   5.659   0.854   4.077 -0.5444  1.3406 -0.0339
17944TIP3    H275248   5.669   0.870   4.227  0.2680  0.1299  0.0573
17945TIP3   OH275249   2.078   1.494  13.237 -0.5572  0.3094 -0.1052
17945TIP3    H175250   1.999   1.539  13.265 -0.1041 -0.4584  2.7247
17945TIP3    H275251   2.149   1.557  13.252 -0.3534  0.0527  0.0368
17946TIP3   OH275252   2.396   6.685   0.631  0.3007  0.2544 -0.0518
17946TIP3    H175253   2.469   6.639   0.589  0.8819 -0.9387  2.0965
17946TIP3    H275254   2.319   6.631   0.610  1.0957 -2.5127  3.1894
17947TIP3   OH275255   4.414   2.563   4.104 -0.0041  0.0603 -0.3494
17947TIP3    H175256   4.445   2.648   4.134 -1.0937  0.9564 -1.6410
17947TIP3    H275257   4.364   2.582   4.025  0.3388 -1.8651 -1.0935
17948TIP3   OH275258   0.610   6.375   1.217 -0.5354  0.2087 -0.0823
17948TIP3    H175259   0.579   6.285   1.206 -1.5033  0.4402  0.5831
17948TIP3    H275260   0.619   6.386   1.312 -0.0394  0.6866 -0.1813
17949TIP3   OH275261   6.137   5.725  15.119  0.2419 -0.2661 -0.0446
17949TIP3    H175262   6.160   5.810  15.080  1.7358  0.6865  2.6920
17949TIP3    H275263   6.045   5.734  15.143 -0.3607 -0.4344 -2.0680
17950TIP3   OH275264   4.735   4.840  14.777 -0.4045  0.0607 -0.1812
17950TIP3    H175265   4.680   4.889  14.715  0.0417  1.0302  0.1678
17950TIP3    H275266   4.695   4.856  14.862 -0.6199 -0.7152 -0.1300
17951TIP3   OH275267   1.966   4.892   3.568 -0.0190  0.1812  0.0857
17951TIP3    H175268   2.037   4.954   3.586 -0.1279  0.4514 -0.4106
17951TIP3    H275269   2.009   4.819   3.525  0.1355 -0.1691  0.8159
17952TIP3   OH275270   1.014   3.590   4.102  0.2089  0.0348 -0.7810
17952TIP3    H175271   1.029   3.576   4.009 -2.1278  1.1319 -1.4087
17952TIP3    H275272   1.033   3.506   4.143 -1.8193 -1.4691 -2.7055
17953TIP3   OH275273   6.310   5.976   5.759 -0.0202 -0.5343 -0.1349
17953TIP3    H175274   6.321   5.978   5.664 -2.1656  2.7721 -0.4924
17953TIP3    H275275   6.398   5.957   5.793  1.2554  0.2013 -2.7445
17954TIP3   OH275276   2.838   5.522  11.211 -0.1728 -0.2788 -0.6790
17954TIP3    H175277   2.818   5.585  11.142 -0.7870 -0.7491 -0.9458
17954TIP3    H275278   2.845   5.438  11.166  1.5833 -0.2802 -0.4648
17955TIP3   OH275279   6.372   0.478   4.623  0.0366 -0.2848 -0.2960
17955TIP3    H175280   6.426   0.492   4.545  1.7032  0.4310  0.9408
17955TIP3    H275281   6.423   0.515   4.695 -2.4493  1.1024  0.8571
17956TIP3   OH275282   0.609   2.775   5.187 -0.3579  0.1926 -0.5697
17956TIP3    H175283   0.631   2.727   5.267  1.0635  0.6049 -0.6795
17956TIP3    H275284   0.636   2.717   5.116  2.5682  1.5447 -0.7088
17957TIP3   OH275285   6.465   0.666   2.192 -0.1911 -0.4769 -0.4724
17957TIP3    H175286   6.551   0.640   2.160 -0.6653 -1.7718 -0.7697
17957TIP3    H275287   6.414   0.683   2.113 -1.0636 -2.6668 -0.4439
17958TIP3   OH275288   3.440   3.936   3.970 -0.3485  0.0967  0.1971
17958TIP3    H175289   3.512   3.973   3.918  1.1039 -1.2661  1.1550
17958TIP3    H275290   3.407   3.863   3.917 -1.1124  0.7477 -0.2626
17959TIP3   OH275291   0.822   2.430  16.250 -0.2704 -0.2607  0.7445
17959TIP3    H175292   0.897   2.452  16.196 -1.1364  0.6045 -0.1449
17959TIP3    H275293   0.860   2.390  16.329  1.1349  0.5846  0.5301
17960TIP3   OH275294   5.122   5.018   3.954 -0.0007 -0.4437  0.2945
17960TIP3    H175295   5.112   5.113   3.954  1.4280 -0.2765  0.3752
17960TIP3    H275296   5.183   5.000   3.882  0.2185 -1.2423  0.6670
17961TIP3   OH275297   6.221   2.994   3.022 -0.5035  0.6928 -0.4924
17961TIP3    H175298   6.292   2.945   3.063  0.5569  1.7716 -0.9825
17961TIP3    H275299   6.252   3.085   3.021 -2.3668  1.4090  0.3260
17962TIP3   OH275300   4.417   5.613  16.516  0.1271  0.2329  0.4426
17962TIP3    H175301   4.481   5.546  16.538 -0.4019 -0.0354  1.1918
17962TIP3    H275302   4.356   5.570  16.456  0.0923  0.1988  0.5030
17963TIP3   OH275303   0.944   0.840   4.092  0.1172  0.3538  0.2355
17963TIP3    H175304   0.926   0.792   4.011  2.3064  0.6861 -0.5315
17963TIP3    H275305   0.943   0.932   4.067  0.4286  0.4742  0.6471
17964TIP3   OH275306   1.767   3.120   0.039  0.4465  0.1155 -0.3974
17964TIP3    H175307   1.804   3.206   0.020 -1.8195  0.8869 -1.7510
17964TIP3    H275308   1.745   3.123   0.132  0.6514  0.8728 -0.3680
17965TIP3   OH275309   5.087   6.299  16.921 -0.6701  0.0935 -0.9171
17965TIP3    H175310   5.149   6.371  16.927 -0.6695 -0.0016  0.2867
17965TIP3    H275311   5.130   6.235  16.865  0.4420 -0.0844  0.1093
17966TIP3   OH275312   1.653   5.670  13.502 -0.0755 -0.4093 -0.5426
17966TIP3    H175313   1.664   5.628  13.587 -2.0135 -0.3031 -0.1925
17966TIP3    H275314   1.571   5.634  13.467 -0.2199  0.8205 -1.5777
17967TIP3   OH275315   6.546   5.008  15.264  0.1961 -0.0431  0.3087
17967TIP3    H175316   6.460   5.047  15.280  0.1084  0.5601 -1.4070
17967TIP3    H275317   6.578   5.053  15.185  2.3781  0.2327  1.2746
17968TIP3   OH275318   1.204   2.906  11.304 -0.0791 -0.4367 -0.8508
17968TIP3    H175319   1.296   2.927  11.319 -0.3109 -1.0747  2.1524
17968TIP3    H275320   1.206   2.842  11.233  1.5668  0.9859 -2.1884
17969TIP3   OH275321   6.708   1.909   4.959 -0.3921  0.3791 -0.5745
17969TIP3    H175322   6.735   1.942   4.873  0.5247 -1.0655 -0.8804
17969TIP3    H275323   6.729   1.980   5.020 -1.1516  1.4631 -1.5369
17970TIP3   OH275324   3.415   3.541   2.505  0.1956  0.3161 -0.1257
17970TIP3    H175325   3.357   3.474   2.469 -2.2818  1.1951  1.9902
17970TIP3    H275326   3.492   3.492   2.535 -0.6788 -1.2984 -0.3961
17971TIP3   OH275327   5.124   0.058  15.581 -0.2235 -0.1794  0.1557
17971TIP3    H175328   5.050   0.078  15.638  0.9806  0.6524  1.4922
17971TIP3    H275329   5.087   0.056  15.493 -1.5180  2.0270  0.5988
17972TIP3   OH275330   3.194   1.240   5.968 -0.1369 -0.0659 -0.1487
17972TIP3    H175331   3.241   1.219   6.048  0.0560  0.5179 -0.1047
17972TIP3    H275332   3.224   1.176   5.904 -1.5275 -1.6043  0.6726
17973TIP3   OH275333   1.730   1.175  13.171 -0.1411 -0.0868 -0.0432
17973TIP3    H175334   1.705   1.172  13.263 -0.2058  0.7750 -0.0245
17973TIP3    H275335   1.651   1.148  13.124 -1.1487  2.4370  0.0242
17974TIP3   OH275336   5.275   2.590   5.034 -0.3865  0.5493  0.5685
17974TIP3    H175337   5.192   2.587   5.082 -1.9454  0.9222 -1.9614
17974TIP3    H275338   5.259   2.650   4.961  2.6174  1.8383  0.8222
17975TIP3   OH275339   2.063   2.481   0.729  0.2703 -0.1845  0.4805
17975TIP3    H175340   2.116   2.520   0.659  0.0757  2.2712  1.5785
17975TIP3    H275341   2.025   2.557   0.774 -1.6516 -1.7709  1.6726
17976TIP3   OH275342   5.350   4.675  17.113 -0.3505  0.5853 -0.5859
17976TIP3    H175343   5.273   4.643  17.066 -0.3878 -1.0207  0.5095
17976TIP3    H275344   5.339   4.643  17.203  0.5144  2.2101  0.1529
17977TIP3   OH275345   1.998   1.475  11.305  0.8180  0.1899  0.4331
17977TIP3    H175346   1.996   1.569  11.323  1.8265  0.5512 -1.1096
17977TIP3    H275347   2.058   1.440  11.371 -0.6152  0.3866  1.8765
17978TIP3   OH275348   3.570   6.006   2.196  0.2228 -0.0905 -0.6972
17978TIP3    H175349   3.556   6.076   2.260  1.1061  0.4475 -1.0656
17978TIP3    H275350   3.664   5.990   2.200  0.2547 -0.1880 -1.7205
17979TIP3   OH275351   5.850   0.191  12.048  0.2180  0.3960 -0.0196
17979TIP3    H175352   5.881   0.262  12.104 -0.1174 -0.4255  1.2376
17979TIP3    H275353   5.805   0.236  11.976  1.9486  1.5163 -0.4603
17980TIP3   OH275354   5.197   1.477   1.687 -0.0572 -0.0799  0.3167
17980TIP3    H175355   5.231   1.389   1.673 -1.8098 -1.0502  1.7925
17980TIP3    H275356   5.102   1.467   1.687 -0.2922  1.4491  2.4158
17981TIP3   OH275357   4.171   1.764   5.530  0.4074 -0.1199 -0.3371
17981TIP3    H175358   4.169   1.842   5.585  0.8892 -1.6125  1.9192
17981TIP3    H275359   4.255   1.722   5.551  0.3454 -1.0619 -1.8109
17982TIP3   OH275360   6.602   3.917  11.595 -0.4190 -0.3865  0.2189
17982TIP3    H175361   6.524   3.873  11.629 -1.2032  0.8038  0.0252
17982TIP3    H275362   6.568   3.984  11.536  0.6774  0.9005  0.9790
17983TIP3   OH275363   3.447   1.235   2.753 -0.7199  0.1494 -0.8185
17983TIP3    H175364   3.491   1.311   2.716  0.3389  0.1087  0.2879
17983TIP3    H275365   3.444   1.172   2.682  2.0012 -0.2392 -0.6775
17984TIP3   OH275366   3.266   3.019  11.402 -0.2567  0.0248  0.8534
17984TIP3    H175367   3.355   2.991  11.379  0.5026  2.4942  0.5356
17984TIP3    H275368   3.213   2.990  11.327  0.9192  1.5408 -0.6478
17985TIP3   OH275369   2.211   3.223   2.809 -0.4067 -0.1799 -0.2853
17985TIP3    H175370   2.230   3.219   2.903  0.3429  1.4077 -0.3379
17985TIP3    H275371   2.211   3.316   2.788 -0.6867 -0.5015 -1.8424
17986TIP3   OH275372   5.936   3.965  14.520 -0.9461 -0.3200  0.0422
17986TIP3    H175373   5.880   4.037  14.549  0.1930  0.5086  0.2521
17986TIP3    H275374   5.980   3.935  14.599  0.3194  0.3102 -0.3954
17987TIP3   OH275375   3.148   6.006   2.830  0.1630 -0.1005  0.5340
17987TIP3    H175376   3.243   5.999   2.819  0.5815 -2.0243  3.9511
17987TIP3    H275377   3.132   6.099   2.845  1.6059  0.1500  0.6701
17988TIP3   OH275378   4.416   3.503  13.675 -0.0516 -0.0409 -0.6268
17988TIP3    H175379   4.466   3.432  13.715  1.3380  0.6685 -1.0378
17988TIP3    H275380   4.334   3.463  13.648 -0.5308 -0.8035  1.8073
17989TIP3   OH275381   5.023   3.621  16.769 -0.4171 -0.5706 -0.2951
17989TIP3    H175382   5.035   3.605  16.863 -0.6652 -1.2364 -0.3708
17989TIP3    H275383   5.059   3.543  16.727  0.6919  0.2021 -0.8111
17990TIP3   OH275384   1.779   4.238  13.169  0.7573 -0.1821  0.3503
17990TIP3    H175385   1.746   4.258  13.256  1.6481 -0.0066  0.6553
17990TIP3    H275386   1.773   4.143  13.162  1.2434 -0.2571  0.8430
17991TIP3   OH275387   3.578   1.334  12.852  0.4471  0.4967  0.1748
17991TIP3    H175388   3.497   1.284  12.841  2.2050 -2.6823  0.4129
17991TIP3    H275389   3.609   1.350  12.763 -0.0836  1.1692  0.1005
17992TIP3   OH275390   1.458   1.130   0.947 -0.0684 -0.3091  0.4560
17992TIP3    H175391   1.365   1.153   0.944 -0.1639 -0.4481  1.9681
17992TIP3    H275392   1.471   1.092   1.034  1.3741 -0.4427  0.2018
17993TIP3   OH275393   3.951   0.304  14.217  0.6381 -0.0797  0.1078
17993TIP3    H175394   4.007   0.284  14.142 -0.2782  0.6502 -0.8068
17993TIP3    H275395   3.970   0.235  14.281  0.3408 -1.6260 -1.3973
17994TIP3   OH275396   3.529   0.187   3.491  0.4974 -0.4334 -0.4987
17994TIP3    H175397   3.615   0.228   3.492  0.2491  0.1309 -1.2950
17994TIP3    H275398   3.491   0.214   3.408 -0.5676 -0.4414 -0.0254
17995TIP3   OH275399   2.367   2.610  13.450  0.7222 -0.0076  0.1351
17995TIP3    H175400   2.434   2.548  13.421 -0.5991 -2.1389  1.3625
17995TIP3    H275401   2.378   2.614  13.545 -0.4600  0.1006  0.2846
17996TIP3   OH275402   0.868   3.752   0.046  0.2807 -0.3592  0.0552
17996TIP3    H175403   0.933   3.682   0.056  3.0960  2.2017  1.4182
17996TIP3    H275404   0.838   3.769   0.135 -0.1895  0.2979 -0.2237
17997TIP3   OH275405   0.761   0.966  15.365 -0.3899  0.0519  0.1410
17997TIP3    H175406   0.822   0.930  15.429 -1.2766  1.6384  1.9995
17997TIP3    H275407   0.683   0.911  15.372  0.0069 -0.6397 -0.6539
17998TIP3   OH275408   6.421   4.942   3.534 -1.1095  0.4626 -0.1508
17998TIP3    H175409   6.516   4.952   3.530 -0.9517 -0.5365  0.7317
17998TIP3    H275410   6.397   4.975   3.620 -1.6710  1.3978 -0.6542
17999TIP3   OH275411   0.781   0.700  12.199  0.5118  0.2359 -0.1742
17999TIP3    H175412   0.832   0.735  12.272  0.0156  1.4560 -0.3887
17999TIP3    H275413   0.847   0.663  12.140  0.8354 -2.2484  1.5804
18000TIP3   OH275414   0.685   6.222  13.175 -0.7734  0.2555  0.0465
18000TIP3    H175415   0.738   6.302  13.177 -0.9010  0.3300  0.5592
18000TIP3    H275416   0.616   6.237  13.239 -0.7216 -0.3190  0.2457
18001TIP3   OH275417   4.317   4.599  12.170  0.2591  0.4848  0.1815
18001TIP3    H175418   4.338   4.650  12.092 -2.3577  1.2286 -0.1286
18001TIP3    H275419   4.337   4.508  12.146  1.0258  0.8796 -0.7288
18002TIP3   OH275420   0.309   1.064  16.400 -0.1674  0.1778  0.2434
18002TIP3    H175421   0.337   1.079  16.490 -1.5196  1.0055  0.5598
18002TIP3    H275422   0.276   0.974  16.401 -0.1847  0.1848  0.5788
18003TIP3   OH275423   2.956   6.580   1.102 -0.0628  0.0032  0.1043
18003TIP3    H175424   2.882   6.578   1.042 -0.3954 -1.0116  0.5158
18003TIP3    H275425   3.030   6.547   1.051  0.7589  3.2158 -1.0455
18004TIP3   OH275426   5.129   4.228   0.323 -0.0375 -0.5466 -0.3556
18004TIP3    H175427   5.036   4.219   0.343  0.3757 -2.5317  1.0299
18004TIP3    H275428   5.148   4.158   0.261  0.3094  0.6592 -1.6640
18005TIP3   OH275429   4.229   0.989   3.161 -0.2268  0.2375 -0.6997
18005TIP3    H175430   4.282   0.912   3.137  0.4551  0.1015  1.0902
18005TIP3    H275431   4.289   1.063   3.151  0.2026  0.1370  0.8380
18006TIP3   OH275432   6.114   2.860   5.630 -0.5850 -0.2967  0.4139
18006TIP3    H175433   6.168   2.937   5.643 -1.8080  0.6066  0.3459
18006TIP3    H275434   6.083   2.867   5.540 -0.2572 -1.1787  0.2209
18007TIP3   OH275435   0.349   5.213   2.420  0.0224 -0.4014  0.1231
18007TIP3    H175436   0.433   5.240   2.456 -0.0413  0.0922 -0.0955
18007TIP3    H275437   0.312   5.292   2.382 -0.7273 -0.5308  0.5734
18008TIP3   OH275438   0.225   4.874   2.881 -0.2256  0.0488  0.2080
18008TIP3    H175439   0.246   4.937   2.812 -0.3777  0.1376  0.2429
18008TIP3    H275440   0.307   4.826   2.895  0.1842  0.9022  0.8751
18009TIP3   OH275441   6.528   0.339   0.258 -0.3046  0.1583 -0.5401
18009TIP3    H175442   6.454   0.383   0.300  0.9567  1.8865 -0.0010
18009TIP3    H275443   6.558   0.275   0.323 -1.6845 -1.0215 -1.0208
18010TIP3   OH275444   6.074   1.342  10.903 -0.3206  0.2155 -0.4710
18010TIP3    H175445   6.024   1.416  10.870  0.3084  0.5164 -0.7595
18010TIP3    H275446   6.080   1.357  10.997 -2.4505 -0.8435 -0.1052
18011TIP3   OH275447   1.119   5.795  12.924 -0.2212  0.1026 -0.3581
18011TIP3    H175448   1.034   5.820  12.888 -0.2267 -0.6216 -0.8749
18011TIP3    H275449   1.131   5.704  12.896 -0.2506 -0.5293  1.5119
18012TIP3   OH275450   6.148   4.932  16.666  0.1088 -0.1774 -0.2034
18012TIP3    H175451   6.075   4.994  16.657  0.3861  0.0535 -0.8617
18012TIP3    H275452   6.130   4.864  16.602 -1.0068 -1.6293  1.5276
18013TIP3   OH275453   2.625   1.562   0.845 -0.2074  0.2703 -0.2764
18013TIP3    H175454   2.692   1.553   0.913  1.8968  1.3449 -2.0663
18013TIP3    H275455   2.610   1.472   0.815 -0.5786 -0.1302  1.0198
18014TIP3   OH275456   3.376   4.678   2.351 -0.3389 -0.4452 -0.2468
18014TIP3    H175457   3.345   4.683   2.261 -2.6249  1.9217  0.5347
18014TIP3    H275458   3.317   4.616   2.394 -3.7317  3.2145  0.9704
18015TIP3   OH275459   3.424   4.719   0.344 -0.4285  0.2717  0.6573
18015TIP3    H175460   3.501   4.670   0.373 -1.8130 -1.5055  1.4521
18015TIP3    H275461   3.425   4.798   0.397  0.8989  0.3438  0.5686
18016TIP3   OH275462   4.225   3.472  11.350  0.8588 -0.0815 -0.1256
18016TIP3    H175463   4.180   3.391  11.325 -1.3641  1.2922 -0.8971
18016TIP3    H275464   4.283   3.446  11.421 -2.1004 -1.8274  1.8533
18017TIP3   OH275465   4.853   5.408  16.014  0.4733  0.2190 -0.3300
18017TIP3    H175466   4.862   5.342  15.944 -0.7246 -1.1227  0.7141
18017TIP3    H275467   4.768   5.448  15.998  1.3818  1.9236 -1.2223
18018TIP3   OH275468   2.185   2.601   0.358 -0.2970 -0.0160 -0.5509
18018TIP3    H175469   2.236   2.664   0.308 -0.5534  0.5046 -0.1704
18018TIP3    H275470   2.186   2.521   0.305  0.4896  0.1397 -0.7736
18019TIP3   OH275471   1.768   5.916  12.036 -0.0507  0.3981  0.1989
18019TIP3    H175472   1.773   5.981  12.106  0.8780 -0.4856  0.9780
18019TIP3    H275473   1.857   5.909  12.003  0.3808 -2.0340  1.6145
18020TIP3   OH275474   6.505   4.334  12.206 -0.3121 -0.0516 -0.1512
18020TIP3    H175475   6.589   4.355  12.166 -0.0840 -3.2062 -1.6695
18020TIP3    H275476   6.467   4.267  12.149 -2.8082 -0.4205  1.7410
18021TIP3   OH275477   0.165   5.194   0.684  0.4369  0.3871 -0.2490
18021TIP3    H175478   0.154   5.195   0.779  0.2041 -0.7810 -0.2405
18021TIP3    H275479   0.169   5.286   0.659 -0.0888  0.7247  0.8263
18022TIP3   OH275480   3.834   6.740  15.895 -0.1332  0.3749 -0.1631
18022TIP3    H175481   3.745   6.763  15.867 -0.4628  0.2398  0.7343
18022TIP3    H275482   3.855   6.804  15.963  0.2410  0.0676  0.0139
18023TIP3   OH275483   5.186   1.306  12.596  0.1587 -0.0763  0.3360
18023TIP3    H175484   5.228   1.387  12.626  0.8894  0.3169 -1.6037
18023TIP3    H275485   5.101   1.334  12.564 -1.1221 -0.6684  2.9403
18024TIP3   OH275486   1.875   0.361   6.312  0.0880  0.0706  0.6714
18024TIP3    H175487   1.902   0.452   6.326 -2.0398  0.4987  2.5404
18024TIP3    H275488   1.929   0.311   6.373 -1.2540  0.5955  2.3842
18025TIP3   OH275489   5.190   1.568   0.061  0.0299  0.0200 -0.0742
18025TIP3    H175490   5.149   1.641   0.016  0.3023  0.7876  0.8940
18025TIP3    H275491   5.144   1.562   0.145  0.7283 -0.2268  0.2996
18026TIP3   OH275492   1.515   6.495  15.471 -0.5237 -0.3808 -0.1203
18026TIP3    H175493   1.468   6.535  15.544 -0.7638  2.3651 -1.6241
18026TIP3    H275494   1.449   6.445  15.424 -0.9590 -0.0349  0.1170
18027TIP3   OH275495   4.130   2.380  13.259  0.2682 -0.0315 -0.5199
18027TIP3    H175496   4.068   2.443  13.220  1.2054  1.4720  0.3153
18027TIP3    H275497   4.146   2.414  13.347  0.3767 -1.7897  0.1786
18028TIP3   OH275498   4.552   4.843   3.570 -0.0967 -0.2862 -0.0903
18028TIP3    H175499   4.543   4.752   3.598 -1.6462 -0.0185  0.3968
18028TIP3    H275500   4.467   4.865   3.532 -0.1824  1.2933  0.9019
18029TIP3   OH275501   1.462   3.664   3.243  0.2098 -0.5505 -0.5054
18029TIP3    H175502   1.394   3.658   3.177  0.4380 -1.7500 -0.6581
18029TIP3    H275503   1.437   3.600   3.310  0.4252  0.0442  0.1704
18030TIP3   OH275504   3.026   0.938   2.019  0.1772  0.2541 -0.2607
18030TIP3    H175505   2.943   0.960   2.062 -0.3383  0.1126 -1.1517
18030TIP3    H275506   3.032   0.999   1.946  2.3877  2.3577  1.5095
18031TIP3   OH275507   3.686   5.411   6.183  0.3993  0.5596  0.3590
18031TIP3    H175508   3.745   5.339   6.161  0.5136  0.4611  0.9695
18031TIP3    H275509   3.743   5.488   6.190  0.0068  1.2046 -2.5020
18032TIP3   OH275510   3.827   0.936   5.510  0.0168 -0.5377 -0.2081
18032TIP3    H175511   3.774   1.015   5.505  1.4008  0.5387  1.2584
18032TIP3    H275512   3.816   0.904   5.599  1.0499 -0.8410 -0.1703
18033TIP3   OH275513   3.290   6.662   5.717 -0.2855 -0.4371  0.1192
18033TIP3    H175514   3.286   6.680   5.811  0.7819 -0.3616  0.1563
18033TIP3    H275515   3.300   6.567   5.712  1.3765 -0.2819  0.1462
18034TIP3   OH275516   2.043   0.767  12.786  0.0184 -0.1674  0.2124
18034TIP3    H175517   2.054   0.700  12.854 -2.9239  0.1755  1.1873
18034TIP3    H275518   2.017   0.845  12.834 -2.4623  0.0055 -1.2283
18035TIP3   OH275519   0.432   3.229   1.956 -0.0667  0.1854  0.0974
18035TIP3    H175520   0.508   3.243   2.013  0.1166 -0.8356  0.1228
18035TIP3    H275521   0.365   3.289   1.990  0.2711  0.0930  0.9496
18036TIP3   OH275522   0.257   1.832   3.438  0.0237 -0.0237  0.2074
18036TIP3    H175523   0.294   1.852   3.352 -1.3826  3.4852  0.2439
18036TIP3    H275524   0.167   1.806   3.420 -0.1034  0.1513  0.5903
18037TIP3   OH275525   4.413   4.492   4.014  0.0149  0.2580  0.7183
18037TIP3    H175526   4.473   4.419   3.998  0.9538  0.6802  2.1107
18037TIP3    H275527   4.336   4.451   4.054 -0.2524 -0.1720 -0.2061
18038TIP3   OH275528   0.699   4.519  13.540 -0.1315 -0.4610  0.1829
18038TIP3    H175529   0.620   4.563  13.570  1.0219  1.1878  0.9770
18038TIP3    H275530   0.741   4.582  13.480  2.1765  0.1421  2.2679
18039TIP3   OH275531   5.374   5.330  16.964  0.0705  0.6788  0.3318
18039TIP3    H175532   5.366   5.423  16.940  2.2230  0.7538 -0.2786
18039TIP3    H275533   5.438   5.330  17.035  1.0425 -0.4503 -0.5275
18040TIP3   OH275534   0.482   4.013   3.275 -0.0547  0.2547  0.1313
18040TIP3    H175535   0.522   4.060   3.348 -1.3283 -0.7007  1.4980
18040TIP3    H275536   0.455   4.081   3.213  1.2245  1.0623  0.4276
18041TIP3   OH275537   1.007   1.481   4.340  0.4769 -0.3777  0.0022
18041TIP3    H175538   1.037   1.570   4.361 -0.9077 -0.1768  1.2973
18041TIP3    H275539   0.936   1.465   4.401  0.4214 -2.2430 -0.5001
18042TIP3   OH275540   4.954   4.668  16.756  0.5169  0.0059 -0.3102
18042TIP3    H175541   4.931   4.579  16.785  1.0961 -0.7791 -2.1466
18042TIP3    H275542   4.870   4.712  16.748  0.2624 -0.1293  1.2982
18043TIP3   OH275543   6.637   2.423  14.602  0.6768 -0.2501 -0.5599
18043TIP3    H175544   6.717   2.392  14.561  1.7771 -0.2616  1.4881
18043TIP3    H275545   6.592   2.344  14.631  0.0073 -0.2281 -1.4621
18044TIP3   OH275546   1.442   1.380   6.384  0.0193  0.1158 -0.1436
18044TIP3    H175547   1.533   1.404   6.365 -0.0573  2.1521  1.7167
18044TIP3    H275548   1.398   1.384   6.299  1.1369  1.7041 -0.6898
18045TIP3   OH275549   4.173   0.757  15.172 -0.3468 -0.1884  0.0362
18045TIP3    H175550   4.101   0.725  15.227 -0.8011  0.4606 -0.1744
18045TIP3    H275551   4.196   0.842  15.210  0.3216 -0.3881  0.1027
18046TIP3   OH275552   1.988   5.044  11.488  0.2554  0.3189  0.0171
18046TIP3    H175553   1.904   5.089  11.491 -0.5345 -1.1129  0.4955
18046TIP3    H275554   2.044   5.093  11.548 -0.0652  1.5987 -0.7117
18047TIP3   OH275555   0.314   0.426  15.559 -0.1705  0.0895 -0.6171
18047TIP3    H175556   0.388   0.452  15.613 -2.0238 -1.2652  2.9654
18047TIP3    H275557   0.248   0.396  15.622 -3.2880 -0.0390 -3.6218
18048TIP3   OH275558   0.335   4.098   0.829 -0.0723  0.1002 -0.3771
18048TIP3    H175559   0.348   4.011   0.868 -0.7601 -0.6572 -1.7556
18048TIP3    H275560   0.257   4.132   0.872  1.1762  0.8355  1.4401
18049TIP3   OH275561   0.274   6.426  16.334  0.2074  0.6313  0.0685
18049TIP3    H175562   0.353   6.421  16.281  0.1859  0.4763  0.0488
18049TIP3    H275563   0.273   6.515  16.369 -0.0214  0.8826 -0.5702
18050TIP3   OH275564   4.865   3.887  13.514 -0.0917  0.7177 -0.1574
18050TIP3    H175565   4.924   3.933  13.574 -1.0895  1.9627 -0.1030
18050TIP3    H275566   4.899   3.908  13.427  0.6279 -0.0830 -0.0775
18051TIP3   OH275567   4.411   6.167  15.826  0.3256 -0.5615 -0.4701
18051TIP3    H175568   4.466   6.210  15.891  1.1072 -0.3620 -1.2608
18051TIP3    H275569   4.447   6.193  15.742  0.1632 -1.9098 -0.9807
18052TIP3   OH275570   3.969   2.931   0.792 -0.5194  0.2516  0.0561
18052TIP3    H175571   3.976   2.941   0.697  4.1557  1.6450  0.3207
18052TIP3    H275572   3.940   3.016   0.823 -0.4581  0.3017 -0.0234
18053TIP3   OH275573   5.868   3.332   4.665  0.4657 -0.6876 -0.2911
18053TIP3    H175574   5.928   3.351   4.593  0.1995 -0.3248 -0.4255
18053TIP3    H275575   5.917   3.356   4.743 -0.1537  1.4988 -0.4907
18054TIP3   OH275576   4.763   6.721   2.598 -0.2643  0.2755  0.3140
18054TIP3    H175577   4.766   6.739   2.692  0.8325  0.0837  0.3273
18054TIP3    H275578   4.689   6.661   2.587 -0.3273  0.2078  1.0744
18055TIP3   OH275579   6.468   2.034   2.697 -0.1029  0.8592  0.0832
18055TIP3    H175580   6.430   2.004   2.615 -1.2327 -0.4659  1.0268
18055TIP3    H275581   6.514   1.957   2.732 -0.9385  0.9095  1.3799
18056TIP3   OH275582   5.016   0.421  14.372  0.4615 -0.1648 -0.4158
18056TIP3    H175583   4.943   0.481  14.387 -0.5581 -1.3833 -0.2855
18056TIP3    H275584   5.085   0.451  14.431 -0.7298 -0.2679  1.0897
18057TIP3   OH275585   3.906   5.678  13.890  0.2564 -0.1682  0.1325
18057TIP3    H175586   3.835   5.729  13.850  1.1434  0.1355 -1.1280
18057TIP3    H275587   3.956   5.645  13.816  2.6701  1.3976  0.9529
18058TIP3   OH275588   1.729   4.003   1.461 -0.3709 -0.0712  0.7102
18058TIP3    H175589   1.692   4.028   1.545 -1.0226 -2.0911  1.0687
18058TIP3    H275590   1.823   3.990   1.478 -0.7150 -1.7736  1.4791
18059TIP3   OH275591   4.558   4.308  16.512  0.3137 -0.1412  0.3155
18059TIP3    H175592   4.481   4.363  16.525  0.3496  0.3673 -1.3950
18059TIP3    H275593   4.578   4.315  16.419  1.4782 -1.5449  0.4101
18060TIP3   OH275594   3.517   1.419   2.518 -0.2670 -0.0885 -0.5141
18060TIP3    H175595   3.476   1.399   2.434 -0.5205 -0.4564 -0.3083
18060TIP3    H275596   3.459   1.483   2.559 -0.7929 -0.8148 -0.1049
18061TIP3   OH275597   1.954   1.905  15.813  0.3133 -0.1559  0.4109
18061TIP3    H175598   1.917   1.819  15.831  0.6325 -0.1485  1.1292
18061TIP3    H275599   1.879   1.960  15.792 -0.0255 -0.2979  1.2237
18062TIP3   OH275600   5.478   1.665  11.497  0.1177 -0.4271 -0.4861
18062TIP3    H175601   5.519   1.716  11.427  1.2456 -0.4244  0.1678
18062TIP3    H275602   5.396   1.711  11.515  0.2323  0.0710 -1.1880
18063TIP3   OH275603   1.057   0.728   0.507 -0.1551 -0.1477  0.4300
18063TIP3    H175604   1.057   0.633   0.508 -1.5085 -0.1549  1.5143
18063TIP3    H275605   1.049   0.754   0.599  1.5270  1.0461  0.2933
18064TIP3   OH275606   0.529   1.639  13.133 -0.2650  0.4296 -0.2489
18064TIP3    H175607   0.532   1.634  13.229  0.9007  0.6133 -0.2593
18064TIP3    H275608   0.616   1.609  13.105 -0.2606  1.2999 -1.2081
18065TIP3   OH275609   0.264   6.417  11.921 -0.5741 -0.3213 -0.1031
18065TIP3    H175610   0.239   6.331  11.886 -1.5226 -0.7517  1.5384
18065TIP3    H275611   0.295   6.399  12.009 -2.3400  1.1661  0.8930
18066TIP3   OH275612   6.599   3.153  14.396  0.0182 -0.2454 -0.2962
18066TIP3    H175613   6.552   3.187  14.472  0.1909  0.7064 -0.6088
18066TIP3    H275614   6.553   3.071  14.375 -0.6658 -0.0037  0.2082
18067TIP3   OH275615   1.345   0.381  11.769  0.0051 -0.2303  0.1359
18067TIP3    H175616   1.276   0.429  11.815  0.1115  1.0286 -0.9706
18067TIP3    H275617   1.302   0.344  11.692  0.4205  0.0051 -0.2108
18068TIP3   OH275618   6.685   0.665  13.720 -0.1314  0.2391 -0.4635
18068TIP3    H175619   6.757   0.665  13.783  1.3606  0.1285 -2.0941
18068TIP3    H275620   6.706   0.593  13.660 -2.8440 -1.3281  0.3211
18069TIP3   OH275621   5.036   0.195   0.629 -0.1047 -0.2162 -0.2690
18069TIP3    H175622   5.093   0.139   0.576 -0.6654 -2.2161  1.1471
18069TIP3    H275623   5.097   0.249   0.679  0.4812 -0.3580 -0.8128
18070TIP3   OH275624   6.122   6.197  15.391 -0.5528  0.2296 -0.2011
18070TIP3    H175625   6.057   6.127  15.400 -0.0764 -0.1041  0.8114
18070TIP3    H275626   6.200   6.153  15.357 -0.6737  0.5294 -0.8791
18071TIP3   OH275627   0.595   2.939   2.099 -0.9657  0.8375  0.2348
18071TIP3    H175628   0.634   2.890   2.172  0.8382 -0.0461 -1.2617
18071TIP3    H275629   0.599   3.030   2.128  0.9654  0.6449  0.7387
18072TIP3   OH275630   4.444   4.749   3.166 -0.3255 -0.2746 -0.0094
18072TIP3    H175631   4.461   4.691   3.091  2.1198 -0.5890  0.6976
18072TIP3    H275632   4.398   4.693   3.229 -0.0121 -0.7873 -0.2236
18073TIP3   OH275633   4.856   4.170   3.290 -0.1457  0.4447  0.4593
18073TIP3    H175634   4.779   4.128   3.253  0.1542 -0.3711  0.7484
18073TIP3    H275635   4.894   4.219   3.217 -2.7828  3.7290  1.0417
18074TIP3   OH275636   2.687   1.230   4.210 -0.2804  0.4789  0.1412
18074TIP3    H175637   2.669   1.322   4.192  0.2188  0.2772 -1.5690
18074TIP3    H275638   2.781   1.228   4.230 -1.0588  0.9966  5.3571
18075TIP3   OH275639   5.264   3.984   0.806  0.0160  0.3361 -0.5106
18075TIP3    H175640   5.212   3.975   0.726 -1.7747 -2.3843  0.8116
18075TIP3    H275641   5.235   4.066   0.845  0.7609  1.5911 -2.4576
18076TIP3   OH275642   4.182   6.474  11.857  0.7431 -0.2349 -0.1243
18076TIP3    H175643   4.160   6.402  11.798  1.7483  0.5775 -1.5260
18076TIP3    H275644   4.188   6.432  11.943  1.7635 -1.9257 -0.9688
18077TIP3   OH275645   3.770   2.279  15.201  0.0491  0.3235 -0.1933
18077TIP3    H175646   3.810   2.244  15.281  0.3534  0.6820 -0.1839
18077TIP3    H275647   3.684   2.309  15.228  1.1885  3.1126  0.6826
18078TIP3   OH275648   2.255   2.329  11.491  0.1852  0.0949  0.1046
18078TIP3    H175649   2.279   2.284  11.572 -0.2339 -1.4904 -0.6165
18078TIP3    H275650   2.164   2.304  11.476  0.4174 -0.0553 -1.1263
18079TIP3   OH275651   3.466   2.124  11.040 -0.1557 -0.9791  0.1871
18079TIP3    H175652   3.485   2.191  10.974 -0.6643 -2.2154 -1.2730
18079TIP3    H275653   3.374   2.103  11.027  0.1511 -2.3867  0.1939
18080TIP3   OH275654   5.303   6.162   5.193  0.3840 -0.0467  0.0461
18080TIP3    H175655   5.227   6.139   5.247  0.3682 -0.5976 -0.2021
18080TIP3    H275656   5.373   6.106   5.227  0.8812  0.9814  0.7656
18081TIP3   OH275657   5.118   5.801   6.428  0.2666  0.2536  0.2717
18081TIP3    H175658   5.171   5.788   6.506  1.5991 -0.8381 -0.7735
18081TIP3    H275659   5.178   5.836   6.363 -0.6023  0.2760 -0.5435
18082TIP3   OH275660   1.972   5.597  11.893  0.0898 -0.5678 -0.4760
18082TIP3    H175661   1.960   5.620  11.801  0.0584  0.4176 -0.2446
18082TIP3    H275662   1.885   5.567  11.921 -0.3353  0.6404 -0.3877
18083TIP3   OH275663   5.039   5.673   1.889 -0.7211  0.0976 -0.1284
18083TIP3    H175664   5.022   5.632   1.804 -0.8158  0.6444 -0.3775
18083TIP3    H275665   5.014   5.764   1.877 -2.1857 -0.1364  0.9381
18084TIP3   OH275666   4.087   5.216   3.658 -0.0135 -0.5154  0.0760
18084TIP3    H175667   4.009   5.260   3.692  0.8986 -0.0169  1.5787
18084TIP3    H275668   4.130   5.282   3.603 -1.2760 -1.1976 -1.8628
18085TIP3   OH275669   3.138   6.382  16.587 -0.0785  0.0927 -0.0459
18085TIP3    H175670   3.150   6.304  16.642  1.6876 -0.1113 -0.6678
18085TIP3    H275671   3.132   6.454  16.650 -1.1199 -0.4468  0.5077
18086TIP3   OH275672   4.306   0.793  12.097  0.8984 -0.0073  0.6172
18086TIP3    H175673   4.217   0.823  12.114  0.4571 -2.4005  3.2567
18086TIP3    H275674   4.305   0.766  12.005 -0.1884  2.6247 -0.2448
18087TIP3   OH275675   4.609   1.917  11.320  0.0225 -0.1518  0.0549
18087TIP3    H175676   4.643   1.961  11.242 -1.8282  2.2079  0.4475
18087TIP3    H275677   4.572   1.835  11.287 -2.3924  1.5937 -1.9905
18088TIP3   OH275678   5.246   5.947  12.720 -0.2024  0.1303  0.5093
18088TIP3    H175679   5.228   6.009  12.649 -0.3584  0.4995  0.8662
18088TIP3    H275680   5.336   5.965  12.746  0.2900 -0.8611 -0.4284
18089TIP3   OH275681   3.176   0.636  15.201 -0.1985 -0.0996 -0.1783
18089TIP3    H175682   3.206   0.557  15.245 -0.2030  0.8713  1.7290
18089TIP3    H275683   3.094   0.611  15.159  0.2579 -1.3075 -0.3746
18090TIP3   OH275684   1.486   3.767   6.489 -0.3637  0.9676  0.4119
18090TIP3    H175685   1.578   3.787   6.472 -0.5565  1.5917  0.0728
18090TIP3    H275686   1.458   3.716   6.414  0.2012 -0.8800  1.4043
18091TIP3   OH275687   1.673   3.483   4.015  0.1738 -0.6077  0.4692
18091TIP3    H175688   1.713   3.565   3.984 -1.8332  0.0575 -0.5425
18091TIP3    H275689   1.598   3.511   4.067 -0.1269 -1.8103  0.7032
18092TIP3   OH275690   6.149   1.031  13.557  0.2411  0.8507 -0.3828
18092TIP3    H175691   6.174   0.979  13.633  0.4971  0.2755 -0.8516
18092TIP3    H275692   6.216   1.100  13.552 -0.3529  1.5096  0.5019
18093TIP3   OH275693   1.208   4.261  11.655  0.4062  0.3108  0.2187
18093TIP3    H175694   1.129   4.225  11.615 -0.6051  0.9309  1.5552
18093TIP3    H275695   1.267   4.277  11.582 -0.3182 -1.0833 -0.7111
18094TIP3   OH275696   2.139   2.186   2.937  0.6101 -0.4850  0.3931
18094TIP3    H175697   2.058   2.219   2.898 -0.6019  1.5288  4.1011
18094TIP3    H275698   2.119   2.095   2.960 -1.0206  0.1916  1.9456
18095TIP3   OH275699   5.922   3.585   2.523 -0.0828  0.7003  0.0303
18095TIP3    H175700   5.865   3.593   2.447 -0.3351 -3.3672 -0.3944
18095TIP3    H275701   5.863   3.574   2.597  0.1382  0.2591  0.1464
18096TIP3   OH275702   5.495   4.385   2.679 -0.4519 -0.6818  0.5608
18096TIP3    H175703   5.430   4.430   2.625 -0.3273 -0.1890  0.8099
18096TIP3    H275704   5.467   4.294   2.680 -0.9418 -0.5359  0.3772
18097TIP3   OH275705   5.346   6.431   5.217  0.4234 -0.1488  0.0004
18097TIP3    H175706   5.339   6.336   5.228  2.0848 -0.4591 -1.2998
18097TIP3    H275707   5.257   6.459   5.198  0.0702 -1.5922 -0.6106
18098TIP3   OH275708   5.338   0.356   1.143 -0.6161  0.7227  0.0985
18098TIP3    H175709   5.317   0.424   1.207 -3.1478  0.0651  0.0916
18098TIP3    H275710   5.350   0.276   1.196  1.0408  0.8714  0.0016
18099TIP3   OH275711   2.283   0.440  15.577 -0.2148 -0.1869  0.1990
18099TIP3    H175712   2.308   0.390  15.654  1.2118 -0.6746 -0.5473
18099TIP3    H275713   2.361   0.490  15.554 -1.1377  1.2472  0.0270
18100TIP3   OH275714   0.621   1.429  13.560 -0.3278 -0.1990 -0.6840
18100TIP3    H175715   0.575   1.513  13.556 -1.1385 -0.6090 -0.2477
18100TIP3    H275716   0.703   1.449  13.606  0.1598  0.6231 -1.8473
18101TIP3   OH275717   4.113   5.173   0.645  0.2957 -0.2155 -0.3422
18101TIP3    H175718   4.041   5.237   0.642  0.2550 -0.1634  0.9504
18101TIP3    H275719   4.095   5.113   0.573 -1.4496 -0.6115  0.3857
18102TIP3   OH275720   3.609   0.542   1.555 -0.4277  0.0078 -0.1033
18102TIP3    H175721   3.605   0.459   1.603 -2.1780  0.5582  0.7628
18102TIP3    H275722   3.557   0.527   1.477 -0.0991  0.0628 -0.3361
18103TIP3   OH275723   0.070   5.555  17.052 -0.7044  0.1928  0.7137
18103TIP3    H175724   0.086   5.649  17.054 -0.9228  0.2327  3.1052
18103TIP3    H275725   0.054   5.535  16.959  0.6615  2.2464 -0.0224
18104TIP3   OH275726   1.003   0.192  12.853 -0.2330 -0.1409 -0.6781
18104TIP3    H175727   1.092   0.223  12.868 -0.9192  1.3441  0.6616
18104TIP3    H275728   1.013   0.117  12.794  1.8769  0.0049 -0.5818
18105TIP3   OH275729   3.751   2.249  11.170  0.2029  0.1146  0.2762
18105TIP3    H175730   3.824   2.227  11.113 -0.1300  0.1656 -0.1821
18105TIP3    H275731   3.791   2.289  11.247  0.6150  0.9493 -0.3513
18106TIP3   OH275732   1.665   5.350  14.526 -0.0448  0.0380 -0.1850
18106TIP3    H175733   1.600   5.281  14.517  0.9475 -1.3119  2.2252
18106TIP3    H275734   1.709   5.332  14.609  2.6294  1.5533 -1.1371
18107TIP3   OH275735   4.490   6.573  14.735  0.1067  0.4937  0.4073
18107TIP3    H175736   4.446   6.508  14.790 -1.5510 -0.3968 -1.8287
18107TIP3    H275737   4.431   6.648  14.735 -0.2613  0.2222 -0.6554
18108TIP3   OH275738   3.778   3.258  12.327 -0.6669 -0.1059 -0.5118
18108TIP3    H175739   3.829   3.180  12.349  0.8488  1.2253  1.0241
18108TIP3    H275740   3.741   3.286  12.411  0.9081  2.2023 -0.5124
18109TIP3   OH275741   2.273   2.492   4.275 -0.5643  0.0173  0.6906
18109TIP3    H175742   2.183   2.464   4.259 -0.6864  0.2974  0.8891
18109TIP3    H275743   2.326   2.434   4.220 -0.7711 -1.0168  1.5431
18110TIP3   OH275744   4.293   0.283  16.143  0.1583 -0.4491  0.3664
18110TIP3    H175745   4.295   0.190  16.122 -1.3078 -0.4756  0.2661
18110TIP3    H275746   4.381   0.314  16.120  0.5524 -1.7141  0.0518
18111TIP3   OH275747   6.726   2.095   0.410 -0.2702 -0.5765  0.1711
18111TIP3    H175748   6.643   2.074   0.451  0.0621 -1.2833  0.5004
18111TIP3    H275749   6.776   2.014   0.414  1.2028  0.3278  1.8205
18112TIP3   OH275750   1.128   5.882   0.977 -0.1425  0.9188 -0.2242
18112TIP3    H175751   1.097   5.806   1.025  0.8655  2.0628  2.4660
18112TIP3    H275752   1.206   5.851   0.931 -0.5655  0.0044 -0.3484
18113TIP3   OH275753   3.322   6.319   1.295 -0.1126  0.6192 -0.5712
18113TIP3    H175754   3.243   6.355   1.335 -1.0837 -1.9008 -0.0431
18113TIP3    H275755   3.381   6.305   1.369 -1.0632 -1.9447 -0.1876
18114TIP3   OH275756   0.604   5.724   5.026 -0.0171 -0.2472  0.3599
18114TIP3    H175757   0.541   5.659   5.058  1.8004 -1.3323  1.9848
18114TIP3    H275758   0.652   5.750   5.104  2.4341 -0.4940 -0.9796
18115TIP3   OH275759   4.940   0.307  16.238 -1.1358 -0.4656 -0.0751
18115TIP3    H175760   4.958   0.368  16.309  0.8745  0.8646 -1.6160
18115TIP3    H275761   5.013   0.245  16.241 -0.6614  0.0065 -1.3648
18116TIP3   OH275762   5.005   0.191  13.517  0.3965 -0.0830  0.2739
18116TIP3    H175763   5.041   0.271  13.481  1.7599 -1.0226 -0.5517
18116TIP3    H275764   4.947   0.220  13.588 -1.2366  1.7679 -1.6567
18117TIP3   OH275765   4.163   2.439   4.195  0.6949  0.7564  0.2507
18117TIP3    H175766   4.213   2.361   4.172  2.0601  0.5617  3.3495
18117TIP3    H275767   4.150   2.485   4.112  1.1160 -1.9982 -1.4465
18118TIP3   OH275768   6.697   0.004   1.267 -0.2973  0.2187  0.4091
18118TIP3    H175769   6.775   0.006   1.322  0.0415 -1.4851  0.0307
18118TIP3    H275770   6.626  -0.020   1.326 -0.1429 -0.3980  0.3518
18119TIP3   OH275771   0.027   6.570   3.147  0.7726  0.1980 -0.5270
18119TIP3    H175772  -0.035   6.615   3.206  1.7342  0.6246  0.1807
18119TIP3    H275773  -0.028   6.541   3.074 -0.1444  1.2392 -0.2944
18120TIP3   OH275774   5.169   3.551   2.017 -0.6351  0.4170 -0.4637
18120TIP3    H175775   5.130   3.631   1.981 -2.0100 -0.3204 -0.6938
18120TIP3    H275776   5.158   3.560   2.111 -0.1713  0.7936 -0.4410
18121TIP3   OH275777   5.757   5.159  17.013 -0.5557  0.1759 -0.3376
18121TIP3    H175778   5.716   5.097  16.953  0.3350 -1.3092  0.5548
18121TIP3    H275779   5.749   5.244  16.968 -1.4143 -0.6186 -1.7612
18122TIP3   OH275780   6.052   4.541   4.752  0.1893 -0.0131 -0.2380
18122TIP3    H175781   6.072   4.577   4.666  2.0151 -0.6135 -0.0981
18122TIP3    H275782   5.974   4.589   4.781 -0.5379  0.1210 -2.2476
18123TIP3   OH275783   6.705   6.460   3.568  0.4450 -0.1521 -0.5516
18123TIP3    H175784   6.731   6.385   3.622  0.1594  1.4782  2.0346
18123TIP3    H275785   6.787   6.503   3.545  0.5174 -0.1493 -0.2924
18124TIP3   OH275786   3.880   0.328  11.233 -0.0511  0.0294  0.0332
18124TIP3    H175787   3.904   0.415  11.200  0.5083 -0.1479 -0.0313
18124TIP3    H275788   3.961   0.278  11.229 -0.2292 -0.3095  0.6825
18125TIP3   OH275789   1.506   3.449  13.090  0.1104 -0.0257  0.3753
18125TIP3    H175790   1.549   3.497  13.161 -0.4456 -1.5366  1.7999
18125TIP3    H275791   1.521   3.357  13.111  0.0693 -0.5165 -1.5870
18126TIP3   OH275792   0.310   0.277   5.426 -0.0833  0.0963 -0.1229
18126TIP3    H175793   0.233   0.276   5.370  0.4137 -0.2331 -0.8012
18126TIP3    H275794   0.312   0.366   5.461 -0.2262  0.3995 -0.8673
18127TIP3   OH275795   1.757   5.965   3.779  0.2663  0.4639 -0.3662
18127TIP3    H175796   1.677   5.917   3.801 -0.3421  1.2495 -0.8011
18127TIP3    H275797   1.807   5.967   3.860  0.8552 -1.8822 -0.6083
18128TIP3   OH275798   6.212   0.392   0.684  0.3621 -0.1072 -0.2995
18128TIP3    H175799   6.214   0.298   0.668  0.5259 -0.0680 -0.5154
18128TIP3    H275800   6.289   0.409   0.738  0.9794  0.0695 -1.2075
18129TIP3   OH275801   1.723   4.709  11.831  0.1074  0.7357  0.6319
18129TIP3    H175802   1.660   4.765  11.878 -0.3723  0.0148  0.8729
18129TIP3    H275803   1.800   4.764  11.820  0.1565  1.0089  2.0872
18130TIP3   OH275804   1.106   1.562  12.602  0.0855 -0.0502  0.1506
18130TIP3    H175805   1.026   1.522  12.636 -1.0822  2.7376  0.9752
18130TIP3    H275806   1.159   1.580  12.680  1.2902 -1.2786 -0.3403
18131TIP3   OH275807   6.420   2.878  11.345  0.3132 -0.3566  0.2397
18131TIP3    H175808   6.494   2.930  11.314 -1.1393  1.6841 -0.0301
18131TIP3    H275809   6.368   2.940  11.398 -1.2536 -1.6740  0.3181
18132TIP3   OH275810   4.222   4.663  11.370  0.3277 -0.0615  0.2047
18132TIP3    H175811   4.198   4.577  11.336  1.6027 -0.4837  0.3145
18132TIP3    H275812   4.179   4.668  11.456  1.5437 -1.2996  0.9396
18133TIP3   OH275813   6.680   4.812  15.929 -0.8849  0.5610 -0.9891
18133TIP3    H175814   6.739   4.751  15.974 -0.1417  0.7939 -1.6216
18133TIP3    H275815   6.739   4.877  15.889 -1.6195  1.2519 -0.9722
18134TIP3   OH275816   5.395   2.110  16.083 -0.8838  0.4527 -0.5784
18134TIP3    H175817   5.380   2.139  15.993 -2.9045  1.7714  0.1160
18134TIP3    H275818   5.480   2.148  16.107 -1.1201  1.5198 -1.3772
18135TIP3   OH275819   5.324   3.359   0.110  0.1148  0.0406  0.4903
18135TIP3    H175820   5.286   3.370   0.197 -4.2663  0.5620 -1.2572
18135TIP3    H275821   5.364   3.444   0.090 -3.4977  1.8537  0.1620
18136TIP3   OH275822   1.887   5.295  14.274 -0.0266 -0.6778  0.1868
18136TIP3    H175823   1.842   5.316  14.356 -0.7826  0.9530 -0.5995
18136TIP3    H275824   1.899   5.380  14.231  3.5302 -1.0161  0.1660
18137TIP3   OH275825   1.609   5.428   5.263 -0.5613  0.2750  0.3529
18137TIP3    H175826   1.648   5.395   5.182 -1.2021 -0.5102  0.3664
18137TIP3    H275827   1.614   5.524   5.253 -0.0118  0.1926 -0.3048
18138TIP3   OH275828   0.045   3.598  15.154 -0.6052  0.0000 -0.1255
18138TIP3    H175829  -0.004   3.665  15.201 -0.5709  2.3181 -3.0669
18138TIP3    H275830   0.128   3.641  15.132 -0.5615 -0.9622 -2.0650
18139TIP3   OH275831   4.666   2.212  12.179  0.2176  0.2544 -0.2212
18139TIP3    H175832   4.689   2.240  12.268 -3.4063 -0.0686  0.9596
18139TIP3    H275833   4.674   2.117  12.180 -0.5886  0.1824  0.0421
18140TIP3   OH275834   4.017   3.263   2.109  0.4729 -0.0103  0.3033
18140TIP3    H175835   4.095   3.276   2.055 -0.7838 -1.3076 -1.9829
18140TIP3    H275836   4.033   3.180   2.154  0.7531  0.1611  0.5269
18141TIP3   OH275837   0.370   0.515  12.233 -0.1692  0.2487  0.0051
18141TIP3    H175838   0.391   0.570  12.158 -0.3416  0.8854  0.4129
18141TIP3    H275839   0.291   0.467  12.207  1.1254 -1.4045 -1.1510
18142TIP3   OH275840   4.416   3.191   1.197 -0.4161 -0.5514  0.0471
18142TIP3    H175841   4.362   3.204   1.276  0.7343  2.1055  0.5049
18142TIP3    H275842   4.504   3.218   1.223  0.4516 -1.6036 -1.6150
18143TIP3   OH275843   1.892   5.233  17.044  0.2068 -0.0795 -0.3747
18143TIP3    H175844   1.902   5.288  16.967 -1.6638  1.3754  0.3223
18143TIP3    H275845   1.799   5.241  17.067  0.3303 -1.8750  1.0068
18144TIP3   OH275846   3.953   2.077   0.653 -0.1823  0.0005 -0.3469
18144TIP3    H175847   4.032   2.116   0.617  0.6881 -2.2829 -1.0656
18144TIP3    H275848   3.913   2.030   0.580 -2.0312  0.7734  0.1029
18145TIP3   OH275849   0.571   2.459  11.862  0.0526 -0.2358  0.1692
18145TIP3    H175850   0.641   2.440  11.800  0.7330  0.7782  0.6082
18145TIP3    H275851   0.507   2.388  11.849  2.1252 -2.4644  1.2671
18146TIP3   OH275852   5.192   2.548   5.652 -0.0628 -0.7853  0.6169
18146TIP3    H175853   5.168   2.458   5.676  2.0477 -1.0579  2.0749
18146TIP3    H275854   5.286   2.553   5.673  0.4645  1.0423 -1.7165
18147TIP3   OH275855   2.899   4.181   3.797  0.2143 -0.0764 -0.1892
18147TIP3    H175856   2.924   4.272   3.815 -1.7384  0.3511  0.7179
18147TIP3    H275857   2.980   4.131   3.806  0.7790  1.1333  2.7181
18148TIP3   OH275858   3.555   3.263  15.709 -0.2452 -0.1872  0.0824
18148TIP3    H175859   3.514   3.348  15.694 -0.4839 -0.2426  0.4149
18148TIP3    H275860   3.496   3.200  15.667 -0.9503 -0.3501  1.2622
18149TIP3   OH275861   3.038   5.404   0.746 -0.0590  0.5274 -0.9221
18149TIP3    H175862   3.067   5.409   0.837 -1.2916  2.8144 -0.5633
18149TIP3    H275863   3.117   5.382   0.696  0.5424 -1.2516  0.6979
18150TIP3   OH275864   0.084   4.953   0.048 -0.2572 -0.0552  0.3502
18150TIP3    H175865  -0.006   4.930   0.026 -1.1132  2.1890  1.2013
18150TIP3    H275866   0.089   4.940   0.143  0.5291 -0.7386  0.2305
18151TIP3   OH275867   6.462   4.946  10.959  0.3325 -0.2023 -0.0510
18151TIP3    H175868   6.370   4.923  10.975  0.7571 -1.1497  1.1629
18151TIP3    H275869   6.458   5.013  10.891 -1.2448 -0.4085 -0.1995
18152TIP3   OH275870   1.920   0.645   3.844  0.5754 -0.0303  0.0547
18152TIP3    H175871   1.917   0.605   3.931  0.0256 -1.2061 -0.4794
18152TIP3    H275872   2.004   0.617   3.808 -0.2522 -1.6385 -0.7189
18153TIP3   OH275873   6.106   5.502  11.571 -0.3549 -0.3478 -0.3595
18153TIP3    H175874   6.142   5.514  11.659 -2.1850 -0.3111  0.4153
18153TIP3    H275875   6.105   5.407  11.559 -0.8236 -0.3861 -0.0268
18154TIP3   OH275876   6.295   0.755   2.382 -0.0465  0.3731  0.4115
18154TIP3    H175877   6.255   0.671   2.403  1.2782  0.0081  1.6425
18154TIP3    H275878   6.364   0.734   2.319  0.3253  0.5162  0.7656
18155TIP3   OH275879   3.282   4.484   6.269 -0.7105 -0.2684  0.1805
18155TIP3    H175880   3.278   4.416   6.337 -2.8364 -0.6766 -0.2729
18155TIP3    H275881   3.190   4.501   6.248 -0.2305  2.4684 -0.0335
18156TIP3   OH275882   1.149   4.085   0.144 -0.6003  0.1386 -0.3285
18156TIP3    H175883   1.165   4.020   0.077  0.5793  0.3379 -0.2665
18156TIP3    H275884   1.073   4.135   0.113  0.7538  1.1222 -2.2205
18157TIP3   OH275885   0.530   5.570  16.484  0.5995  0.1941  0.0764
18157TIP3    H175886   0.582   5.491  16.471  2.0056  1.1726 -0.4712
18157TIP3    H275887   0.594   5.641  16.487 -0.5390  1.2317  1.5556
18158TIP3   OH275888   3.764   5.716   2.099  0.3200 -0.0074  0.1519
18158TIP3    H175889   3.675   5.681   2.088  0.9922 -2.1993  1.0739
18158TIP3    H275890   3.767   5.792   2.041 -2.3830  0.6151  0.6682
18159TIP3   OH275891   0.609   6.005  11.821 -0.1994  0.3409 -0.2068
18159TIP3    H175892   0.590   6.070  11.753  0.8641  0.9530  0.0721
18159TIP3    H275893   0.536   5.942  11.814 -1.9145  2.1697  0.3089
18160TIP3   OH275894   3.593   3.138  15.442  0.1033  0.0971 -0.3964
18160TIP3    H175895   3.679   3.171  15.417 -0.2396 -0.1248 -1.9570
18160TIP3    H275896   3.538   3.216  15.449 -0.1088  0.0693 -1.6446
18161TIP3   OH275897   2.383   2.735  12.228  0.8664  0.3851 -0.1302
18161TIP3    H175898   2.446   2.689  12.282 -0.6748 -0.7293  0.8141
18161TIP3    H275899   2.351   2.669  12.166  1.4364  1.2266 -1.3679
18162TIP3   OH275900   4.544   3.699   4.542  0.1341  0.1872  0.0200
18162TIP3    H175901   4.531   3.771   4.480  0.2277  0.6691  0.5573
18162TIP3    H275902   4.638   3.694   4.555  0.3443 -1.5103 -1.7367
18163TIP3   OH275903   5.293   5.026  11.934  0.5217  0.3046  0.6351
18163TIP3    H175904   5.234   5.019  12.009  1.3079  1.4909  1.3951
18163TIP3    H275905   5.251   5.091  11.877  0.3710  0.0681  0.4757
18164TIP3   OH275906   3.985   5.529  11.767  0.4831 -0.0257  0.2628
18164TIP3    H175907   3.975   5.444  11.810  1.1610 -0.6065 -0.6757
18164TIP3    H275908   3.914   5.532  11.703  1.1912 -0.4644 -0.5770
18165TIP3   OH275909   1.774   0.856   4.053 -0.0441 -0.0418  0.0225
18165TIP3    H175910   1.862   0.841   4.087 -0.4651 -2.1478  0.3032
18165TIP3    H275911   1.766   0.951   4.048  2.8901  0.2393 -1.7369
18166TIP3   OH275912   5.051   1.712  16.032 -0.5415  0.3782 -0.1404
18166TIP3    H175913   5.139   1.728  15.997  0.0843 -0.7749  0.8045
18166TIP3    H275914   5.020   1.797  16.062 -0.1315  0.9596 -1.3360
18167TIP3   OH275915   0.340   0.625  11.615 -0.0724  0.1100  0.0934
18167TIP3    H175916   0.283   0.637  11.539 -0.5004  1.1892  0.5709
18167TIP3    H275917   0.282   0.590  11.682  0.0576  0.2173  0.2610
18168TIP3   OH275918   1.967   4.966   0.204 -1.2348 -0.2016  0.0326
18168TIP3    H175919   1.958   5.034   0.271  3.2882 -0.4626  1.2129
18168TIP3    H275920   1.987   4.886   0.253 -3.9473 -1.9614 -1.4631
18169TIP3   OH275921   6.185   0.755  14.567 -0.5627  0.0082  0.1455
18169TIP3    H175922   6.196   0.805  14.486 -1.0539 -1.3356 -0.7829
18169TIP3    H275923   6.090   0.752  14.580 -0.7314 -2.4175 -1.0087
18170TIP3   OH275924   3.183   5.182  13.867  0.3162 -0.2020  0.0212
18170TIP3    H175925   3.263   5.149  13.909 -0.3717 -2.0156  0.0062
18170TIP3    H275926   3.184   5.276  13.884  1.3932 -0.4953  1.8452
18171TIP3   OH275927   2.623   6.596   4.197 -0.3825  0.0630  0.4082
18171TIP3    H175928   2.647   6.517   4.246  0.4945  0.3745  0.4977
18171TIP3    H275929   2.701   6.618   4.147 -0.8643  0.4642 -0.1781
18172TIP3   OH275930   4.935   2.970  16.560 -0.2148 -0.3922 -0.5646
18172TIP3    H175931   4.936   2.944  16.468  1.0719 -0.4237 -0.5625
18172TIP3    H275932   4.940   2.887  16.608  1.9674 -0.3030 -0.5342
18173TIP3   OH275933   1.763   1.250  15.804 -0.0861 -0.5286  0.3968
18173TIP3    H175934   1.731   1.273  15.717  1.6749 -0.0881 -0.1570
18173TIP3    H275935   1.683   1.239  15.856 -1.2306  3.6153 -0.1187
18174TIP3   OH275936   5.033   0.856  12.480  0.1441 -0.0641  0.0486
18174TIP3    H175937   5.062   0.902  12.559 -1.4828  0.9981  0.0675
18174TIP3    H275938   5.070   0.907  12.408 -1.7037  1.4158  0.0677
18175TIP3   OH275939   2.841   2.528   5.683  0.0353 -0.4203  0.1164
18175TIP3    H175940   2.814   2.477   5.607  1.3629 -1.2395  0.1613
18175TIP3    H275941   2.800   2.484   5.757  1.1638 -1.4500  0.1533
18176TIP3   OH275942   2.726   6.623   2.664  0.1564 -0.4914  0.2606
18176TIP3    H175943   2.661   6.560   2.633 -1.9188  0.8296  1.6003
18176TIP3    H275944   2.776   6.577   2.731  0.2567 -1.3752 -0.4109
18177TIP3   OH275945   5.687   3.333   0.084 -0.1977 -0.0454  0.7674
18177TIP3    H175946   5.620   3.268   0.062  1.6320 -2.2554  1.3225
18177TIP3    H275947   5.770   3.293   0.056  0.9301  2.7927 -0.3835
18178TIP3   OH275948   2.450   6.182  16.031 -0.2697 -0.2353 -0.0742
18178TIP3    H175949   2.519   6.214  16.088  0.3948  0.0834 -1.0311
18178TIP3    H275950   2.482   6.198  15.942 -1.0172 -1.2533 -0.5581
18179TIP3   OH275951   1.684   1.104  13.428  0.4478  0.1442  0.2791
18179TIP3    H175952   1.594   1.081  13.406  0.9702 -0.8721 -0.9127
18179TIP3    H275953   1.677   1.189  13.472 -0.9402  0.9492 -1.4059
18180TIP3   OH275954   2.151   3.879  13.641  0.3446  0.5332 -0.1489
18180TIP3    H175955   2.154   3.786  13.618  0.2991  0.8439 -1.5423
18180TIP3    H275956   2.084   3.916  13.583  0.9915  1.5970 -0.2507
18181TIP3   OH275957   4.967   2.428  13.787 -0.2239 -0.2032 -0.1739
18181TIP3    H175958   4.897   2.483  13.754 -0.4261  0.1424  0.7816
18181TIP3    H275959   5.039   2.489  13.806 -0.3192 -0.3036  0.5447
18182TIP3   OH275960   3.531   6.656  16.206  0.0671  0.2680 -0.1588
18182TIP3    H175961   3.508   6.567  16.178  1.5817 -0.2471  0.1293
18182TIP3    H275962   3.621   6.668  16.175  0.0067  1.5754  0.1284
18183TIP3   OH275963   1.280   1.157   6.426  0.6205  0.0730  0.3108
18183TIP3    H175964   1.355   1.214   6.446 -0.3823  1.4251  0.3576
18183TIP3    H275965   1.206   1.217   6.416 -0.3452 -1.1802 -0.3590
18184TIP3   OH275966   1.922   2.958   5.616 -0.0696 -0.3331  0.0424
18184TIP3    H175967   1.916   3.012   5.537 -1.6308 -0.9620 -0.3017
18184TIP3    H275968   1.865   3.002   5.680 -0.3167 -0.8517  0.1855
18185TIP3   OH275969   5.348   0.432  12.443 -0.8378  0.5265  0.1434
18185TIP3    H175970   5.437   0.464  12.424 -0.9889 -0.1085 -1.8743
18185TIP3    H275971   5.355   0.391  12.528  0.6760  0.9946  0.2739
18186TIP3   OH275972   1.137   6.673  12.328 -0.6898 -0.2223 -0.0386
18186TIP3    H175973   1.108   6.603  12.386  0.1374 -0.9914 -0.5247
18186TIP3    H275974   1.127   6.637  12.240 -1.8796  0.9140 -0.3861
18187TIP3   OH275975   5.983   4.034   0.632 -0.3891  0.2431  0.0013
18187TIP3    H175976   5.911   3.982   0.596 -1.2108  1.8758 -0.8084
18187TIP3    H275977   5.957   4.125   0.617  2.2467  0.9074 -1.1799
18188TIP3   OH275978   5.789   3.775   0.634  0.4355 -0.3221 -0.2705
18188TIP3    H175979   5.715   3.834   0.624 -0.1792 -0.7325  1.3964
18188TIP3    H275980   5.790   3.754   0.728  1.3191 -2.0591 -0.6221
18189TIP3   OH275981   1.597   1.597  14.152 -0.3907 -0.6703  0.4628
18189TIP3    H175982   1.505   1.570  14.153  0.0330 -2.1665  1.0631
18189TIP3    H275983   1.613   1.634  14.239 -0.3933 -0.4614  0.3774
18190TIP3   OH275984   3.014   1.156  16.251  0.1300 -0.0613  0.0652
18190TIP3    H175985   2.922   1.182  16.240 -0.0630 -1.1584 -1.2488
18190TIP3    H275986   3.032   1.172  16.344 -0.9131  1.5988  0.0225
18191TIP3   OH275987   4.783   2.268  13.663 -0.1691 -0.7593  0.7344
18191TIP3    H175988   4.854   2.323  13.694  0.8418 -1.3698 -0.4050
18191TIP3    H275989   4.815   2.179  13.674 -0.2029 -1.0161 -1.0042
18192TIP3   OH275990   0.027   0.480  16.287  0.3563  0.0211 -0.3867
18192TIP3    H175991   0.119   0.458  16.299  0.0339 -1.3656 -0.2369
18192TIP3    H275992  -0.019   0.396  16.294 -0.8938  0.6453 -0.7245
18193TIP3   OH275993   3.469   5.876  17.250 -0.1342  0.0574 -0.2252
18193TIP3    H175994   3.438   5.833  17.330  1.2746 -1.3019 -0.3845
18193TIP3    H275995   3.453   5.969  17.266 -1.1616 -0.3064  1.0552
18194TIP3   OH275996   4.003   4.077  16.148 -0.0822 -0.3267 -0.4423
18194TIP3    H175997   3.938   4.067  16.078  0.1415 -0.7518 -0.5921
18194TIP3    H275998   4.086   4.051  16.108  0.4282  1.4636 -0.6486
18195TIP3   OH275999   4.667   5.124   5.289 -0.3531  0.8196 -0.1127
18195TIP3    H176000   4.659   5.127   5.193 -0.9843  1.4856 -0.0453
18195TIP3    H276001   4.608   5.055   5.316 -0.3219  0.7629 -0.1884
18196TIP3   OH276002   5.671   5.093   1.262 -0.4483 -0.0658  0.4190
18196TIP3    H176003   5.663   5.080   1.168  0.1463  0.3390  0.3101
18196TIP3    H276004   5.664   5.188   1.274  1.3336  0.0773  0.5827
18197TIP3   OH276005   1.617   2.182   0.430 -0.0911  0.1725  0.1196
18197TIP3    H176006   1.545   2.224   0.479  0.7385  0.6666  0.9406
18197TIP3    H276007   1.576   2.155   0.348 -0.7207  2.4882 -0.4082
18198TIP3   OH276008   4.270   4.722   5.658  0.5810 -0.4254 -0.3199
18198TIP3    H176009   4.290   4.677   5.740  0.0782  0.3224  0.2297
18198TIP3    H276010   4.244   4.652   5.598 -2.0635 -0.7878  1.0729
18199TIP3   OH276011   1.195   5.989  13.213  0.1387 -0.0231  0.2105
18199TIP3    H176012   1.222   5.915  13.160  0.2903  0.4878 -0.4444
18199TIP3    H276013   1.107   6.010  13.181 -0.5387 -0.8944  1.4682
18200TIP3   OH276014   5.580   1.563  16.786 -0.4311  0.3309 -0.5061
18200TIP3    H176015   5.671   1.534  16.774 -0.3465  1.1018 -1.9068
18200TIP3    H276016   5.587   1.638  16.845  0.1295  1.7782 -2.3150
18201TIP3   OH276017   5.709   3.354  12.667 -0.2156 -1.1430  0.5167
18201TIP3    H176018   5.630   3.300  12.666 -0.0487 -1.3881  0.2424
18201TIP3    H276019   5.740   3.352  12.576 -0.4993 -0.1532  0.3847
18202TIP3   OH276020   5.009   6.666   0.358  0.3012  0.2689  0.1576
18202TIP3    H176021   5.070   6.609   0.310  0.5418 -0.1325  0.9199
18202TIP3    H276022   4.964   6.607   0.419 -0.3466  0.6868  0.0947
18203TIP3   OH276023   1.803   5.942  11.702  0.1379 -1.0099 -0.1291
18203TIP3    H176024   1.847   6.006  11.758  0.0830 -1.5754  0.5693
18203TIP3    H276025   1.752   5.888  11.762  0.1132 -1.6610 -0.7207
18204TIP3   OH276026   5.988   5.874   0.779 -0.4152 -0.2284 -0.1541
18204TIP3    H176027   5.997   5.837   0.691 -0.6115 -2.1804  0.5970
18204TIP3    H276028   5.938   5.955   0.766  0.9104  0.3736 -1.9958
18205TIP3   OH276029   1.441   5.172   3.038 -0.4404  0.4814  0.4535
18205TIP3    H176030   1.457   5.107   3.106  1.3112  1.3191  0.9154
18205TIP3    H276031   1.509   5.154   2.972 -1.3365  0.4608 -0.4947
18206TIP3   OH276032   0.299   1.662  15.529  0.4132  0.0882  0.2947
18206TIP3    H176033   0.283   1.609  15.606 -0.8130  0.0600  0.0288
18206TIP3    H276034   0.332   1.745  15.564  0.6535 -0.2130  0.7973
18207TIP3   OH276035   6.114   6.444   0.695  0.3951  0.0864 -0.5293
18207TIP3    H176036   6.106   6.351   0.718 -0.5835 -0.1883 -1.8003
18207TIP3    H276037   6.031   6.464   0.650  0.9314  1.3539 -0.9953
18208TIP3   OH276038   5.788   2.823   5.776  0.4909  0.5272  0.0541
18208TIP3    H176039   5.697   2.818   5.806  0.2989  0.3675 -0.5348
18208TIP3    H276040   5.839   2.839   5.855 -0.1881  2.0849  0.2128
18209TIP3   OH276041   5.352   2.015  11.717 -0.0276 -0.0560 -0.6697
18209TIP3    H176042   5.289   2.062  11.772 -0.4623 -1.2223 -0.1355
18209TIP3    H276043   5.437   2.037  11.754 -0.3021 -0.6938  0.4018
18210TIP3   OH276044   3.454   5.283  17.106 -0.0194  0.1381 -0.3182
18210TIP3    H176045   3.392   5.328  17.164 -0.2507 -0.7419  0.1418
18210TIP3    H276046   3.407   5.204  17.078 -0.5482  1.3205 -3.0457
18211TIP3   OH276047   4.792   5.967   1.053 -0.1519  0.2734  0.2207
18211TIP3    H176048   4.820   5.926   0.971 -1.0836 -0.7229  0.3755
18211TIP3    H276049   4.775   6.059   1.030  0.7416  0.2885 -0.4236
18212TIP3   OH276050   1.653   0.571  13.788 -0.1040  0.0162  0.3838
18212TIP3    H176051   1.673   0.662  13.807  3.3044 -0.8922  1.8580
18212TIP3    H276052   1.628   0.570  13.695  0.8432  2.2908  0.0561
18213TIP3   OH276053   0.703   1.382  14.911 -0.0446 -0.6290 -0.5913
18213TIP3    H176054   0.674   1.471  14.930  0.4182 -0.5087 -0.4394
18213TIP3    H276055   0.622   1.331  14.903 -0.2964 -0.2876 -0.2249
18214TIP3   OH276056   2.527   1.899   9.998  0.8662  0.3874  0.4588
18214TIP3    H176057   2.575   1.946  10.066  0.6142  1.0377  0.2030
18214TIP3    H276058   2.506   1.814  10.037 -0.2459  1.1522  1.6248
18215TIP3   OH276059   0.874   3.456  15.636 -0.1812  0.5506 -0.0199
18215TIP3    H176060   0.842   3.451  15.726  1.1233  0.7307  0.4815
18215TIP3    H276061   0.953   3.401  15.636 -1.0056 -0.7354 -1.4642
18216TIP3   OH276062   0.925   5.008  13.297  0.0986  0.3422 -0.2061
18216TIP3    H176063   1.001   4.981  13.245  1.6710 -1.6792  2.8761
18216TIP3    H276064   0.867   4.932  13.296 -0.4724  0.7680 -0.0608
18217TIP3   OH276065   5.113   6.226  16.425  0.4334  0.1947  0.6800
18217TIP3    H176066   5.090   6.136  16.404  0.5339  0.3966 -0.3804
18217TIP3    H276067   5.195   6.241  16.378 -0.5406  1.3963 -0.7407
18218TIP3   OH276068   5.661   2.885  12.509  0.2084 -0.0590  0.0070
18218TIP3    H176069   5.653   2.818  12.441  0.4003  0.7552 -0.8217
18218TIP3    H276070   5.744   2.929  12.491  0.1258  0.3560  0.5991
18219TIP3   OH276071   3.079   6.366  13.242 -0.0418 -0.0552 -0.1906
18219TIP3    H176072   3.071   6.420  13.320  0.5264 -2.4174  1.6261
18219TIP3    H276073   3.171   6.375  13.216  0.0014  0.0180 -0.0132
18220TIP3   OH276074   1.550   0.576  11.271  0.0333 -0.0898  0.6457
18220TIP3    H176075   1.576   0.551  11.360  0.8106 -1.0739  0.1713
18220TIP3    H276076   1.547   0.493  11.223  1.4846  0.5714 -0.7019
18221TIP3   OH276077   2.587   3.018  11.935 -0.2555  0.2140  0.0733
18221TIP3    H176078   2.563   2.935  11.894 -0.2323  0.8083 -1.1978
18221TIP3    H276079   2.516   3.036  11.996  0.1736 -1.1571  1.0221
18222TIP3   OH276080   3.529   5.672   3.605 -0.5903  0.2297 -0.2619
18222TIP3    H176081   3.545   5.687   3.698 -1.6496  0.4930 -0.1030
18222TIP3    H276082   3.591   5.729   3.560 -1.0568  1.2176  0.3081
18223TIP3   OH276083   0.504   0.127  15.866 -0.4635  0.1151  0.3045
18223TIP3    H176084   0.540   0.066  15.930  1.3960 -0.0121 -0.7794
18223TIP3    H276085   0.495   0.209  15.915 -1.2604 -0.5403  1.3023
18224TIP3   OH276086   6.026   0.011  16.958 -0.1980  0.3342  0.4144
18224TIP3    H176087   5.953  -0.025  16.908  0.1135  0.4300 -0.1136
18224TIP3    H276088   6.012  -0.021  17.047 -0.8241  0.2638  0.2939
18225TIP3   OH276089   4.816   0.448   5.997 -0.0083 -0.0850  0.0211
18225TIP3    H176090   4.724   0.422   6.002  0.2198 -1.5812 -2.2680
18225TIP3    H276091   4.816   0.523   5.938  0.3263 -0.7282 -0.8106
18226TIP3   OH276092   2.576   3.516  12.741  0.1250  0.2079 -0.5975
18226TIP3    H176093   2.567   3.437  12.687 -0.1909  0.6809 -1.2477
18226TIP3    H276094   2.620   3.579  12.685 -1.0939  1.0316 -0.6530
18227TIP3   OH276095   2.531   3.482  16.697  0.2278 -0.0301 -0.5998
18227TIP3    H176096   2.549   3.425  16.772  0.2962  1.0201  0.2124
18227TIP3    H276097   2.494   3.561  16.736  0.6389  0.6975 -1.6441
18228TIP3   OH276098   0.692   0.291   3.605  0.1405 -0.2178 -0.7637
18228TIP3    H176099   0.678   0.383   3.581  4.5079  0.4752 -1.5591
18228TIP3    H276100   0.771   0.293   3.660  0.5517 -3.5104 -1.0598
18229TIP3   OH276101   6.270   0.251   4.723 -0.1251 -0.5562  1.1615
18229TIP3    H176102   6.295   0.317   4.659 -0.8991 -0.4163  0.9904
18229TIP3    H276103   6.332   0.262   4.795 -0.0794  0.1782  1.0160
18230TIP3   OH276104   3.592   3.828  14.855  0.6489 -0.2369 -0.6031
18230TIP3    H176105   3.680   3.864  14.850  0.6874 -0.1847  0.2798
18230TIP3    H276106   3.539   3.898  14.892  0.4006 -0.5332 -0.3889
18231TIP3   OH276107   3.892   4.904  14.421  0.4047 -0.0910 -0.7302
18231TIP3    H176108   3.887   4.989  14.378  0.9984  0.2259 -0.1934
18231TIP3    H276109   3.833   4.848  14.371 -2.6108  1.4475  0.8262
18232TIP3   OH276110   2.483   1.664  15.306  0.0453  0.3982 -0.0425
18232TIP3    H176111   2.435   1.742  15.279  1.2168  1.1053 -0.1702
18232TIP3    H276112   2.466   1.600  15.237 -0.7041  0.6251 -0.0795
18233TIP3   OH276113   1.034   5.973   0.054 -0.1988  0.3027 -0.4740
18233TIP3    H176114   1.070   5.999   0.140 -1.7591  0.2480  0.2322
18233TIP3    H276115   1.070   6.038  -0.007  0.8660  0.4008  0.2292
18234TIP3   OH276116   0.262   2.264  15.221  0.0674  0.4222  0.4035
18234TIP3    H176117   0.302   2.234  15.139  0.7351  0.5670  0.6640
18234TIP3    H276118   0.172   2.234  15.217 -0.1000  1.0107 -0.6968
18235TIP3   OH276119   1.472   3.997   5.798  0.1073 -0.4741  0.0458
18235TIP3    H176120   1.562   3.971   5.777  0.7244  1.7559 -0.2794
18235TIP3    H276121   1.451   3.947   5.877  2.1951  0.0172  0.9989
18236TIP3   OH276122   2.186   3.710   4.839 -0.8345 -0.0521  0.5028
18236TIP3    H176123   2.175   3.757   4.922  0.4158  0.3935  0.4301
18236TIP3    H276124   2.215   3.777   4.777  0.7599 -0.8553  0.3394
18237TIP3   OH276125   3.267   3.006  11.856 -0.6852 -0.8498 -0.3441
18237TIP3    H176126   3.328   2.949  11.903 -0.9318 -1.1488 -0.3872
18237TIP3    H276127   3.204   3.034  11.923  0.0528  0.2417 -0.0766
18238TIP3   OH276128   3.493   0.941   5.316 -0.6530 -0.0610  0.5980
18238TIP3    H176129   3.527   1.026   5.347  1.1966 -1.0411  1.4386
18238TIP3    H276130   3.436   0.911   5.387 -0.7043  0.1290  0.6381
18239TIP3   OH276131   0.060   6.730   0.747  0.4605 -0.0062  0.2926
18239TIP3    H176132   0.099   6.813   0.720  0.4251 -0.0973 -0.0537
18239TIP3    H276133   0.067   6.729   0.842  2.9033 -0.7806  0.1801
18240TIP3   OH276134   3.039   2.359  14.440 -0.1321  0.3044  0.6970
18240TIP3    H176135   2.985   2.435  14.418 -0.4279 -0.5514 -1.8690
18240TIP3    H276136   3.121   2.372  14.392  0.1732 -0.5543  0.9606
18241TIP3   OH276137   1.469   4.093   6.335 -0.0178  0.4636 -0.1183
18241TIP3    H176138   1.551   4.101   6.286  0.4157  0.4462  0.5853
18241TIP3    H276139   1.488   4.133   6.420 -0.5395 -0.1318  0.2887
18242TIP3   OH276140   3.030   4.981  13.766 -0.6198  0.3279 -0.0367
18242TIP3    H176141   3.084   4.923  13.712 -0.9152 -0.7438  0.7959
18242TIP3    H276142   3.093   5.041  13.806 -0.1168 -0.4134  0.3157
18243TIP3   OH276143   1.095   1.203  13.514  0.4732  0.1182 -0.2715
18243TIP3    H176144   1.009   1.203  13.556  0.2021 -0.9676 -0.7717
18243TIP3    H276145   1.078   1.170  13.425  1.4724 -0.6124 -0.2061
18244TIP3   OH276146   1.333   2.323   0.836  0.0482 -0.1263  0.0895
18244TIP3    H176147   1.239   2.324   0.820 -0.0219 -2.3115  0.0532
18244TIP3    H276148   1.344   2.364   0.922 -0.7910  1.1108 -0.3722
18245TIP3   OH276149   6.252   3.915  17.284  0.6499  0.2532  0.2208
18245TIP3    H176150   6.192   3.857  17.331  1.3075 -1.2197 -0.6923
18245TIP3    H276151   6.199   3.992  17.261  0.1901  0.8394  2.9185
18246TIP3   OH276152   4.169   0.638   2.473  0.6013  0.4071  0.2075
18246TIP3    H176153   4.257   0.637   2.436  0.7224  1.2097  0.4745
18246TIP3    H276154   4.122   0.703   2.421  0.5731  1.0274  0.9957
18247TIP3   OH276155   3.496   4.810   4.737 -0.0117 -0.1318  0.0831
18247TIP3    H176156   3.463   4.822   4.648  1.3041  3.5662 -0.1220
18247TIP3    H276157   3.580   4.858   4.737 -0.7317  1.4462  3.6671
18248TIP3   OH276158   3.476   2.790   2.182  0.0931 -0.6724 -0.2352
18248TIP3    H176159   3.457   2.823   2.094  2.7013  2.5324  0.2037
18248TIP3    H276160   3.399   2.815   2.234  0.5939  2.0796 -0.6454
18249TIP3   OH276161   5.810   3.818   3.310 -0.0800  0.0721 -0.1931
18249TIP3    H176162   5.797   3.793   3.218 -0.7214 -0.2039 -0.0319
18249TIP3    H276163   5.727   3.858   3.336 -0.2547 -0.7263  0.5438
18250TIP3   OH276164   1.140   2.894   4.421  0.5705  0.1852 -0.2447
18250TIP3    H176165   1.144   2.969   4.480  1.3076 -0.6519  0.8120
18250TIP3    H276166   1.106   2.822   4.475 -0.6337 -0.1366 -1.3705
18251TIP3   OH276167   5.852   0.744  13.255  0.4001 -0.1716 -0.3106
18251TIP3    H176168   5.861   0.771  13.164  0.0216  0.8301 -0.0678
18251TIP3    H276169   5.938   0.760  13.294  0.2746  0.3790 -0.2516
18252TIP3   OH276170   2.496   2.101   3.540 -0.2731  0.3687  0.0893
18252TIP3    H176171   2.447   2.128   3.462  0.2145 -1.1715 -0.8013
18252TIP3    H276172   2.559   2.037   3.507  0.3050  0.0765  1.6892
18253TIP3   OH276173   5.684   2.543   3.592  0.5065  0.0547 -0.1007
18253TIP3    H176174   5.639   2.625   3.571 -0.1671 -0.4598 -0.7385
18253TIP3    H276175   5.619   2.493   3.641  1.1770  0.1997  0.9500
18254TIP3   OH276176   5.551   6.456   6.719 -0.0640  0.0765 -0.1806
18254TIP3    H176177   5.589   6.531   6.764 -1.5363 -0.3193  1.8671
18254TIP3    H276178   5.622   6.392   6.713  0.6452  0.8548 -0.0860
18255TIP3   OH276179   1.860   6.718   3.750 -0.2628  0.1289 -0.0900
18255TIP3    H176180   1.886   6.809   3.764 -2.1403  0.6577  0.1560
18255TIP3    H276181   1.943   6.671   3.736  0.7650  1.7652  0.3198
18256TIP3   OH276182   2.493   1.644  16.833  0.0031  0.0663  0.4511
18256TIP3    H176183   2.427   1.628  16.765  0.4434 -2.4396  0.5234
18256TIP3    H276184   2.443   1.679  16.907 -0.5183  2.6296 -0.9853
18257TIP3   OH276185   1.883   2.277   5.716  0.7385  0.0624  0.3097
18257TIP3    H176186   1.879   2.226   5.635  0.4458  0.9072 -0.2262
18257TIP3    H276187   1.834   2.225   5.780 -0.3521  0.0914 -0.4648
18258TIP3   OH276188   4.485   2.091  10.815  0.3360 -0.5454  0.0241
18258TIP3    H176189   4.551   2.156  10.837 -0.5267  0.4691 -0.3101
18258TIP3    H276190   4.408   2.142  10.790  0.5609 -1.6099 -3.3222
18259TIP3   OH276191   4.804   3.152  14.865 -0.6562  0.4308 -0.7184
18259TIP3    H176192   4.857   3.086  14.819  0.6002  0.5592  0.4610
18259TIP3    H276193   4.797   3.225  14.803 -1.1815 -0.3873 -1.6463
18260TIP3   OH276194   3.095   5.661   2.188 -1.1666 -0.2478  0.0326
18260TIP3    H176195   3.116   5.718   2.114  0.5683  1.6088  1.8162
18260TIP3    H276196   3.120   5.574   2.159 -1.3209  0.3046 -1.8579
18261TIP3   OH276197   5.642   6.558  15.370 -0.5306 -0.3655  0.2193
18261TIP3    H176198   5.609   6.641  15.334  1.8652  1.9354  2.7953
18261TIP3    H276199   5.713   6.533  15.310 -0.0966  0.4783  0.3580
18262TIP3   OH276200   1.755   5.395   4.091  0.3575  0.0071  0.0257
18262TIP3    H176201   1.745   5.340   4.014 -2.9476  2.0292 -1.1865
18262TIP3    H276202   1.825   5.456   4.067  1.2090 -1.0529 -0.2455
18263TIP3   OH276203   5.837   0.763   1.554  0.3026  0.2476 -0.0867
18263TIP3    H176204   5.898   0.831   1.583  0.6663 -0.3687  0.6415
18263TIP3    H276205   5.863   0.744   1.464  0.2149  1.0449 -0.2900
18264TIP3   OH276206   1.665   3.479   0.355  0.7606  0.0727 -0.9763
18264TIP3    H176207   1.612   3.417   0.305  1.2343 -0.2341 -1.1037
18264TIP3    H276208   1.723   3.425   0.407  0.8563  0.4059 -0.7357
18265TIP3   OH276209   2.010   4.626  11.922 -0.0805 -0.1796 -0.7390
18265TIP3    H176210   1.971   4.540  11.910  1.4371 -0.8728 -0.9621
18265TIP3    H276211   2.073   4.634  11.850  1.3266  0.1941  0.4654
18266TIP3   OH276212   2.541   1.001  12.909  0.9171  0.5877  0.7232
18266TIP3    H176213   2.462   1.002  12.963  0.7505  3.1853  0.5268
18266TIP3    H276214   2.565   0.908  12.905 -0.1155  0.0919  3.6644
18267TIP3   OH276215   1.130   1.192   4.308 -0.0310 -0.1248 -0.1074
18267TIP3    H176216   1.076   1.271   4.301  1.8959  1.1546 -1.6986
18267TIP3    H276217   1.080   1.134   4.365 -2.7474  1.1970 -0.9639
18268TIP3   OH276218   1.484   6.428  16.484  0.1495  0.4987 -0.4305
18268TIP3    H176219   1.490   6.494  16.415  0.3961  3.5909  2.2764
18268TIP3    H276220   1.395   6.437  16.518  0.3583 -0.1816  0.3431
18269TIP3   OH276221   4.800   6.726  12.317 -0.0939  1.0343  0.1576
18269TIP3    H176222   4.848   6.695  12.240  2.2619  2.3139  1.0230
18269TIP3    H276223   4.843   6.683  12.391 -1.6954  0.5736  0.8762
18270TIP3   OH276224   5.561   2.239  14.691 -0.1344  0.0144  0.2124
18270TIP3    H176225   5.520   2.325  14.698 -1.3811 -0.5786  0.6610
18270TIP3    H276226   5.490   2.178  14.712  0.9320 -1.0846  0.7085
18271TIP3   OH276227   5.814   0.219   0.743 -0.1442  0.4698 -0.2393
18271TIP3    H176228   5.841   0.311   0.733 -0.5631  0.6002 -0.1955
18271TIP3    H276229   5.789   0.192   0.654 -1.0631  0.7358 -0.0748
18272TIP3   OH276230   6.356   4.396  11.416 -0.4441  0.1649 -0.3382
18272TIP3    H176231   6.289   4.457  11.447 -0.7085  0.5283 -1.5733
18272TIP3    H276232   6.427   4.453  11.383  1.3716 -0.1622  2.6264
18273TIP3   OH276233   5.751   0.601   0.880  0.4548  1.0248  0.8822
18273TIP3    H176234   5.816   0.593   0.810  0.2061 -0.4480  0.7792
18273TIP3    H276235   5.792   0.559   0.956 -0.5945 -0.5401  0.6264
18274TIP3   OH276236   3.160   3.678  12.705  0.3812 -0.1783  0.4498
18274TIP3    H176237   3.147   3.730  12.784  4.1867 -0.9407  1.8158
18274TIP3    H276238   3.184   3.591  12.738  1.2660 -0.7502 -1.5460
18275TIP3   OH276239   3.354   6.557  12.721 -0.4525  0.8305  0.5070
18275TIP3    H176240   3.362   6.475  12.771 -1.8590  0.6459  0.4540
18275TIP3    H276241   3.368   6.626  12.786 -0.7076  0.5655  0.8480
18276TIP3   OH276242   0.929   3.454  14.446  0.3577  0.4091  0.2839
18276TIP3    H176243   0.968   3.371  14.418  0.4985  0.6228 -0.1623
18276TIP3    H276244   0.960   3.466  14.536  0.5669  0.1208  0.2509
18277TIP3   OH276245   4.242   0.929  15.453  0.0749  0.4511 -0.2960
18277TIP3    H176246   4.327   0.887  15.440 -0.7076 -1.2532 -0.1373
18277TIP3    H276247   4.242   0.956  15.545  0.1461 -0.2137 -0.1020
18278TIP3   OH276248   4.278   5.701  11.777  0.2000 -0.3286 -0.3814
18278TIP3    H176249   4.371   5.681  11.783 -0.0471 -1.2769  0.7927
18278TIP3    H276250   4.236   5.637  11.834 -0.8528  2.3279  2.0657
18279TIP3   OH276251   1.614   5.444  10.756 -0.0246  0.4709  0.2525
18279TIP3    H176252   1.614   5.536  10.779  3.2042  0.4543  0.8206
18279TIP3    H276253   1.592   5.398  10.837  1.9545  0.6923  0.9566
18280TIP3   OH276254   6.566   1.840   3.931  0.3336 -0.0048 -0.4678
18280TIP3    H176255   6.542   1.931   3.946 -1.0969 -0.2348 -1.2202
18280TIP3    H276256   6.573   1.832   3.836 -0.3586 -0.8616 -0.4577
18281TIP3   OH276257   2.322   0.992   4.511 -0.2012  0.0844  0.2206
18281TIP3    H176258   2.396   1.009   4.452 -1.4283  1.8080 -0.9258
18281TIP3    H276259   2.325   1.063   4.575  0.1382 -0.8351  1.2552
18282TIP3   OH276260   5.556   3.606  13.621 -0.5002  0.2837  0.0415
18282TIP3    H176261   5.491   3.584  13.554  0.6878  2.4398 -1.9974
18282TIP3    H276262   5.546   3.701  13.633 -1.2524 -0.1038  3.6802
18283TIP3   OH276263   1.742   6.330   0.861 -0.0540 -0.4353 -0.7322
18283TIP3    H176264   1.710   6.275   0.932 -1.0442  0.0238 -0.8020
18283TIP3    H276265   1.827   6.361   0.890 -0.3269 -0.4759  0.1353
18284TIP3   OH276266   4.277   3.755  12.068 -0.2447  0.3042  0.2430
18284TIP3    H176267   4.351   3.699  12.088 -1.4178 -1.0248  1.0255
18284TIP3    H276268   4.231   3.766  12.151 -0.1898  2.2787  0.0705
18285TIP3   OH276269   0.260   5.279   5.130 -0.0325  0.2028 -0.0610
18285TIP3    H176270   0.307   5.196   5.138  0.3348  0.3423 -0.7271
18285TIP3    H276271   0.261   5.299   5.037 -1.1544  0.3639 -0.0549
18286TIP3   OH276272   0.856   3.273  12.764 -0.4916  0.5256  0.2193
18286TIP3    H176273   0.935   3.308  12.805  0.5448 -0.8399 -0.5539
18286TIP3    H276274   0.856   3.309  12.676 -0.7997  0.5986  0.2457
18287TIP3   OH276275   0.080   6.040   5.360  0.0491  0.9644  0.1475
18287TIP3    H176276   0.062   6.027   5.267 -1.2525 -1.9434  0.6906
18287TIP3    H276277   0.170   6.010   5.371 -1.0615 -2.8185  0.3571
18288TIP3   OH276278   5.550   2.457   2.264 -0.1543 -0.1527 -0.1146
18288TIP3    H176279   5.477   2.459   2.203  0.3835 -0.0056 -0.7623
18288TIP3    H276280   5.582   2.367   2.261  0.7748  0.1966 -1.1468
18289TIP3   OH276281   1.258   4.486  13.514 -0.1105  0.2813  0.9150
18289TIP3    H176282   1.281   4.401  13.477 -0.7375  0.1440  0.8325
18289TIP3    H276283   1.162   4.486  13.519 -0.0579  0.2429  2.6561
18290TIP3   OH276284   4.646   2.349  15.152 -0.5062  0.4833 -0.1106
18290TIP3    H176285   4.655   2.344  15.057  1.1406 -1.6075  0.0851
18290TIP3    H276286   4.628   2.441  15.169  0.6917  1.2223 -2.3533
18291TIP3   OH276287   1.985   4.493   6.229  0.0218 -0.3810 -0.1853
18291TIP3    H176288   1.902   4.480   6.274 -1.1780  1.0362 -1.8176
18291TIP3    H276289   2.012   4.582   6.252  0.6891 -0.5432 -0.2942
18292TIP3   OH276290   5.589   0.009  16.169  0.2016 -0.4625 -0.3861
18292TIP3    H176291   5.615   0.006  16.077 -0.8118 -0.4571 -0.6844
18292TIP3    H276292   5.499   0.042  16.167 -0.6945 -2.6405  0.3979
18293TIP3   OH276293   6.310   0.575  11.536  0.5744 -0.4885  0.0856
18293TIP3    H176294   6.364   0.570  11.457  0.9515  0.1888  0.2938
18293TIP3    H276295   6.241   0.637  11.514  1.2325  0.4639  0.5888
18294TIP3   OH276296   5.849   2.824   6.444 -0.0155 -0.1746  0.0786
18294TIP3    H176297   5.795   2.765   6.391  0.2061 -1.0503  0.7947
18294TIP3    H276298   5.922   2.769   6.473  0.2462  0.4852  0.6938
18295TIP3   OH276299   0.210   5.059   0.448 -0.3923 -0.0814 -0.2063
18295TIP3    H176300   0.187   4.968   0.467 -1.5467  0.1911 -0.1654
18295TIP3    H276301   0.220   5.100   0.533 -0.5425 -0.0209 -0.2169
18296TIP3   OH276302   1.398   0.194   2.180 -0.3721 -0.2835  0.0586
18296TIP3    H176303   1.439   0.198   2.094 -0.4835  0.8338  0.0465
18296TIP3    H276304   1.421   0.276   2.222 -0.8232 -0.5598  0.8684
18297TIP3   OH276305   4.257   6.529  12.296 -0.4908  0.3147 -0.7733
18297TIP3    H176306   4.352   6.544  12.294 -0.6721  1.5517 -1.4393
18297TIP3    H276307   4.221   6.601  12.244 -1.7478 -0.5510 -1.1413
18298TIP3   OH276308   2.204   4.433  14.558  0.4876  0.1049 -0.0033
18298TIP3    H176309   2.117   4.444  14.520  0.9382 -1.5214 -1.5987
18298TIP3    H276310   2.252   4.511  14.531  0.5224 -0.5851 -2.0969
18299TIP3   OH276311   4.537   6.258   1.525 -0.4092 -0.4951 -0.2757
18299TIP3    H176312   4.560   6.222   1.439  1.3209  1.4718 -0.6995
18299TIP3    H276313   4.533   6.181   1.582 -0.7797 -1.7568 -1.9197
18300TIP3   OH276314   0.669   0.131   0.382  0.4318  0.2003  0.4583
18300TIP3    H176315   0.604   0.167   0.322  1.8447  3.0502  0.4471
18300TIP3    H276316   0.622   0.064   0.432 -2.1844  1.3490 -0.3034
18301TIP3   OH276317   5.542   4.435   1.023 -0.9187 -0.3782  0.0828
18301TIP3    H176318   5.589   4.462   1.102  0.9837  2.5722 -1.8541
18301TIP3    H276319   5.468   4.495   1.017 -0.7824 -0.2658 -0.5650
18302TIP3   OH276320   0.107   1.776   5.300  0.6167  0.2546 -0.1920
18302TIP3    H176321   0.137   1.808   5.385  0.7363  0.8317 -0.4494
18302TIP3    H276322   0.187   1.772   5.247  0.2819  1.6154 -0.8276
18303TIP3   OH276323   6.387   4.328  15.648  0.1830  0.2011 -0.2704
18303TIP3    H176324   6.367   4.408  15.598 -0.3675  0.7892  0.8427
18303TIP3    H276325   6.401   4.359  15.738  2.7013 -0.6208 -0.2851
18304TIP3   OH276326   3.331   0.846  15.312 -0.1522 -0.4076 -0.4438
18304TIP3    H176327   3.289   0.765  15.282 -1.6867  0.5993 -1.1190
18304TIP3    H276328   3.381   0.877  15.236 -0.0438 -0.4004 -0.3707
18305TIP3   OH276329   4.860   5.586   5.506  0.3513 -0.2076  0.2167
18305TIP3    H176330   4.824   5.641   5.575 -2.5740  0.2589 -1.4908
18305TIP3    H276331   4.819   5.501   5.520  0.5722 -0.4066 -0.3300
18306TIP3   OH276332   2.047   2.776  16.624 -0.6073  0.0831  0.3994
18306TIP3    H176333   2.050   2.862  16.581 -0.0025 -0.1245  0.0204
18306TIP3    H276334   2.138   2.757  16.647 -0.3312 -1.4805 -1.6004
18307TIP3   OH276335   3.723   3.981  13.107  0.5901 -0.6893 -0.1649
18307TIP3    H176336   3.793   4.038  13.076  0.8989 -0.3790  1.0544
18307TIP3    H276337   3.643   4.032  13.094  0.7420 -0.4540 -0.1838
18308TIP3   OH276338   2.929   2.963  15.820  0.1504 -0.9975 -0.0493
18308TIP3    H176339   2.881   3.038  15.785  0.0491 -1.3025 -0.5842
18308TIP3    H276340   2.904   2.960  15.913 -0.5522 -0.9100 -0.2281
18309TIP3   OH276341   2.142   3.661   3.712 -0.1583  0.0113 -0.1513
18309TIP3    H176342   2.058   3.705   3.731  0.5424  1.0738  0.6389
18309TIP3    H276343   2.199   3.689   3.784  0.9305 -0.5524 -0.7865
18310TIP3   OH276344   0.631   5.368  11.830  0.4851  0.1319 -0.2125
18310TIP3    H176345   0.564   5.415  11.879  1.3903  1.4724 -0.2167
18310TIP3    H276346   0.607   5.379  11.738  1.0430  1.1706 -0.2465
18311TIP3   OH276347   6.287   3.986   0.870 -0.4412  0.0143 -0.0139
18311TIP3    H176348   6.363   4.013   0.818  0.0718 -1.7754 -0.2580
18311TIP3    H276349   6.229   3.942   0.808 -1.5700  1.0933  0.2327
18312TIP3   OH276350   5.448   3.242   4.755  0.1461  0.0908  0.4515
18312TIP3    H176351   5.501   3.307   4.709 -1.8433  1.1537 -0.4618
18312TIP3    H276352   5.499   3.220   4.833  1.5551  1.6463  0.0159
18313TIP3   OH276353   0.624   1.737  16.540 -0.3265 -0.2754 -0.3196
18313TIP3    H176354   0.642   1.657  16.589 -2.5045  0.5192  1.9630
18313TIP3    H276355   0.706   1.787  16.545  0.2628 -1.2774  0.3526
18314TIP3   OH276356   4.380   4.277  17.169 -0.5448 -0.4530 -0.4300
18314TIP3    H176357   4.318   4.338  17.129  0.7587  1.3569  0.1884
18314TIP3    H276358   4.438   4.332  17.221 -0.6061 -2.4596  1.9288
18315TIP3   OH276359   3.337   1.487   4.322 -0.2712 -0.0606 -0.4774
18315TIP3    H176360   3.415   1.438   4.347  0.6104  0.4993 -1.9915
18315TIP3    H276361   3.297   1.436   4.252  1.1436  1.7057 -2.6925
18316TIP3   OH276362   2.513   3.018   0.136 -0.0836  0.1385 -0.2813
18316TIP3    H176363   2.493   3.088   0.199  1.4025  0.2557  0.1049
18316TIP3    H276364   2.450   3.030   0.066 -1.4541  0.3364  0.9289
18317TIP3   OH276365   4.601   1.460   4.387 -0.0220  0.4799 -0.0211
18317TIP3    H176366   4.592   1.403   4.311 -1.4629  0.9072 -0.2185
18317TIP3    H276367   4.552   1.539   4.364 -2.6074 -0.3077  2.1825
18318TIP3   OH276368   5.161   5.771  13.323  0.7908  0.4328 -0.3728
18318TIP3    H176369   5.205   5.709  13.382  1.2732  2.1697  1.1718
18318TIP3    H276370   5.178   5.736  13.235  2.1187 -0.9477  0.3771
18319TIP3   OH276371   6.685   2.540   4.716  0.0534  0.2735  0.1083
18319TIP3    H176372   6.615   2.571   4.659 -0.4168  0.6425  0.8638
18319TIP3    H276373   6.760   2.597   4.695 -0.5045  1.2958  0.7709
18320TIP3   OH276374   3.696   4.381   7.021 -0.3207 -0.4383 -0.2099
18320TIP3    H176375   3.669   4.320   6.953  1.2331  0.0888 -1.3729
18320TIP3    H276376   3.715   4.462   6.974  0.5104  0.0328  0.8830
18321TIP3   OH276377   4.475   5.523   3.136 -0.2475  0.5158  0.3855
18321TIP3    H176378   4.432   5.577   3.069 -0.3189  0.1450  0.1300
18321TIP3    H276379   4.523   5.457   3.086  2.3746  2.1402  0.5290
18322TIP3   OH276380   3.989   6.184  11.375 -0.4431  0.1214 -0.3420
18322TIP3    H176381   4.033   6.112  11.330  0.5826  0.7057 -0.2968
18322TIP3    H276382   3.921   6.141  11.427 -0.7665 -0.6838 -1.3926
18323TIP3   OH276383   4.785   0.293  10.854  0.0477  0.4496  0.3217
18323TIP3    H176384   4.695   0.321  10.871 -0.3676  0.1375 -1.2544
18323TIP3    H276385   4.815   0.349  10.783  1.7133  1.6920  1.9029
18324TIP3   OH276386   4.073   6.346   2.327 -0.3208  0.1317 -0.2632
18324TIP3    H176387   4.151   6.385   2.366  1.1264 -1.9379 -0.9225
18324TIP3    H276388   4.079   6.367   2.234 -0.5085 -0.0845 -0.3262
18325TIP3   OH276389   1.661   2.386  10.443 -0.2531 -0.3240 -0.1872
18325TIP3    H176390   1.715   2.315  10.408 -0.3328 -0.5827  0.2059
18325TIP3    H276391   1.583   2.385  10.388 -0.5527 -0.9866  0.2359
18326TIP3   OH276392   4.370   2.265   1.030  0.1411 -0.3272 -0.3264
18326TIP3    H176393   4.408   2.180   1.011  1.2691  0.4353 -1.7458
18326TIP3    H276394   4.341   2.260   1.121  1.0044 -1.9115 -0.1165
18327TIP3   OH276395   3.071   5.594   5.901 -0.5365  0.2712 -0.0764
18327TIP3    H176396   3.054   5.673   5.953 -0.5743  0.9152 -1.0307
18327TIP3    H276397   3.139   5.547   5.949  0.6643  1.7037 -0.2910
18328TIP3   OH276398   2.761   2.257   3.179 -0.1421  0.4080  0.1827
18328TIP3    H176399   2.770   2.163   3.166  0.6966  0.6163 -0.9200
18328TIP3    H276400   2.849   2.292   3.167 -0.6945  1.4904 -1.0254
18329TIP3   OH276401   0.792   4.753  13.431  0.1274  0.0948  0.1577
18329TIP3    H176402   0.886   4.755  13.445  0.3576  1.0233 -1.2659
18329TIP3    H276403   0.758   4.827  13.481  0.2153  0.0602  0.2673
18330TIP3   OH276404   3.226   4.298   5.058 -0.4182 -0.2351 -0.0987
18330TIP3    H176405   3.134   4.310   5.079  0.0204  1.2569  1.1021
18330TIP3    H276406   3.235   4.334   4.970 -1.0646 -0.8619 -0.4331
18331TIP3   OH276407   6.375   1.547   5.212  0.5644 -0.1860  0.0249
18331TIP3    H176408   6.352   1.495   5.289  1.2338 -0.8509 -0.2049
18331TIP3    H276409   6.470   1.534   5.202  0.2793 -1.3677 -1.7850
18332TIP3   OH276410   6.627   2.968   0.094 -0.4705  0.2509 -0.4459
18332TIP3    H176411   6.581   2.898   0.141  1.8829 -2.2619 -1.6295
18332TIP3    H276412   6.593   2.963   0.005  0.1259  0.1672 -0.6747
18333TIP3   OH276413   4.037   4.454   6.124  0.0421  0.0789  0.1308
18333TIP3    H176414   3.987   4.497   6.193  2.8432 -0.1662  2.5159
18333TIP3    H276415   4.052   4.523   6.059 -0.2977  1.1632  1.1570
18334TIP3   OH276416   5.298   5.362  15.827 -0.2933 -0.5694 -0.2335
18334TIP3    H176417   5.365   5.422  15.793 -0.5333 -0.6336 -0.8196
18334TIP3    H276418   5.216   5.409  15.817 -0.1936  0.2736  2.1816
18335TIP3   OH276419   5.527   4.841   3.526 -0.1483  0.0294 -0.3934
18335TIP3    H176420   5.619   4.845   3.555 -0.2092 -1.2001  0.0339
18335TIP3    H276421   5.495   4.930   3.536 -0.0423 -0.1784  3.0398
18336TIP3   OH276422   5.762   1.058   3.311 -0.2001 -0.0276  0.2809
18336TIP3    H176423   5.824   1.106   3.365 -0.1614  0.5448 -0.2546
18336TIP3    H276424   5.785   0.966   3.324  0.0283  0.1206  0.9584
18337TIP3   OH276425   4.761   2.851  15.900  0.4475 -0.9246  0.8604
18337TIP3    H176426   4.855   2.843  15.917  0.9410  1.4428 -0.2692
18337TIP3    H276427   4.724   2.877  15.984  1.2888  0.8301  0.7403
18338TIP3   OH276428   1.161   6.501   2.870 -0.1943 -0.0927  0.1365
18338TIP3    H176429   1.177   6.591   2.844  2.0612 -0.8414 -1.3566
18338TIP3    H276430   1.228   6.482   2.936 -1.3307 -0.4060  1.2553
18339TIP3   OH276431   3.359   3.427  15.687 -0.3908  0.1069  0.4797
18339TIP3    H176432   3.297   3.421  15.759 -1.2842  1.5522 -0.1189
18339TIP3    H276433   3.371   3.522  15.674  2.5373 -0.0727  1.0579
18340TIP3   OH276434   5.470   2.314  15.313  0.1546  0.6660 -0.1312
18340TIP3    H176435   5.540   2.379  15.309  1.2451 -0.3681  1.3137
18340TIP3    H276436   5.435   2.312  15.223  1.2082  1.9926 -0.6193
18341TIP3   OH276437   6.074   5.794   5.736 -0.3199  0.7621 -1.1981
18341TIP3    H176438   6.031   5.826   5.815 -0.5625 -1.9170 -0.1681
18341TIP3    H276439   6.165   5.823   5.745 -0.0109 -0.6867  0.7968
18342TIP3   OH276440   4.932   0.275   3.865  0.5189 -0.0912  0.1151
18342TIP3    H176441   4.910   0.306   3.953  1.6323  1.2854 -0.0589
18342TIP3    H276442   5.026   0.290   3.857  0.4706 -0.4073 -1.2449
18343TIP3   OH276443   0.111   3.108   0.065  0.0900 -0.1859  0.0144
18343TIP3    H176444   0.032   3.057   0.083  0.8951 -1.1003  1.0635
18343TIP3    H276445   0.176   3.076   0.128  1.5416 -0.0175 -1.3251
18344TIP3   OH276446   6.286   4.263   0.213  0.0406  0.3162 -0.3934
18344TIP3    H176447   6.197   4.237   0.237 -0.0631 -0.4871 -1.5762
18344TIP3    H276448   6.297   4.350   0.252 -0.7219 -0.1895  1.0125
18345TIP3   OH276449   3.552   0.837   0.244 -0.5304  0.1612 -0.2601
18345TIP3    H176450   3.472   0.864   0.290  0.1230 -0.4355  1.2849
18345TIP3    H276451   3.594   0.775   0.303  0.5155 -0.4119 -1.5563
18346TIP3   OH276452   3.177   2.450  13.713  0.0458  0.2958 -0.4225
18346TIP3    H176453   3.207   2.484  13.797  1.3734 -1.1803 -0.2574
18346TIP3    H276454   3.083   2.437  13.724 -0.2838  2.6312 -0.0879
18347TIP3   OH276455   5.352   4.993   1.161 -0.6315 -0.6230  0.5564
18347TIP3    H176456   5.288   5.043   1.212  2.4034  2.1199  2.0712
18347TIP3    H276457   5.346   5.030   1.073 -0.0325  0.8678  1.1027
18348TIP3   OH276458   2.030   6.386   0.919 -0.0915 -0.6800  0.5643
18348TIP3    H176459   1.995   6.297   0.926  0.2780 -1.0268 -1.3257
18348TIP3    H276460   2.112   6.383   0.969 -0.0592 -1.4235  0.4814
18349TIP3   OH276461   3.048   1.004  13.805  0.3068 -0.1527  0.1599
18349TIP3    H176462   3.011   0.990  13.718 -0.8378 -1.8298  0.8635
18349TIP3    H276463   3.017   1.091  13.831 -1.6390 -0.7368 -0.0430
18350TIP3   OH276464   3.187   1.978   1.870 -0.3233 -0.3298 -0.1532
18350TIP3    H176465   3.244   1.915   1.912 -1.7310 -2.1780 -0.8551
18350TIP3    H276466   3.101   1.965   1.911 -0.3694  2.1914  0.7108
18351TIP3   OH276467   5.567   1.669   2.539  0.2925 -0.7021 -0.2350
18351TIP3    H176468   5.524   1.685   2.454 -1.5685 -2.9511  0.1768
18351TIP3    H276469   5.646   1.620   2.517  0.5183 -0.1272 -0.7380
18352TIP3   OH276470   5.235   5.270  14.409 -0.4032 -0.3896 -0.2616
18352TIP3    H176471   5.273   5.240  14.326  0.4776 -1.0924  0.3784
18352TIP3    H276472   5.146   5.236  14.409 -0.6630  0.2423 -1.2381
18353TIP3   OH276473   3.484   6.696   4.688 -0.1216  0.5469  0.0545
18353TIP3    H176474   3.445   6.669   4.772 -0.1125  1.4390  0.3591
18353TIP3    H276475   3.410   6.730   4.637 -0.1155  0.0741 -0.2731
18354TIP3   OH276476   3.453   3.993   6.878  0.4200 -0.1044  0.2222
18354TIP3    H176477   3.491   4.069   6.833 -1.8827  1.4587  0.7468
18354TIP3    H276478   3.523   3.928   6.877  1.4530  0.8511 -3.0251
18355TIP3   OH276479   6.036   1.530   2.504 -0.2693  0.1156 -0.1356
18355TIP3    H176480   6.045   1.564   2.594  1.5744 -0.5382 -0.0223
18355TIP3    H276481   6.126   1.523   2.472 -0.8556 -0.3804 -1.7814
18356TIP3   OH276482   0.215   3.231   2.997 -0.3492  0.5793  0.7732
18356TIP3    H176483   0.194   3.152   3.047 -2.0643  0.7780  0.4058
18356TIP3    H276484   0.245   3.198   2.913 -2.2431  0.2882  0.1665
18357TIP3   OH276485   3.881   1.282   4.765 -0.3620 -0.0589 -0.4254
18357TIP3    H176486   3.852   1.302   4.854 -0.0984  0.7739 -0.5201
18357TIP3    H276487   3.959   1.335   4.752 -0.4312 -0.1202 -1.1740
18358TIP3   OH276488   3.745   4.502   6.696  0.6071 -0.1537  0.3207
18358TIP3    H176489   3.827   4.456   6.716 -0.2225 -1.5532  0.5866
18358TIP3    H276490   3.742   4.573   6.760  1.5609 -0.1316  0.3655
18359TIP3   OH276491   3.610   4.131  15.874 -0.3290  0.5307  0.1737
18359TIP3    H176492   3.587   4.075  15.948  0.1036  0.6438  0.4025
18359TIP3    H276493   3.676   4.191  15.910  1.2092 -0.5363 -0.7225
18360TIP3   OH276494   0.997   4.384  12.598 -0.3856 -0.0478 -0.0879
18360TIP3    H176495   1.007   4.425  12.511  1.9523 -2.4394 -1.0768
18360TIP3    H276496   1.062   4.428  12.653 -0.4903  0.1241 -0.1016
18361TIP3   OH276497   5.827   1.334   1.471 -0.0259 -0.7324  0.5149
18361TIP3    H176498   5.818   1.411   1.527  1.7871  0.9243 -1.3469
18361TIP3    H276499   5.770   1.268   1.512 -1.5823  1.5225  2.2148
18362TIP3   OH276500   1.608   3.864  14.416 -0.0406  0.1502  0.1442
18362TIP3    H176501   1.601   3.933  14.350 -1.1434 -0.4677 -0.4273
18362TIP3    H276502   1.563   3.898  14.493  0.9043  0.7204  0.4548
18363TIP3   OH276503   5.659   4.796  13.394  0.2342 -0.2754  0.2223
18363TIP3    H176504   5.699   4.711  13.416  0.9096  0.2916  1.2616
18363TIP3    H276505   5.728   4.860  13.410 -0.2768  0.4880 -0.5386
18364TIP3   OH276506   3.400   4.285  15.212 -0.0410 -0.5493  0.1749
18364TIP3    H176507   3.380   4.192  15.223 -0.7210 -0.2953  1.2690
18364TIP3    H276508   3.494   4.292  15.233 -0.1710 -0.8775  0.9050
18365TIP3   OH276509   0.900   0.929  11.792  0.6824  0.3247 -0.3190
18365TIP3    H176510   0.848   1.009  11.787  1.0908  0.6147 -0.0373
18365TIP3    H276511   0.948   0.937  11.875  1.5691  0.3117 -0.8196
18366TIP3   OH276512   4.916   4.739  15.814 -0.3647  0.7061 -0.5683
18366TIP3    H176513   4.985   4.738  15.747  0.6620  0.4632  0.4540
18366TIP3    H276514   4.929   4.656  15.862 -2.8164 -0.4557 -1.7565
18367TIP3   OH276515   0.074   5.596   0.055  0.1304 -0.5546  0.1811
18367TIP3    H176516   0.154   5.640   0.029  0.4212  0.8316  3.0076
18367TIP3    H276517   0.012   5.613  -0.016  1.5117  0.7335 -0.7686
18368TIP3   OH276518   0.627   4.634  10.840 -0.0673  0.2048 -0.0731
18368TIP3    H176519   0.538   4.600  10.845 -0.5282  0.7504 -3.0718
18368TIP3    H276520   0.682   4.555  10.839 -0.7312 -0.2683 -0.9497
18369TIP3   OH276521   3.581   5.820  13.964  0.4061  0.4959 -0.1357
18369TIP3    H176522   3.616   5.862  13.885 -0.9904  1.5702 -0.2260
18369TIP3    H276523   3.653   5.824  14.027  0.7068  2.0075 -0.5361
18370TIP3   OH276524   3.981   5.942  13.228 -0.3917  0.0443  0.9094
18370TIP3    H176525   4.060   5.979  13.269 -0.3340 -0.0432  0.8781
18370TIP3    H276526   4.015   5.885  13.159 -0.4634 -0.5530  1.3631
18371TIP3   OH276527   5.082   0.482   3.404  0.7048  0.7040  0.1128
18371TIP3    H176528   5.097   0.503   3.497 -1.5130 -0.4404  0.7929
18371TIP3    H276529   5.082   0.386   3.401 -0.4337  0.7112 -0.8178
18372TIP3   OH276530   2.336   3.093  14.286 -0.2042  0.3742  0.4062
18372TIP3    H176531   2.316   3.014  14.236 -0.3641 -1.2576  2.8480
18372TIP3    H276532   2.371   3.060  14.369  1.8246  2.9258  0.7016
18373TIP3   OH276533   5.882   1.591   1.631  0.7337  0.4979 -0.6687
18373TIP3    H176534   5.801   1.607   1.678  0.3602 -1.2429 -0.6701
18373TIP3    H276535   5.906   1.677   1.595  0.3210  1.5875  1.4988
18374TIP3   OH276536   4.760   3.769  15.327  0.4308 -0.4812 -0.1300
18374TIP3    H176537   4.746   3.749  15.419 -0.6044  2.8818  0.5519
18374TIP3    H276538   4.673   3.770  15.289  0.5433  1.2368 -0.3972
18375TIP3   OH276539   0.781   5.992   3.278 -0.0856  0.0820 -0.0631
18375TIP3    H176540   0.707   6.013   3.221  0.0987  1.9367  0.3328
18375TIP3    H276541   0.841   5.944   3.221 -0.3426  1.0273 -1.1817
18376TIP3   OH276542   6.067   3.931  11.876 -0.2608  0.2346  0.4855
18376TIP3    H176543   5.984   3.883  11.879 -1.2196  1.8187  0.4298
18376TIP3    H276544   6.058   3.990  11.801  1.8187 -1.0523 -0.9084
18377TIP3   OH276545   5.883   0.578  11.750  0.7619  0.2788  0.3571
18377TIP3    H176546   5.948   0.644  11.773  1.8476 -0.3330 -0.8486
18377TIP3    H276547   5.849   0.606  11.665 -1.3308  1.1328  1.4004
18378TIP3   OH276548   3.765   5.657   1.681 -0.1059 -0.0362 -0.2109
18378TIP3    H176549   3.787   5.572   1.717  1.0259 -0.6412 -2.2083
18378TIP3    H276550   3.709   5.697   1.747  0.3639 -1.8018  1.3305
18379TIP3   OH276551   1.121   0.947  12.026 -0.2368  0.1734  0.0850
18379TIP3    H176552   1.168   0.948  12.109 -2.0230 -2.5539  1.2740
18379TIP3    H276553   1.161   0.877  11.975  0.5192  1.4988 -1.2077
18380TIP3   OH276554   0.782   5.271   2.684 -0.0821 -0.0630 -0.4453
18380TIP3    H176555   0.829   5.332   2.740 -0.0163  0.6190 -1.2259
18380TIP3    H276556   0.841   5.196   2.674  0.0023 -0.0851  0.1817
18381TIP3   OH276557   1.905   5.140   4.812 -0.2099 -0.3417 -0.2630
18381TIP3    H176558   1.933   5.048   4.819 -2.4981 -0.9533  3.3684
18381TIP3    H276559   1.815   5.140   4.845  0.0733  3.3352  0.9380
18382TIP3   OH276560   4.428   2.384  13.083  0.2800 -0.5293  0.1586
18382TIP3    H176561   4.478   2.411  13.161  0.4131  0.6998 -0.3280
18382TIP3    H276562   4.341   2.362  13.117  0.3356 -0.0068  0.6648
18383TIP3   OH276563   3.264   3.632  14.844  0.3152  0.3765 -0.5775
18383TIP3    H176564   3.171   3.610  14.834  0.7919 -0.8014 -3.3930
18383TIP3    H276565   3.309   3.548  14.841  1.5261  0.9365  0.6765
18384TIP3   OH276566   4.567   1.771   6.473 -0.3021  0.6225  0.1068
18384TIP3    H176567   4.638   1.834   6.475 -0.0370  0.3341 -0.0717
18384TIP3    H276568   4.602   1.693   6.517 -0.1203  0.0967 -0.9329
18385TIP3   OH276569   4.918   3.971   4.869  0.6685 -0.2042 -0.2911
18385TIP3    H176570   4.979   4.026   4.919  0.5988 -0.4940  0.1261
18385TIP3    H276571   4.947   3.980   4.778  2.1733 -1.3647  0.0245
18386TIP3   OH276572   1.167   2.965   1.686  0.6445  0.1093  0.8838
18386TIP3    H176573   1.236   2.922   1.636  1.3098  0.5953  1.3737
18386TIP3    H276574   1.212   3.031   1.738 -0.2737  0.8517  0.7542
18387TIP3   OH276575   0.470   0.470   0.300 -0.3964  0.0345 -0.2414
18387TIP3    H176576   0.457   0.401   0.235  1.3379 -0.8704  0.2970
18387TIP3    H276577   0.413   0.445   0.372  0.1166 -0.8089 -0.1028
18388TIP3   OH276578   5.906   6.732  12.203  0.4504  0.4435  0.2552
18388TIP3    H176579   5.862   6.802  12.156  4.0677  2.5948 -0.2874
18388TIP3    H276580   5.886   6.653  12.153 -0.6117  1.7019 -1.3846
18389TIP3   OH276581   5.434   1.685  12.347 -0.2520 -0.3458  0.6297
18389TIP3    H176582   5.414   1.762  12.400  2.7524  1.3330 -0.4401
18389TIP3    H276583   5.487   1.630  12.405  0.5685  0.0997  0.3148
18390TIP3   OH276584   0.277   2.585  12.201 -0.0470 -0.5321 -0.0482
18390TIP3    H176585   0.356   2.622  12.163 -1.1656  0.3743 -1.6088
18390TIP3    H276586   0.221   2.566  12.126 -2.0097  0.5051  1.0845
18391TIP3   OH276587   1.194   5.735   4.042 -0.2909  0.2079 -0.3696
18391TIP3    H176588   1.101   5.756   4.046 -0.7966 -1.6514 -1.0441
18391TIP3    H276589   1.213   5.728   3.948  0.3810  0.0082 -0.2269
18392TIP3   OH276590   6.297   2.150   3.143 -0.8514  0.5310 -0.1360
18392TIP3    H176591   6.202   2.157   3.158 -0.7637 -1.7323  2.2426
18392TIP3    H276592   6.305   2.129   3.050 -3.0045 -2.1944  0.1466
18393TIP3   OH276593   2.501   5.554   0.385 -0.0920  0.4697 -0.3751
18393TIP3    H176594   2.555   5.587   0.457 -1.2427 -0.1013  0.7879
18393TIP3    H276595   2.555   5.486   0.344 -0.4879 -1.2908  1.8230
18394TIP3   OH276596   0.081   3.042  14.388 -0.5612 -0.1612  0.3352
18394TIP3    H176597   0.151   3.108  14.386  0.3683 -1.0165  2.1802
18394TIP3    H276598   0.000   3.093  14.381  0.1645  1.0683  0.5832
18395TIP3   OH276599   2.141   5.674   3.913  0.7728  0.0252  0.4433
18395TIP3    H176600   2.213   5.619   3.945  0.5856 -0.1192  0.6247
18395TIP3    H276601   2.165   5.762   3.941 -0.4600 -0.3631  3.0418
18396TIP3   OH276602   2.828   1.021   1.059 -0.0969  0.1074 -0.3339
18396TIP3    H176603   2.738   0.997   1.038  0.0127 -1.2324  0.5869
18396TIP3    H276604   2.862   1.062   0.980 -1.2053 -0.2679 -1.0161
18397TIP3   OH276605   6.127   1.209   2.384  0.5619  0.2746  0.0339
18397TIP3    H176606   6.045   1.247   2.350  0.7165 -0.6992 -1.5408
18397TIP3    H276607   6.194   1.272   2.360  0.3731  0.7395  0.7019
18398TIP3   OH276608   4.707   4.876  16.777 -0.2795  0.4528 -0.5109
18398TIP3    H176609   4.718   4.965  16.744  3.3604  0.4703  0.3009
18398TIP3    H276610   4.756   4.875  16.859 -2.8101 -1.5593  1.1361
18399TIP3   OH276611   3.651   2.536   1.520 -0.1764 -0.1173  0.6755
18399TIP3    H176612   3.731   2.588   1.506 -0.6030  0.7996  1.4947
18399TIP3    H276613   3.672   2.450   1.485  1.9287 -0.5015  2.6267
18400TIP3   OH276614   1.855   5.556   3.030 -0.2549  0.0022  0.1639
18400TIP3    H176615   1.925   5.490   3.022 -0.2279  0.0191  0.2668
18400TIP3    H276616   1.895   5.628   3.077 -0.4385 -0.1277  0.5244
18401TIP3   OH276617   3.384   6.212  16.441 -0.2164 -0.5001  0.4762
18401TIP3    H176618   3.348   6.169  16.519 -0.1970 -0.6782  0.3854
18401TIP3    H276619   3.307   6.231  16.387 -0.4913  1.4859  1.4527
18402TIP3   OH276620   4.953   1.866   0.440 -0.2213 -0.4335 -0.2727
18402TIP3    H176621   4.940   1.791   0.499  1.2485 -1.2987 -0.9943
18402TIP3    H276622   4.882   1.926   0.463  0.3560 -0.6513  2.4893
18403TIP3   OH276623   4.437   3.014  15.556 -0.1721 -0.0214 -0.0530
18403TIP3    H176624   4.441   2.979  15.468  0.0481  1.8054 -0.8116
18403TIP3    H276625   4.526   3.043  15.575 -0.2710 -0.1619  0.6820
18404TIP3   OH276626   3.502   5.118  13.804 -0.1512 -0.0229  0.8666
18404TIP3    H176627   3.455   5.040  13.832 -0.4324  0.5863  2.1631
18404TIP3    H276628   3.544   5.093  13.721 -1.4004 -1.0814  0.5326
18405TIP3   OH276629   0.630   0.730  13.305  0.6085 -0.2690  0.0965
18405TIP3    H176630   0.683   0.771  13.373  1.5464 -0.8587 -0.2622
18405TIP3    H276631   0.693   0.698  13.241 -0.2719  0.8160 -1.3805
18406TIP3   OH276632   1.399   6.146  13.368 -0.0279  0.3814  0.8243
18406TIP3    H176633   1.488   6.162  13.335  0.1227 -0.8150  0.6037
18406TIP3    H276634   1.355   6.103  13.295 -0.0139 -1.3593  1.7959
18407TIP3   OH276635   0.571   2.025  14.129  0.4208 -0.1122 -0.5084
18407TIP3    H176636   0.630   2.093  14.162 -0.3805 -0.1385  1.0988
18407TIP3    H276637   0.506   2.073  14.077 -0.0961  0.3827  0.5546
18408TIP3   OH276638   6.132   1.319   3.587 -0.0904 -0.4604 -0.6621
18408TIP3    H176639   6.117   1.323   3.492 -0.2064 -0.6671 -0.6516
18408TIP3    H276640   6.227   1.321   3.596 -0.0807  1.6437 -0.6991
18409TIP3   OH276641   0.657   0.421   3.341 -0.5287  0.1088 -0.2816
18409TIP3    H176642   0.613   0.337   3.357 -0.8614  0.2976 -0.2156
18409TIP3    H276643   0.671   0.458   3.428  0.1447 -0.1456 -0.2751
18410TIP3   OH276644   6.336   4.241  16.210  0.1491  0.2695  0.2444
18410TIP3    H176645   6.399   4.172  16.231 -1.3493 -1.3262 -0.2809
18410TIP3    H276646   6.295   4.213  16.129 -1.9713  0.7127  1.0855
18411TIP3   OH276647   3.605   4.249  13.951 -0.6541 -0.1334 -0.4983
18411TIP3    H176648   3.598   4.183  14.020 -0.6856 -0.7958 -1.1332
18411TIP3    H276649   3.693   4.236  13.914  0.1393  1.4723  0.6657
18412TIP3   OH276650   2.413   6.034  15.579  0.2301 -0.3373 -0.0435
18412TIP3    H176651   2.373   6.079  15.505 -1.0575 -0.1791  0.7123
18412TIP3    H276652   2.502   6.068  15.582 -0.4097  1.4845 -0.0776
18413TIP3   OH276653   0.823   1.883   1.390  1.0421  0.6392 -0.4183
18413TIP3    H176654   0.906   1.850   1.426  0.2441  0.8352  1.7377
18413TIP3    H276655   0.817   1.973   1.423 -0.1299  0.5500 -0.3565
18414TIP3   OH276656   2.695   1.222  14.402 -0.0615 -0.0650 -0.5674
18414TIP3    H176657   2.736   1.138  14.382  1.1683  0.4095 -0.1682
18414TIP3    H276658   2.746   1.286  14.353  0.6488  0.7043  1.0913
18415TIP3   OH276659   2.220   4.047  11.510  0.0865  0.3685  0.4331
18415TIP3    H176660   2.291   4.038  11.446 -0.4668 -1.2112 -0.0244
18415TIP3    H276661   2.254   4.108  11.576  1.3027  0.7568 -0.5054
18416TIP3   OH276662   1.295   4.746  13.260  0.4688 -0.1766 -0.4064
18416TIP3    H176663   1.383   4.724  13.227  1.4961  2.0190  0.6442
18416TIP3    H276664   1.311   4.806  13.332 -1.9399  1.0800 -0.8169
18417TIP3   OH276665   1.704   6.737  16.176  0.5127  0.1115 -0.3410
18417TIP3    H176666   1.663   6.762  16.094 -1.9381 -0.4654  0.6238
18417TIP3    H276667   1.791   6.777  16.172 -0.5549  2.5284 -1.9887
18418TIP3   OH276668   1.234   6.235  11.722  0.3590  0.1221 -0.2684
18418TIP3    H176669   1.283   6.318  11.720  0.0709  0.3063  0.3578
18418TIP3    H276670   1.302   6.168  11.725  0.5840  0.3750  0.5109
18419TIP3   OH276671   5.447   3.327  14.068  0.3497 -0.2794  0.0352
18419TIP3    H176672   5.388   3.360  14.000  0.6963  0.7900  0.2503
18419TIP3    H276673   5.507   3.270  14.020  0.8696  0.8139 -0.6483
18420TIP3   OH276674   0.125   3.027   0.705  0.1439 -0.2112  0.4104
18420TIP3    H176675   0.192   3.095   0.709  0.7579 -0.8270  0.9248
18420TIP3    H276676   0.051   3.068   0.660  1.9787 -0.4436 -3.1797
18421TIP3   OH276677   0.449   3.805  16.949 -0.1717  0.0048  0.4243
18421TIP3    H176678   0.429   3.717  16.918 -2.1523  0.5696 -0.1004
18421TIP3    H276679   0.385   3.861  16.904  2.5856  2.0978 -1.2317
18422TIP3   OH276680   2.442   6.082   5.198 -0.1026  0.1706 -0.6678
18422TIP3    H176681   2.482   5.999   5.222 -2.5021 -0.1633  2.8713
18422TIP3    H276682   2.369   6.058   5.141  0.1976  0.0339 -0.9984
18423TIP3   OH276683   1.756   0.513  13.164  0.1206  0.1073  0.1107
18423TIP3    H176684   1.707   0.477  13.091 -0.7093 -1.7937  1.5128
18423TIP3    H276685   1.703   0.587  13.194  0.5310  0.9794 -1.2217
18424TIP3   OH276686   4.556   5.059  15.758  0.2661 -0.0537 -0.2740
18424TIP3    H176687   4.607   5.103  15.826 -0.9477  0.7658  0.1409
18424TIP3    H276688   4.502   4.995  15.806  0.8093 -0.8442 -0.6943
18425TIP3   OH276689   1.260   2.738   1.171  0.4034 -0.4801 -0.3281
18425TIP3    H176690   1.325   2.807   1.180  0.3053 -0.4838  0.5449
18425TIP3    H276691   1.267   2.688   1.253 -0.2888 -0.8288 -0.4720
18426TIP3   OH276692   6.133   0.688   5.558  0.9284 -0.0210 -0.5009
18426TIP3    H176693   6.226   0.690   5.539  1.1930  0.5362  0.7316
18426TIP3    H276694   6.119   0.604   5.602  1.0154  0.2429  0.0414
18427TIP3   OH276695   0.091   4.855   6.050 -0.2469 -0.5888  0.0544
18427TIP3    H176696   0.065   4.780   5.997  1.2147 -0.2902 -1.1705
18427TIP3    H276697   0.151   4.818   6.116 -1.1616 -0.7869  0.7908
18428TIP3   OH276698   4.860   1.082   5.932 -0.2220 -0.9325 -0.8415
18428TIP3    H176699   4.875   1.140   6.006 -1.3596 -1.0813 -0.4781
18428TIP3    H276700   4.846   1.140   5.857  0.1823 -0.7752 -0.7977
18429TIP3   OH276701   5.742   6.318  17.248 -0.1991 -0.0931 -0.4231
18429TIP3    H176702   5.834   6.303  17.270 -0.0420  1.3250 -0.0389
18429TIP3    H276703   5.744   6.367  17.166 -0.5188  1.5534  0.5021
18430TIP3   OH276704   3.860   2.475   2.634 -0.3071 -0.4885  0.0696
18430TIP3    H176705   3.842   2.427   2.715 -0.3556  0.4418  0.6139
18430TIP3    H276706   3.777   2.471   2.585 -0.8272  0.4521  0.8487
18431TIP3   OH276707   6.396   6.219  13.576 -0.6154  0.4984  0.4078
18431TIP3    H176708   6.461   6.151  13.560 -1.7123 -0.5187  0.0772
18431TIP3    H276709   6.434   6.274  13.644  1.7627  1.5788 -1.6151
18432TIP3   OH276710   5.255   5.905   3.273 -0.2026  0.6363 -0.2309
18432TIP3    H176711   5.265   5.810   3.272 -0.9819  0.4959  1.4232
18432TIP3    H276712   5.180   5.923   3.217  1.2068  0.5097 -2.2498
18433TIP3   OH276713   6.618   2.646   5.060 -0.2779 -0.3583  0.4961
18433TIP3    H176714   6.638   2.559   5.093 -1.9713 -1.2629 -0.7152
18433TIP3    H276715   6.538   2.635   5.008  0.9645  1.3670 -2.0125
18434TIP3   OH276716   3.510   4.495  11.329 -0.4788 -0.5910 -0.0047
18434TIP3    H176717   3.420   4.504  11.299 -1.6997 -3.1063  2.4474
18434TIP3    H276718   3.554   4.446  11.260 -1.1907 -0.0543 -0.8604
18435TIP3   OH276719   5.174   2.158   2.183 -0.0461  0.1886 -0.3286
18435TIP3    H176720   5.172   2.062   2.178  0.4520  0.2169 -1.5109
18435TIP3    H276721   5.184   2.177   2.276  0.2786 -0.9267 -0.1191
18436TIP3   OH276722   5.753   2.122   1.811  1.1397  0.0894 -0.0557
18436TIP3    H176723   5.791   2.203   1.844  0.8525 -0.5064  1.8761
18436TIP3    H276724   5.728   2.142   1.721  0.5974  2.3178  0.5291
18437TIP3   OH276725   0.566   2.301   3.407  0.1354 -0.0891 -0.2873
18437TIP3    H176726   0.606   2.232   3.353 -1.3436  0.8216 -2.6960
18437TIP3    H276727   0.475   2.273   3.418  0.2082  0.1664  1.0893
18438TIP3   OH276728   6.606   4.651  11.077  0.1453  0.3231 -0.3066
18438TIP3    H176729   6.620   4.745  11.094 -0.6260  0.6591 -1.4302
18438TIP3    H276730   6.532   4.648  11.017  0.3255 -1.0052 -0.4929
18439TIP3   OH276731   3.856   1.598   2.444 -0.1244 -0.1276  0.4617
18439TIP3    H176732   3.781   1.651   2.420  0.9989  0.9528 -0.8596
18439TIP3    H276733   3.881   1.630   2.531 -1.5764 -0.9815  1.2175
18440TIP3   OH276734   1.720   3.423  10.518  0.5904  0.0027 -0.0170
18440TIP3    H176735   1.701   3.416  10.424  1.6286  0.3555 -0.2687
18440TIP3    H276736   1.634   3.436  10.559  0.0751 -0.6543 -0.8634
18441TIP3   OH276737   2.693   1.795   2.635  0.2787 -0.7550  0.6981
18441TIP3    H176738   2.736   1.710   2.623  2.1462  0.3312 -0.8902
18441TIP3    H276739   2.601   1.773   2.653  0.4177 -3.0842 -0.9970
18442TIP3   OH276740   5.850   3.515  14.721 -0.2479 -0.2365  0.2522
18442TIP3    H176741   5.845   3.455  14.646 -2.1049 -0.9234  0.8689
18442TIP3    H276742   5.766   3.560  14.721 -0.7672 -1.0700  2.5613
18443TIP3   OH276743   3.322   5.957   4.352 -0.3224 -0.4182  0.0015
18443TIP3    H176744   3.340   6.042   4.313  0.3528  0.0093  1.1823
18443TIP3    H276745   3.375   5.956   4.432 -1.6531 -1.2243  0.9133
18444TIP3   OH276746   4.384   2.225  14.531  0.1077  0.3687  0.0070
18444TIP3    H176747   4.348   2.309  14.505 -0.2282  0.3251  0.3230
18444TIP3    H276748   4.343   2.206  14.615 -1.7295 -1.2538 -1.1711
18445TIP3   OH276749   4.013   1.520  12.461  0.0392  0.2518  0.3488
18445TIP3    H176750   3.960   1.578  12.516 -4.3974 -3.1235  0.2149
18445TIP3    H276751   3.978   1.533  12.373  2.3366  0.6804 -0.5599
18446TIP3   OH276752   1.072   5.287  16.221 -0.2922 -0.9914  0.3479
18446TIP3    H176753   1.024   5.215  16.263 -1.0662 -1.0986 -0.6676
18446TIP3    H276754   1.139   5.243  16.169 -0.5972 -0.9806 -0.0642
18447TIP3   OH276755   4.289   2.434  11.834 -0.1879 -0.2434 -0.1029
18447TIP3    H176756   4.374   2.473  11.815  0.8386 -1.4273  1.6960
18447TIP3    H276757   4.274   2.453  11.927 -1.7856 -0.2671 -0.3237
18448TIP3   OH276758   2.868   4.124   3.042  0.3891  0.7276  0.3656
18448TIP3    H176759   2.896   4.162   2.959  2.5908  1.1136  1.2044
18448TIP3    H276760   2.880   4.195   3.106  1.4557 -0.3767  1.4393
18449TIP3   OH276761   0.111   6.234  13.305 -0.2562  0.1452  0.0489
18449TIP3    H176762   0.076   6.146  13.289  0.5661 -0.1867  0.0419
18449TIP3    H276763   0.119   6.240  13.400 -2.1814  0.9631  0.2072
18450TIP3   OH276764   0.335   6.771  16.833  0.4708 -0.0740  0.3448
18450TIP3    H176765   0.263   6.832  16.850  1.3377  1.1365 -0.2263
18450TIP3    H276766   0.292   6.694  16.795 -0.6971 -0.0658  1.5529
18451TIP3   OH276767   3.490   2.813   0.197 -0.1198  0.3257  0.1822
18451TIP3    H176768   3.413   2.762   0.220 -0.1598  0.7399  0.9957
18451TIP3    H276769   3.533   2.762   0.128 -0.6824 -0.3086  0.2926
18452TIP3   OH276770   0.264   0.980   0.347 -0.8832  0.0163  0.1795
18452TIP3    H176771   0.322   0.914   0.309  1.8036  3.2936 -2.0590
18452TIP3    H276772   0.293   0.988   0.438  1.2902  0.5221 -0.4892
18453TIP3   OH276773   3.686   2.271  14.277  0.5026  0.2139  0.1611
18453TIP3    H176774   3.628   2.313  14.341  0.6184 -0.9480  1.0635
18453TIP3    H276775   3.772   2.310  14.294  0.4757  0.1192  0.5357
18454TIP3   OH276776   4.684   0.468  16.081  0.1989  0.3343 -0.3909
18454TIP3    H176777   4.700   0.426  15.997  1.6338  0.3521 -0.1421
18454TIP3    H276778   4.686   0.397  16.145 -0.2285  0.4123 -0.2812
18455TIP3   OH276779   2.450   1.305   5.046  0.4231 -0.2706 -0.9827
18455TIP3    H176780   2.405   1.365   5.105  2.0562 -0.0370  0.0588
18455TIP3    H276781   2.381   1.245   5.016 -0.9648  1.2590 -1.0001
18456TIP3   OH276782   3.672   0.674   0.418  0.3449  0.0290 -0.2064
18456TIP3    H176783   3.671   0.694   0.512  0.3440  1.0815 -0.4204
18456TIP3    H276784   3.758   0.701   0.388  0.2518 -0.0614 -0.5598
18457TIP3   OH276785   5.190   0.013   2.660  0.4100  0.4141 -0.0748
18457TIP3    H176786   5.222  -0.042   2.588 -1.4595 -0.6267 -0.1763
18457TIP3    H276787   5.228  -0.025   2.739 -0.7838 -1.0396 -0.1514
18458TIP3   OH276788   5.520   0.345  13.961  0.9841 -0.6076  0.2227
18458TIP3    H176789   5.485   0.275  13.907 -1.4332 -0.0150  0.9308
18458TIP3    H276790   5.555   0.301  14.039  2.5356 -1.2566 -0.7847
18459TIP3   OH276791   0.115   2.808   0.987 -0.0112  1.3564 -0.1150
18459TIP3    H176792   0.191   2.777   1.036  0.2259  1.4341 -0.4277
18459TIP3    H276793   0.067   2.728   0.964  0.6584  1.2061 -1.0192
18460TIP3   OH276794   3.171   6.241   3.529  0.4623  1.1233 -0.8003
18460TIP3    H176795   3.252   6.289   3.514  1.1490  0.1822 -0.2456
18460TIP3    H276796   3.200   6.155   3.561 -0.7214  0.4342 -1.4982
18461TIP3   OH276797   3.736   2.120   0.836 -0.4341 -0.3330  0.1072
18461TIP3    H176798   3.657   2.069   0.820 -0.4400  0.1960 -1.9364
18461TIP3    H276799   3.785   2.113   0.754 -0.4646  2.9512 -0.3062
18462TIP3   OH276800   6.402   2.373  12.018  0.7664  0.5248  0.2575
18462TIP3    H176801   6.484   2.420  12.033  2.3655 -1.7985 -0.5148
18462TIP3    H276802   6.382   2.334  12.103  1.3499 -0.1368  0.1071
18463TIP3   OH276803   6.156   3.089  14.407  0.3210 -0.1296 -0.6712
18463TIP3    H176804   6.162   3.085  14.312 -0.0061 -1.5055 -0.6550
18463TIP3    H276805   6.090   3.024  14.430 -0.6577  1.2012  0.4156
18464TIP3   OH276806   4.594   2.407   0.016 -0.4921 -0.0029 -0.1401
18464TIP3    H176807   4.626   2.429  -0.072  1.6179 -0.9236  0.3452
18464TIP3    H276808   4.499   2.415   0.009 -0.3576  0.3001 -2.4069
18465TIP3   OH276809   1.905   6.195  11.934 -0.0308  0.1612 -0.0961
18465TIP3    H176810   1.931   6.113  11.977  0.7526  0.3622 -0.1851
18465TIP3    H276811   1.986   6.243  11.922 -0.6319  1.6407  1.3395
18466TIP3   OH276812   3.390   0.316   6.002  0.5434  0.0934  0.0648
18466TIP3    H176813   3.333   0.294   6.076 -1.8462  0.2109 -1.5983
18466TIP3    H276814   3.375   0.410   5.988  0.6169 -0.0161 -0.8054
18467TIP3   OH276815   2.806   2.575  14.765  0.6074  0.2301 -0.4089
18467TIP3    H176816   2.827   2.521  14.842  0.4158  0.3479 -0.2739
18467TIP3    H276817   2.847   2.528  14.692 -1.9314 -1.6886 -0.7540
18468TIP3   OH276818   2.643   5.310  10.795  0.2827  0.4325 -0.2631
18468TIP3    H176819   2.552   5.294  10.820  0.5048  0.7157  0.7735
18468TIP3    H276820   2.640   5.391  10.745 -0.0716  0.2531 -0.5437
18469TIP3   OH276821   5.528   1.370  15.267  0.4133 -0.2611 -0.4934
18469TIP3    H176822   5.480   1.343  15.189  0.3195  1.3657 -1.0467
18469TIP3    H276823   5.620   1.370  15.241  0.6040 -1.7644  0.0681
18470TIP3   OH276824   1.168   1.406  17.166  0.1326 -0.1611  0.7080
18470TIP3    H176825   1.207   1.492  17.148  1.1856 -0.9658 -1.1662
18470TIP3    H276826   1.075   1.424  17.182  0.4475  1.3652  1.0064
18471TIP3   OH276827   3.064   3.585   2.969 -0.2288  0.1483  0.0715
18471TIP3    H176828   3.091   3.620   2.884  1.3112  1.4821  1.0517
18471TIP3    H276829   3.067   3.490   2.957  2.9723  0.2060 -0.5547
18472TIP3   OH276830   4.165   4.255  12.343  0.0840  0.0808 -0.7572
18472TIP3    H176831   4.131   4.177  12.300 -0.4652 -1.1478  1.7932
18472TIP3    H276832   4.250   4.270  12.299  0.1420 -1.8324 -1.4140
18473TIP3   OH276833   6.672   2.440  15.678  0.4160  0.5322  0.6901
18473TIP3    H176834   6.706   2.433  15.767 -0.7949 -1.2516  1.0661
18473TIP3    H276835   6.699   2.358  15.636 -2.4094 -0.5316  0.7259
18474TIP3   OH276836   1.985   6.598  14.281  0.6289 -0.4510  0.0917
18474TIP3    H176837   1.912   6.659  14.291  2.4064  1.8260  0.1001
18474TIP3    H276838   1.990   6.581  14.187  0.7816  0.3368 -0.0490
18475TIP3   OH276839   6.491   3.558   5.243 -0.5790 -0.6486  0.1021
18475TIP3    H176840   6.455   3.558   5.331 -2.2732 -0.6411 -0.5416
18475TIP3    H276841   6.477   3.647   5.211  1.3592 -0.2334  0.3011
18476TIP3   OH276842   0.772   4.407   1.296  0.2067  0.2454 -0.0793
18476TIP3    H176843   0.695   4.462   1.302 -0.6648 -1.0356  1.0251
18476TIP3    H276844   0.770   4.371   1.207  1.6670  3.1120 -1.4174
18477TIP3   OH276845   5.467   4.818  13.719 -0.3123  0.6940  0.1743
18477TIP3    H176846   5.464   4.873  13.641  0.4744  0.2650 -0.1579
18477TIP3    H276847   5.426   4.872  13.787  2.7000  2.8003  0.5271
18478TIP3   OH276848   6.155   3.567  15.311  0.2040  0.0768  0.3075
18478TIP3    H176849   6.184   3.495  15.368 -0.1091 -0.5937 -0.3623
18478TIP3    H276850   6.122   3.523  15.233  0.4522  0.9763 -0.3168
18479TIP3   OH276851   3.118   0.516  16.362  0.1906  0.4132  0.1963
18479TIP3    H176852   3.057   0.551  16.426  0.1491  0.5491  0.0816
18479TIP3    H276853   3.064   0.495  16.286  0.2815  0.5008  0.1070
18480TIP3   OH276854   3.955   2.835  16.723 -0.0065 -0.3268 -0.3793
18480TIP3    H176855   3.973   2.928  16.706  2.4515 -0.7052 -0.2179
18480TIP3    H276856   3.868   2.835  16.763 -0.2303  1.8594 -0.7058
18481TIP3   OH276857   4.636   1.410   1.649  0.0449  0.1167  0.1814
18481TIP3    H176858   4.639   1.324   1.690  0.0403 -1.3911 -2.6929
18481TIP3    H276859   4.544   1.422   1.626 -0.0963  1.3018  1.2760
18482TIP3   OH276860   0.545   4.243  14.364 -0.0707  0.0929  0.1169
18482TIP3    H176861   0.589   4.278  14.286  1.6030  0.0285  0.9890
18482TIP3    H276862   0.612   4.192  14.409 -0.9032  0.3679  1.7625
18483TIP3   OH276863   5.449   2.462   3.223  0.1883  0.8247  0.4941
18483TIP3    H176864   5.364   2.476   3.264 -0.1169  1.2484 -0.2696
18483TIP3    H276865   5.431   2.404   3.149  0.4750  1.3166  0.0285
18484TIP3   OH276866   4.829   6.232  11.196 -0.1356 -0.0350  0.0671
18484TIP3    H176867   4.898   6.218  11.131 -0.7844 -1.6499 -0.3255
18484TIP3    H276868   4.815   6.326  11.195  1.1796  0.1889 -0.7645
18485TIP3   OH276869   1.675   1.721  12.924 -0.4781  0.1361  0.3865
18485TIP3    H176870   1.756   1.735  12.875 -0.2630  0.3619  0.7954
18485TIP3    H276871   1.688   1.637  12.968  0.1557  0.8527  1.6245
18486TIP3   OH276872   1.026   1.986  11.980 -0.0304  0.1098 -0.3554
18486TIP3    H176873   0.956   2.008  11.918 -0.4692  1.3070  0.5325
18486TIP3    H276874   1.097   2.047  11.958 -0.2839  0.7204  0.4507
18487TIP3   OH276875   2.523   5.240  11.475 -0.8407  0.2843  0.0388
18487TIP3    H176876   2.570   5.158  11.461 -2.0389 -0.6745  1.3495
18487TIP3    H276877   2.510   5.244  11.570 -1.6316  1.5198 -0.1070
18488TIP3   OH276878   5.822   4.614  13.532  0.2078 -0.7098 -0.0944
18488TIP3    H176879   5.885   4.662  13.478  0.2120  0.4758  0.9190
18488TIP3    H276880   5.851   4.522  13.527  0.6831 -0.5021 -1.4235
18489TIP3   OH276881   4.014   0.731   3.723 -0.0393 -0.3783  0.8625
18489TIP3    H176882   4.037   0.742   3.631 -0.6251  0.5698  0.8086
18489TIP3    H276883   4.087   0.769   3.771  0.4028 -1.1427  0.7990
18490TIP3   OH276884   6.730   2.527   3.691  0.6007 -1.2688  0.1752
18490TIP3    H176885   6.690   2.521   3.777  1.5308 -0.6100  0.6680
18490TIP3    H276886   6.657   2.541   3.631  0.0812 -0.1013  1.0495
18491TIP3   OH276887   5.842   0.301  15.999  0.1514 -0.2362  0.1120
18491TIP3    H176888   5.811   0.294  16.089 -0.1294  2.9899  0.3663
18491TIP3    H276889   5.803   0.382  15.966  2.8852  0.4090 -1.8465
18492TIP3   OH276890   0.675   1.014  14.202  0.0656  0.7246  0.5924
18492TIP3    H176891   0.585   1.035  14.227 -0.2366  0.8365 -0.5372
18492TIP3    H276892   0.682   1.040  14.111  0.7210 -0.9184  0.1332
18493TIP3   OH276893   1.731   5.895  16.338  0.3666 -0.7951  0.1124
18493TIP3    H176894   1.687   5.957  16.280  0.4430 -0.6961  0.1600
18493TIP3    H276895   1.659   5.847  16.380  0.1759  0.9233  1.9201
18494TIP3   OH276896   2.687   1.215   3.008 -0.2521 -0.3430 -0.3522
18494TIP3    H176897   2.741   1.194   2.932  0.8616 -1.9136  0.8157
18494TIP3    H276898   2.601   1.178   2.988  0.0739 -0.8892 -0.7697
18495TIP3   OH276899   1.757   4.788  15.074  0.1210 -0.1242 -0.1482
18495TIP3    H176900   1.676   4.744  15.049 -0.7380  0.9353  0.7033
18495TIP3    H276901   1.825   4.741  15.026 -0.7936 -2.0801  0.3799
18496TIP3   OH276902   6.100   0.563   4.078  0.0226 -0.6624  0.0471
18496TIP3    H176903   6.042   0.522   4.142 -0.4915  0.0154  0.0202
18496TIP3    H276904   6.164   0.610   4.131 -0.4907  0.0213  0.0728
18497TIP3   OH276905   5.299   3.502   5.017  0.4270  0.5578 -0.2652
18497TIP3    H176906   5.294   3.421   5.068  1.3133  0.7935  0.2201
18497TIP3    H276907   5.391   3.506   4.989  0.7569  2.0831  0.8949
18498TIP3   OH276908   6.481   3.398  16.475 -0.3752 -0.4802  0.0250
18498TIP3    H176909   6.395   3.420  16.440  0.0910  2.7104  0.5991
18498TIP3    H276910   6.543   3.428  16.409  0.3490 -0.4426  0.7053
18499TIP3   OH276911   6.343   3.274   6.112  0.0738  0.2130  0.4381
18499TIP3    H176912   6.342   3.302   6.021  0.7027  0.1163  0.3914
18499TIP3    H276913   6.270   3.212   6.120  0.4838 -0.3627 -0.1995
18500TIP3   OH276914   5.803   1.169   1.025 -0.1435 -0.3932  0.0626
18500TIP3    H176915   5.738   1.099   1.022  0.4455 -0.9165 -0.5773
18500TIP3    H276916   5.811   1.199   0.935 -0.4210  0.5338  0.3360
18501TIP3   OH276917   4.999   4.301  11.407 -0.3585  0.0975 -0.0994
18501TIP3    H176918   4.975   4.332  11.319  1.2906  0.1838 -0.5435
18501TIP3    H276919   4.958   4.214  11.414 -0.2640 -0.0328 -1.0684
18502TIP3   OH276920   0.218   4.386   4.607  0.4330  0.2071 -0.2359
18502TIP3    H176921   0.275   4.459   4.628 -2.2034  2.6623 -0.9418
18502TIP3    H276922   0.213   4.334   4.687  0.4770  2.2240  1.1451
18503TIP3   OH276923   0.126   5.776  12.912 -0.0624 -0.3946  0.2709
18503TIP3    H176924   0.077   5.718  12.854 -0.7140  0.4381 -0.0223
18503TIP3    H276925   0.204   5.725  12.936 -0.6997 -1.4514  0.1582
18504TIP3   OH276926   1.490   1.074   4.853 -0.1477  0.2253 -0.0094
18504TIP3    H176927   1.515   1.140   4.788 -0.2493  1.8876  1.5692
18504TIP3    H276928   1.398   1.054   4.832  0.7386 -1.8813 -2.4535
18505TIP3   OH276929   2.022   2.149  15.500  0.2121  0.2112  0.5062
18505TIP3    H176930   2.026   2.112  15.412 -2.0313 -1.4629  1.0215
18505TIP3    H276931   1.928   2.157  15.518  0.6084  2.6222  1.9422
18506TIP3   OH276932   5.142   2.144   0.966  0.3287  0.1875 -0.0923
18506TIP3    H176933   5.084   2.158   1.041 -0.6852  0.1351 -0.8388
18506TIP3    H276934   5.152   2.049   0.961  1.1228  0.2310  0.4962
18507TIP3   OH276935   0.500   1.059  12.786  0.0830 -0.2077  0.3741
18507TIP3    H176936   0.521   1.137  12.837 -0.3058 -1.6494  2.9254
18507TIP3    H276937   0.582   1.036  12.743  0.5823  0.7944  0.7597
18508TIP3   OH276938   0.136   2.580  13.531 -0.1049 -0.7549  0.4213
18508TIP3    H176939   0.210   2.537  13.489  0.8208 -0.9550  2.1763
18508TIP3    H276940   0.129   2.538  13.617 -1.0365  0.5915  1.0479
18509TIP3   OH276941   5.658   0.858   2.660  0.1331  0.0037 -0.1616
18509TIP3    H176942   5.712   0.868   2.581  0.5854 -1.7737 -0.1226
18509TIP3    H276943   5.640   0.947   2.688  1.6576  0.6672 -1.1410
18510TIP3   OH276944   2.596   5.932  13.077 -0.1463 -0.0907  0.0688
18510TIP3    H176945   2.532   5.925  13.006 -0.0546  1.8961 -0.2718
18510TIP3    H276946   2.673   5.973  13.036  2.1080 -3.8309  0.0477
18511TIP3   OH276947   0.558   3.185  13.923  0.3158 -0.4678  0.1403
18511TIP3    H176948   0.598   3.272  13.928  0.0111 -0.3873  1.4997
18511TIP3    H276949   0.536   3.174  13.831 -0.6696  1.3748  0.1130
18512TIP3   OH276950   0.187   4.032  15.277 -0.8893 -0.1093 -0.1034
18512TIP3    H176951   0.102   4.015  15.237 -0.7174  1.5388 -1.2632
18512TIP3    H276952   0.168   4.043  15.370 -1.8375 -0.3887 -0.2481
18513TIP3   OH276953   1.459   0.420   2.325 -0.3376 -0.5800  0.3250
18513TIP3    H176954   1.383   0.461   2.366 -0.3820 -0.8405  0.5036
18513TIP3    H276955   1.530   0.432   2.388 -0.1336  0.0030 -0.0088
18514TIP3   OH276956   2.513   5.771  16.266 -0.4447 -0.5240  0.4323
18514TIP3    H176957   2.563   5.853  16.268  0.1921 -0.9267  1.7427
18514TIP3    H276958   2.526   5.732  16.352 -0.7956 -1.9889 -0.1434
18515TIP3   OH276959   2.214   4.164  16.825  0.1539 -0.5044  0.4459
18515TIP3    H176960   2.216   4.168  16.920 -1.1440 -0.0236  0.4684
18515TIP3    H276961   2.126   4.135  16.803  0.6753 -1.3797 -0.6009
18516TIP3   OH276962   1.718   3.898  12.173 -0.1518 -0.3020 -0.2451
18516TIP3    H176963   1.709   3.992  12.185  1.0570 -0.2391  0.2857
18516TIP3    H276964   1.728   3.863  12.261  1.0328 -0.7343 -0.5362
18517TIP3   OH276965   3.428   0.078   5.567 -0.1756  0.7640 -0.1552
18517TIP3    H176966   3.455   0.151   5.623 -3.1644  2.4803 -0.7489
18517TIP3    H276967   3.379   0.020   5.625  0.6285  0.1361 -0.0826
18518TIP3   OH276968   0.144   2.188  11.067  0.2682  0.1761 -0.1187
18518TIP3    H176969   0.133   2.101  11.104  0.2743  0.9010  1.6467
18518TIP3    H276970   0.091   2.187  10.986  0.7177 -1.6087 -0.4114
18519TIP3   OH276971   3.914   6.595   4.711 -0.4414  0.6011 -0.2720
18519TIP3    H176972   3.981   6.625   4.650 -1.8705  1.7733 -1.3368
18519TIP3    H276973   3.835   6.588   4.658 -1.2644 -0.3839  1.0226
18520TIP3   OH276974   1.516   1.940  10.627 -0.4269  0.4081 -0.6463
18520TIP3    H176975   1.439   1.887  10.605  0.6160 -1.2096 -0.5350
18520TIP3    H276976   1.483   2.030  10.626 -1.9058 -0.0845 -2.3825
18521TIP3   OH276977   6.591   5.363   3.977 -0.6375  0.1795  0.7653
18521TIP3    H176978   6.503   5.402   3.977 -0.5690  0.3443  0.2153
18521TIP3    H276979   6.601   5.329   3.888 -0.8283 -1.3950  1.2958
18522TIP3   OH276980   4.262   2.962   1.094  0.1555  0.1660 -0.0083
18522TIP3    H176981   4.346   3.006   1.105  0.0347  0.8055 -1.3574
18522TIP3    H276982   4.259   2.897   1.164  1.7937  0.1028  0.0405
18523TIP3   OH276983   0.162   4.994  16.303  0.8714  0.6953 -0.7361
18523TIP3    H176984   0.074   5.021  16.277 -0.0921 -0.0927  1.4912
18523TIP3    H276985   0.220   5.033  16.236 -0.9999  2.5449 -1.3881
18524TIP3   OH276986   0.035   5.490   1.433  0.3434 -0.4171  0.7919
18524TIP3    H176987   0.065   5.403   1.461 -2.8118 -1.9412 -0.0792
18524TIP3    H276988   0.012   5.535   1.514  2.1316 -0.2460  1.2617
18525TIP3   OH276989   0.539   6.690  12.202  1.0718 -0.6776 -0.1716
18525TIP3    H176990   0.614   6.750  12.199  0.1796  0.5303  0.7695
18525TIP3    H276991   0.496   6.710  12.284 -0.1901 -1.4862 -0.6157
18526TIP3   OH276992   5.337   3.268   1.122 -0.2230  0.2036 -0.2554
18526TIP3    H176993   5.293   3.194   1.166 -2.3889  0.4645 -1.8058
18526TIP3    H276994   5.288   3.280   1.041  0.6465  2.7900 -0.4889
18527TIP3   OH276995   1.061   5.862  12.242 -0.4467 -0.1055 -0.2456
18527TIP3    H176996   1.063   5.823  12.154  1.0836 -0.3641 -0.1150
18527TIP3    H276997   1.093   5.952  12.229  0.1159 -0.2510  0.0816
18528TIP3   OH276998   3.323   5.136   4.601 -0.2526  0.0618 -0.2969
18528TIP3    H176999   3.330   5.048   4.564  0.0686  0.3550 -0.9567
18528TIP3    H277000   3.390   5.139   4.670  0.5346  0.1489 -1.0418
18529TIP3   OH277001   0.219   3.280  13.643 -0.0134 -0.1565  0.4021
18529TIP3    H177002   0.221   3.224  13.721 -0.9880 -0.0530  0.5075
18529TIP3    H277003   0.234   3.220  13.570  0.3631 -0.3343  0.6195
18530TIP3   OH277004   4.715   1.608   1.032 -0.7241  0.4222 -0.4761
18530TIP3    H177005   4.742   1.545   1.098 -1.7940 -1.1634 -1.4810
18530TIP3    H277006   4.779   1.679   1.039  0.1326 -0.4473  1.1358
18531TIP3   OH277007   0.901   6.409   5.638 -0.6829  0.0387  0.4218
18531TIP3    H177008   0.929   6.407   5.730 -0.5220 -0.3849  0.3701
18531TIP3    H277009   0.823   6.354   5.636 -1.4393  1.0872  0.5334
18532TIP3   OH277010   4.145   5.839  16.793 -0.0320  0.5306  0.5825
18532TIP3    H177011   4.071   5.812  16.738  0.6374  1.1653 -0.6894
18532TIP3    H277012   4.215   5.860  16.730  0.2348  2.9285  1.5660
18533TIP3   OH277013   4.267   1.790   1.972 -0.0517 -0.2455  0.4756
18533TIP3    H177014   4.175   1.810   1.951  0.4680  0.7004 -1.0302
18533TIP3    H277015   4.295   1.864   2.026 -0.2323 -0.6681  1.1626
18534TIP3   OH277016   5.438   3.834  12.605  0.5052  0.1491 -0.1692
18534TIP3    H177017   5.440   3.746  12.568 -0.5047 -0.0334  0.1725
18534TIP3    H277018   5.522   3.842  12.651  1.3591  0.0365 -1.6591
18535TIP3   OH277019   0.503   1.141  14.806 -0.7345 -0.0898  0.3783
18535TIP3    H177020   0.416   1.179  14.798 -0.0235  1.2783 -1.7205
18535TIP3    H277021   0.541   1.147  14.718  0.6319 -2.8570  0.6342
18536TIP3   OH277022   4.332   6.421  15.101 -0.2771 -0.1434  0.5845
18536TIP3    H177023   4.366   6.429  15.190 -3.1101  2.1249  1.5996
18536TIP3    H277024   4.248   6.467  15.103 -0.3301  0.2314 -3.3397
18537TIP3   OH277025   2.378   5.036   1.541 -0.1148 -0.8849 -0.1677
18537TIP3    H177026   2.373   5.037   1.637  0.2829 -0.2870 -0.1456
18537TIP3    H277027   2.471   5.051   1.522 -0.3244 -0.1512 -0.6581
18538TIP3   OH277028   5.896   0.493   1.116 -0.0111 -0.3257 -0.0846
18538TIP3    H177029   5.833   0.422   1.129  1.4487 -1.5203  0.7658
18538TIP3    H277030   5.939   0.502   1.201 -1.2912  2.7656  0.3554
18539TIP3   OH277031   3.018   4.581   2.573  0.1020  0.2589  0.3317
18539TIP3    H177032   3.081   4.514   2.600  0.9733  0.2125 -1.6638
18539TIP3    H277033   2.939   4.531   2.550  0.6121 -0.0704 -0.7544
18540TIP3   OH277034   4.164   6.044  12.345 -0.4186 -0.1093  0.4084
18540TIP3    H177035   4.127   5.976  12.402  0.3414 -0.5643  0.3856
18540TIP3    H277036   4.244   6.071  12.390  1.6141 -2.2989 -1.5688
18541TIP3   OH277037   5.732   6.699  14.953 -0.0959  0.1108  0.1852
18541TIP3    H177038   5.709   6.623  14.900 -1.0765  1.4939 -1.4974
18541TIP3    H277039   5.823   6.718  14.930  0.1358 -0.5106  0.5777
18542TIP3   OH277040   3.262   6.367  13.757  0.5295 -0.1637  0.0457
18542TIP3    H177041   3.269   6.367  13.661  0.1022 -2.6474 -0.0287
18542TIP3    H277042   3.352   6.379  13.787  1.2199 -2.6949 -0.7495
18543TIP3   OH277043   1.636   2.525  17.122 -0.0072  0.0260  0.4084
18543TIP3    H177044   1.620   2.431  17.131 -0.9885 -0.1422 -2.2773
18543TIP3    H277045   1.700   2.545  17.190  0.6133 -2.6842  0.7283
18544TIP3   OH277046   2.177   1.254  15.859 -1.2488 -0.0281  0.2668
18544TIP3    H177047   2.102   1.202  15.831 -0.1657 -1.3312 -0.3103
18544TIP3    H277048   2.253   1.209  15.822 -0.3028  2.4545 -1.0470
18545TIP3   OH277049   3.972   2.227   5.706  0.1698 -0.2932 -0.2008
18545TIP3    H177050   3.953   2.264   5.620 -1.2366 -1.2607 -0.3561
18545TIP3    H277051   3.911   2.271   5.765 -0.5119 -1.2815 -0.1399
18546TIP3   OH277052   2.110   4.417   0.967 -0.2032 -0.4016  0.1560
18546TIP3    H177053   2.142   4.381   1.050 -1.8311 -0.8751  0.6114
18546TIP3    H277054   2.104   4.511   0.983  1.5289 -0.2054 -0.1614
18547TIP3   OH277055   5.736   0.177   2.917 -0.0926  0.2590  0.1657
18547TIP3    H177056   5.791   0.134   2.982 -0.6774 -3.0818 -1.3495
18547TIP3    H277057   5.646   0.156   2.944 -0.5707  2.6887  0.6812
18548TIP3   OH277058   3.073   5.619   6.220  0.0031 -0.8081 -0.2530
18548TIP3    H177059   3.059   5.538   6.269  0.4241  0.7817  2.7136
18548TIP3    H277060   3.158   5.606   6.177  0.2246 -1.8145  0.4396
18549TIP3   OH277061   1.433   4.610   5.344 -0.3341  0.1492 -0.2043
18549TIP3    H177062   1.454   4.519   5.362 -1.0461  0.1714  0.8453
18549TIP3    H277063   1.436   4.653   5.430 -2.5724  0.5511 -0.2615
18550TIP3   OH277064   4.558   6.524  14.073  0.1143  0.4928  0.2078
18550TIP3    H177065   4.523   6.542  14.160 -1.9307 -2.3419  0.0877
18550TIP3    H277066   4.539   6.604  14.023 -1.3403  1.0599  1.5921
18551TIP3   OH277067   0.876   2.647  12.144  0.3477 -0.5513  0.0019
18551TIP3    H177068   0.855   2.564  12.103 -1.4811 -0.1687  0.0956
18551TIP3    H277069   0.798   2.671  12.194  0.5427  1.5365 -0.5652
18552TIP3   OH277070   3.237   5.052  12.342  0.3018  0.1750  0.0811
18552TIP3    H177071   3.293   5.067  12.266 -0.2427 -3.4611 -1.2515
18552TIP3    H277072   3.151   5.086  12.316  0.4572  0.2334 -0.3667
18553TIP3   OH277073   3.253   6.032   3.115  0.1143 -0.3967  0.9935
18553TIP3    H177074   3.229   6.005   3.027 -0.0491  0.3807  0.7879
18553TIP3    H277075   3.170   6.035   3.163  0.1849 -0.6811  1.1311
18554TIP3   OH277076   2.849   4.913  13.465  0.0869 -0.3874 -0.2601
18554TIP3    H177077   2.821   4.886  13.553 -0.2046 -1.6177 -0.7063
18554TIP3    H277078   2.767   4.932  13.419  0.1269 -1.4120 -0.7719
18555TIP3   OH277079   5.922   0.751   2.192  0.2170 -0.1673 -0.2473
18555TIP3    H177080   5.972   0.809   2.250  0.4521 -0.8631  0.2700
18555TIP3    H277081   5.987   0.686   2.163 -0.6526 -2.0482  1.6971
18556TIP3   OH277082   4.202   2.459   3.868  0.1592  0.0429 -0.1027
18556TIP3    H177083   4.112   2.427   3.878  0.1470  0.2508  0.4530
18556TIP3    H277084   4.233   2.416   3.789  0.0309 -1.1031  0.4483
18557TIP3   OH277085   6.162   6.649   2.018  0.2623  0.3638  0.5233
18557TIP3    H177086   6.116   6.711   1.961  0.6780  2.0533  1.9354
18557TIP3    H277087   6.248   6.639   1.978 -0.2059 -0.2712 -0.3614
18558TIP3   OH277088   3.208   4.525   0.316 -0.6081  0.2138  0.2427
18558TIP3    H177089   3.197   4.521   0.221 -0.3664 -1.3760  0.2537
18558TIP3    H277090   3.286   4.579   0.329 -0.9472  0.8808 -0.4249
18559TIP3   OH277091   6.309   1.260  14.024 -0.5600  0.4273 -0.0626
18559TIP3    H177092   6.318   1.167  14.043 -1.8236  0.5451  1.3129
18559TIP3    H277093   6.368   1.304  14.085 -0.5896  0.5699 -0.1349
18560TIP3   OH277094   4.736   5.128  11.197  0.5671  0.4100  0.1234
18560TIP3    H177095   4.663   5.186  11.218  0.8898  1.1528 -0.7405
18560TIP3    H277096   4.790   5.179  11.137  0.5330 -0.9985 -1.1541
18561TIP3   OH277097   4.457   1.137   2.792 -0.2057  0.8501  0.2912
18561TIP3    H177098   4.370   1.140   2.833  0.9683 -1.0399  3.2799
18561TIP3    H277099   4.455   1.060   2.735 -0.3943  0.5888  0.6489
18562TIP3   OH277100   1.809   3.681  10.783 -0.2097  0.5299 -0.3635
18562TIP3    H177101   1.827   3.732  10.704 -1.1719  1.9200  0.2717
18562TIP3    H277102   1.895   3.664  10.821  0.2005  0.5998 -1.2364
18563TIP3   OH277103   4.303   0.911   2.045 -0.0947 -0.0615  0.4688
18563TIP3    H177104   4.353   0.957   2.113 -1.0844  0.0409  1.1501
18563TIP3    H277105   4.311   0.819   2.067  3.0812 -0.4619 -1.7016
18564TIP3   OH277106   3.880   0.637   2.265 -0.0531  0.6020  0.2178
18564TIP3    H177107   3.893   0.727   2.297  0.7768 -0.0694  1.8340
18564TIP3    H277108   3.821   0.597   2.329  1.2961 -0.6477  0.7127
18565TIP3   OH277109   4.059   2.637   2.699 -0.2471 -0.3438 -0.0113
18565TIP3    H177110   4.026   2.712   2.748  0.4245  1.0687 -1.6165
18565TIP3    H277111   3.983   2.604   2.651 -0.9902 -1.9520  2.1198
18566TIP3   OH277112   2.973   1.186   4.176  0.0072  0.0258  0.0189
18566TIP3    H177113   3.014   1.201   4.261  1.7283  0.7593 -0.8958
18566TIP3    H277114   3.011   1.253   4.119 -1.0877 -0.4708 -1.3376
18567TIP3   OH277115   3.053   4.735  13.516 -0.3048 -0.1606 -0.1697
18567TIP3    H177116   3.000   4.656  13.524  0.8570 -1.2101 -2.0884
18567TIP3    H277117   3.010   4.785  13.447 -0.3424  0.3228  0.2003
18568TIP3   OH277118   0.758   0.805  12.850  0.2612  0.3250  0.4147
18568TIP3    H177119   0.698   0.742  12.890  1.3345 -1.0430 -0.0424
18568TIP3    H277120   0.750   0.789  12.756 -0.1612  1.5640  0.2199
18569TIP3   OH277121   1.796   0.102   3.486  0.2084 -0.6249 -0.1332
18569TIP3    H177122   1.775   0.028   3.543 -0.8266  1.1346  1.9408
18569TIP3    H277123   1.770   0.179   3.537  1.3558  1.1885 -2.1281
18570TIP3   OH277124   5.045   6.600  12.772 -0.3933 -0.0696 -0.2760
18570TIP3    H177125   5.030   6.580  12.864 -1.1930  2.2658  0.1641
18570TIP3    H277126   5.139   6.615  12.766 -0.5315  1.2251  0.5100
18571TIP3   OH277127   2.560   3.882  16.065 -0.3286  1.4563 -0.2908
18571TIP3    H177128   2.518   3.900  16.149 -2.6022  0.1825 -1.0556
18571TIP3    H277129   2.653   3.870  16.086 -1.0887 -0.7510  2.3746
18572TIP3   OH277130   4.142   5.458  15.065  0.5466 -0.6015  0.6712
18572TIP3    H177131   4.164   5.546  15.035 -0.9614  0.2059  1.8641
18572TIP3    H277132   4.186   5.401  15.002 -0.2465  0.9911 -1.4558
18573TIP3   OH277133   0.585   3.523   3.980  0.2892  0.3678 -0.4036
18573TIP3    H177134   0.607   3.437   4.016 -0.0241  0.4156 -0.0989
18573TIP3    H277135   0.631   3.525   3.896 -1.1880 -0.8401 -1.2907
18574TIP3   OH277136   6.410   0.246  11.551  0.2105  0.4856 -0.0703
18574TIP3    H177137   6.505   0.255  11.551  0.3030 -0.3360  1.0312
18574TIP3    H277138   6.386   0.251  11.458  1.3842  0.0996 -0.4114
18575TIP3   OH277139   0.131   4.231   3.072  0.0470  0.2386  0.0779
18575TIP3    H177140   0.114   4.238   3.166 -1.3467 -0.6124 -0.0908
18575TIP3    H277141   0.129   4.137   3.054 -0.5823  0.4345 -0.9476
18576TIP3   OH277142   6.724   5.392   2.459  0.4425 -0.0723 -0.0540
18576TIP3    H177143   6.704   5.331   2.388  0.0573  0.1161 -0.1075
18576TIP3    H277144   6.645   5.394   2.513  0.5505  0.1788  0.0980
18577TIP3   OH277145   2.792   5.708   3.970  0.7701 -0.2824 -0.0273
18577TIP3    H177146   2.848   5.786   3.965  0.0787  0.3495  1.6356
18577TIP3    H277147   2.735   5.724   4.045  1.5458 -2.9840  1.2708
18578TIP3   OH277148   2.918   0.216   1.139 -0.0476  0.2991 -0.4268
18578TIP3    H177149   2.860   0.168   1.199 -0.2670 -0.6268 -1.3442
18578TIP3    H277150   2.869   0.295   1.118  0.2549  0.9021  0.9989
18579TIP3   OH277151   5.007   0.666  13.753 -0.3282 -0.2782 -0.1632
18579TIP3    H177152   5.081   0.724  13.769  2.2192 -2.7355 -2.0122
18579TIP3    H277153   4.952   0.714  13.691  3.2653 -0.6469 -4.1650
18580TIP3   OH277154   1.775   0.234   3.164  0.1368  0.2282  0.3395
18580TIP3    H177155   1.844   0.203   3.223 -0.6206 -2.6480 -0.1171
18580TIP3    H277156   1.699   0.246   3.221 -0.4953 -2.1989  0.0936
18581TIP3   OH277157   0.140   4.670   6.398 -0.3973 -0.1038  0.3373
18581TIP3    H177158   0.130   4.620   6.479  0.2914 -0.8943 -0.0572
18581TIP3    H277159   0.056   4.714   6.387 -1.0164 -1.1666  0.6963
18582TIP3   OH277160   0.456   1.120  16.647 -0.2111  0.2717  0.2267
18582TIP3    H177161   0.466   1.026  16.660  2.3511  0.3740 -0.6422
18582TIP3    H277162   0.542   1.156  16.666 -1.0248  2.4198  0.0793
18583TIP3   OH277163   1.877   1.786   3.070  0.2870 -0.0326  0.1456
18583TIP3    H177164   1.955   1.808   3.018  1.4041 -1.9338  0.8977
18583TIP3    H277165   1.913   1.751   3.151 -1.4081  0.3220  1.0785
18584TIP3   OH277166   0.817   0.782   3.282 -0.2022 -0.3384  0.3897
18584TIP3    H177167   0.770   0.837   3.344  0.2378 -0.1713  0.5832
18584TIP3    H277168   0.861   0.716   3.336  0.2996 -0.1043  0.2716
18585TIP3   OH277169   2.816   2.845   2.419 -0.1784 -0.2185 -0.0426
18585TIP3    H177170   2.757   2.829   2.493  0.4025  1.2600  0.7955
18585TIP3    H277171   2.823   2.940   2.414  1.6489 -0.3363 -0.5001
18586TIP3   OH277172   0.778   3.169   0.758  0.2556 -0.1081 -0.7034
18586TIP3    H177173   0.803   3.103   0.823 -1.0619  0.4746  0.4339
18586TIP3    H277174   0.847   3.235   0.763  0.1078 -0.0142  0.1912
18587TIP3   OH277175   0.041   5.596   1.172 -0.0295  0.2367 -0.1670
18587TIP3    H177176   0.038   5.543   1.252  0.3837  0.4550 -0.0073
18587TIP3    H277177   0.001   5.540   1.105  1.2420 -0.6559 -0.2219
18588TIP3   OH277178   0.733   6.483  10.842  0.3862  0.4285  0.4004
18588TIP3    H177179   0.672   6.531  10.787 -0.7451 -2.4535 -1.0989
18588TIP3    H277180   0.680   6.448  10.914  0.7234 -0.2761  0.3213
18589TIP3   OH277181   4.121   3.777  13.608 -0.0699  0.0951 -0.1833
18589TIP3    H177182   4.150   3.830  13.682 -0.0184 -1.3669  0.9038
18589TIP3    H277183   4.151   3.824  13.530  0.6685  1.2102  0.7567
18590TIP3   OH277184   1.388   6.083   3.864 -0.1073  0.5355  0.5211
18590TIP3    H177185   1.374   6.005   3.810  1.6139 -1.0418  2.2427
18590TIP3    H277186   1.314   6.141   3.841 -1.9314 -1.9052 -0.2086
18591TIP3   OH277187   1.001   5.111   0.856 -0.8069  0.1186  0.4728
18591TIP3    H177188   0.907   5.102   0.841 -0.8643  0.0643  0.8594
18591TIP3    H277189   1.027   5.183   0.798 -1.5049  1.7033  2.0217
18592TIP3   OH277190   1.068   1.994  16.750 -0.4145  0.7915 -0.2392
18592TIP3    H177191   0.980   2.032  16.757 -0.4280  0.8474 -0.7287
18592TIP3    H277192   1.127   2.069  16.748 -0.2375  0.7437  1.5376
18593TIP3   OH277193   3.831   4.361  15.912 -0.5465 -0.2401  0.0680
18593TIP3    H177194   3.794   4.382  15.826  0.2569 -2.5072 -0.9192
18593TIP3    H277195   3.926   4.363  15.898 -0.3299  1.2174  1.4381
18594TIP3   OH277196   5.379   0.954  15.777 -0.0222  0.0620  0.2542
18594TIP3    H177197   5.352   0.889  15.843 -0.5577  0.4434  0.4167
18594TIP3    H277198   5.376   0.906  15.694 -0.5966 -0.0768  0.3495
18595TIP3   OH277199   3.881   3.942  15.930  0.4284 -0.4822 -0.3634
18595TIP3    H177200   3.787   3.949  15.946  0.5607  0.7005 -0.0138
18595TIP3    H277201   3.907   3.859  15.970  0.0982  0.6830  2.4871
18596TIP3   OH277202   5.284   5.444  15.152 -0.6266 -0.3293 -0.2493
18596TIP3    H177203   5.330   5.487  15.081  1.0866 -2.0990 -0.3053
18596TIP3    H277204   5.212   5.397  15.110 -0.1038 -0.7175 -0.7213
18597TIP3   OH277205   4.430   3.435  14.930 -0.5632 -0.5068 -0.2390
18597TIP3    H177206   4.400   3.523  14.952 -2.7454 -1.1807 -0.2912
18597TIP3    H277207   4.356   3.395  14.884 -0.0578 -2.7447  0.7556
18598TIP3   OH277208   2.961   3.373  12.952 -0.0642 -0.2712 -0.6766
18598TIP3    H177209   2.932   3.285  12.978 -0.2154  0.3276  1.3238
18598TIP3    H277210   3.044   3.385  12.999  1.0084 -0.0614 -2.4897
18599TIP3   OH277211   3.827   3.939   5.278 -0.2808  0.4016 -0.4132
18599TIP3    H177212   3.800   4.018   5.230  0.7125  0.4365 -0.9335
18599TIP3    H277213   3.783   3.867   5.232 -0.6851  0.5874 -0.3256
18600TIP3   OH277214   3.422   2.551   6.249  0.2051  0.8001 -0.5970
18600TIP3    H177215   3.340   2.546   6.200 -1.7391 -1.1368  2.4967
18600TIP3    H277216   3.428   2.642   6.276  0.4881  1.5378 -2.9288
18601TIP3   OH277217   0.927   1.357   3.079 -0.2421 -0.3445 -0.4385
18601TIP3    H177218   0.886   1.376   3.164 -1.4956  0.0425 -1.1044
18601TIP3    H277219   1.016   1.328   3.101  0.2067  1.8292  0.9023
18602TIP3   OH277220   2.408   1.716  17.073 -0.2385 -0.1766  0.0771
18602TIP3    H177221   2.485   1.766  17.098  0.8590 -1.5308 -0.5014
18602TIP3    H277222   2.414   1.635  17.124 -1.2603 -0.3176 -0.0050
18603TIP3   OH277223   2.724   1.038   5.152  0.2497 -0.6266 -0.5302
18603TIP3    H177224   2.711   0.995   5.236  0.8552 -0.2378 -0.2309
18603TIP3    H277225   2.640   1.028   5.107  0.0288 -1.1331 -0.0209
18604TIP3   OH277226   1.566   6.077  17.204  0.2762 -0.3510 -0.2603
18604TIP3    H177227   1.518   6.028  17.271 -1.5039 -2.5005 -2.8606
18604TIP3    H277228   1.533   6.167  17.211  1.1082 -0.1885  2.4754
18605TIP3   OH277229   4.337   0.046  13.384 -0.8185 -0.3646  1.0940
18605TIP3    H177230   4.410   0.063  13.442  0.1444 -1.2438  0.1797
18605TIP3    H277231   4.328  -0.049  13.383  0.3008 -0.5103 -1.4737
18606TIP3   OH277232   3.835   4.939   0.956 -0.5530 -0.1682 -0.3404
18606TIP3    H177233   3.925   4.924   0.927 -0.2413  0.2823  0.3723
18606TIP3    H277234   3.791   4.977   0.880  0.0160  0.1625 -0.5043
18607TIP3   OH277235   4.372   5.567   0.902  0.4075 -0.2587 -0.0679
18607TIP3    H177236   4.355   5.591   0.993  0.1029 -0.9652  0.0751
18607TIP3    H277237   4.419   5.484   0.908 -3.8664 -3.0469 -0.5079
18608TIP3   OH277238   2.362   4.169   4.890 -0.0548 -0.0086 -0.1229
18608TIP3    H177239   2.357   4.174   4.794 -2.8614 -3.5984 -0.3599
18608TIP3    H277240   2.324   4.252   4.919 -0.2215  0.6879 -2.1393
18609TIP3   OH277241   5.536   4.038  14.070  0.4504  0.1502 -0.8755
18609TIP3    H177242   5.513   4.131  14.071  0.3606  0.1862  2.4359
18609TIP3    H277243   5.626   4.036  14.038  0.5863  1.4341 -0.6130
18610TIP3   OH277244   3.094   6.270   2.923  0.2950 -0.0841 -0.0026
18610TIP3    H177245   3.016   6.294   2.972 -0.3699 -1.6902 -0.2159
18610TIP3    H277246   3.080   6.306   2.836 -0.6877 -1.1671 -0.3233
18611TIP3   OH277247   6.770   4.802  12.461 -0.3184  0.3485 -0.4299
18611TIP3    H177248   6.840   4.779  12.522 -0.1951 -0.7630 -0.9668
18611TIP3    H277249   6.749   4.893  12.482  1.1387  0.6344 -0.1165
18612TIP3   OH277250   1.416   3.429  14.283 -0.1202  0.0310 -0.0790
18612TIP3    H177251   1.444   3.503  14.336  1.3540 -0.2314 -0.4390
18612TIP3    H277252   1.371   3.468  14.209  2.8176  0.8264 -1.6100
18613TIP3   OH277253   4.551   2.022  14.984 -0.1742  0.2027 -0.1806
18613TIP3    H177254   4.614   1.954  14.959  1.0415  0.0729  2.7899
18613TIP3    H277255   4.470   1.974  15.000  0.2449 -0.3375  0.3943
18614TIP3   OH277256   0.459   5.428  14.819  0.3712  0.0206 -0.0644
18614TIP3    H177257   0.491   5.393  14.901 -1.1116 -3.1091 -0.6919
18614TIP3    H277258   0.417   5.511  14.843  1.5158  0.0655  1.9839
18615TIP3   OH277259   2.371   6.102   5.657 -0.2143 -0.0533 -0.1872
18615TIP3    H177260   2.301   6.037   5.667  1.1819 -1.5920 -0.0342
18615TIP3    H277261   2.448   6.060   5.696  0.4448  2.2373  1.1493
18616TIP3   OH277262   6.632   1.211   6.677 -0.7702  0.2354  0.3908
18616TIP3    H177263   6.711   1.265   6.668 -0.9751  0.5651  0.5529
18616TIP3    H277264   6.582   1.253   6.747 -0.3342 -0.9096  1.4175
18617TIP3   OH277265   0.925   6.745   2.839  0.1669 -0.1193 -0.4373
18617TIP3    H177266   0.898   6.671   2.783  0.9161 -1.5842  1.0505
18617TIP3    H277267   1.015   6.764   2.813  0.7449 -1.2313  0.6277
18618TIP3   OH277268   6.544   2.271   1.127 -0.0830  0.1658 -0.6807
18618TIP3    H177269   6.457   2.310   1.122  0.1409  0.9709  1.0719
18618TIP3    H277270   6.602   2.343   1.151  0.6436 -0.8382  0.7234
18619TIP3   OH277271   4.432   1.913   1.196 -0.6520  0.8241 -0.4769
18619TIP3    H177272   4.480   1.874   1.123 -0.6707 -0.3133  0.1141
18619TIP3    H277273   4.499   1.950   1.253 -0.6255  1.4864 -0.9227
18620TIP3   OH277274   3.498   6.042  13.812 -0.5282 -0.1009 -0.4857
18620TIP3    H177275   3.425   6.011  13.865  0.6752 -1.2663  0.5460
18620TIP3    H277276   3.562   6.074  13.875  0.9682 -1.5540 -1.1878
18621TIP3   OH277277   4.160   1.898   0.021  0.5656 -0.1371 -0.3547
18621TIP3    H177278   4.093   1.838   0.055  1.2481  0.0159  1.3499
18621TIP3    H277279   4.240   1.846   0.017  0.2145 -0.6434 -3.4470
18622TIP3   OH277280   2.352   3.939   4.680 -0.2121 -0.1543  0.1938
18622TIP3    H177281   2.367   4.019   4.629 -1.0086  0.6207  1.1235
18622TIP3    H277282   2.426   3.933   4.740 -0.3942  0.1580  0.4517
18623TIP3   OH277283   2.349   4.565  11.466 -0.3425  0.4317 -0.2907
18623TIP3    H177284   2.385   4.488  11.422  1.0336 -0.7276  2.6318
18623TIP3    H277285   2.423   4.626  11.471 -0.4130  0.4498  0.6074
18624TIP3   OH277286   5.765   4.629   4.516 -0.6504 -0.1029 -0.0317
18624TIP3    H177287   5.709   4.697   4.554 -0.5680 -0.3631  0.5639
18624TIP3    H277288   5.731   4.547   4.552  0.1142 -0.2629  0.3422
18625TIP3   OH277289   3.188   0.182   3.313 -0.3240 -0.5304 -0.2099
18625TIP3    H177290   3.229   0.266   3.292  0.8660 -0.6157  1.5703
18625TIP3    H277291   3.197   0.131   3.233  0.8120  0.3238 -0.6583
18626TIP3   OH277292   3.191   5.911   5.436 -0.3535  0.5848  0.1475
18626TIP3    H177293   3.118   5.960   5.398 -2.5792 -1.3506  1.5922
18626TIP3    H277294   3.164   5.894   5.527  0.0681 -3.3423 -0.2734
18627TIP3   OH277295   5.093   3.080  16.062  0.1452  0.7177 -0.1305
18627TIP3    H177296   5.114   2.989  16.084  1.3806  0.7404 -1.1517
18627TIP3    H277297   5.032   3.074  15.989 -0.1850  0.7096  0.1442
18628TIP3   OH277298   1.936   4.172   2.940 -0.4662 -0.8108  0.1538
18628TIP3    H177299   1.927   4.094   2.886 -0.6622 -1.9880  1.8132
18628TIP3    H277300   1.916   4.245   2.881 -0.4124 -2.0029 -1.3940
18629TIP3   OH277301   1.425   1.457   5.918  0.0685  0.3085  0.1647
18629TIP3    H177302   1.396   1.528   5.860  0.2034  0.8565  0.7567
18629TIP3    H277303   1.415   1.377   5.865 -1.6810  0.5730  0.0412
18630TIP3   OH277304   5.710   3.049  16.230 -0.0206  0.2594  0.0115
18630TIP3    H177305   5.720   3.123  16.290 -2.5614  1.3194 -0.7050
18630TIP3    H277306   5.787   3.053  16.173  0.8880  1.1165  1.2474
18631TIP3   OH277307   1.688   0.818   2.397  0.2641 -0.1550  0.3593
18631TIP3    H177308   1.723   0.735   2.430 -0.7682  0.6771  4.0363
18631TIP3    H277309   1.593   0.808   2.406 -0.0307  0.6441 -1.4221
18632TIP3   OH277310   4.214   4.884  11.211  0.1512  0.8134  0.2160
18632TIP3    H177311   4.205   4.817  11.279  2.0517  0.3255  0.0603
18632TIP3    H277312   4.155   4.954  11.238  1.1388  0.8054  2.6207
18633TIP3   OH277313   6.692   2.066  16.039 -0.2987 -0.1214 -0.1574
18633TIP3    H177314   6.641   2.009  15.981  1.9768 -0.5980 -1.8711
18633TIP3    H277315   6.776   2.020  16.049  0.3727  1.3273  1.2345
18634TIP3   OH277316   6.544   5.775  14.749  0.0345 -0.0090  0.0494
18634TIP3    H177317   6.543   5.826  14.668 -0.4728 -0.0913  0.0046
18634TIP3    H277318   6.532   5.684  14.721  2.0195 -0.3163  0.0275
18635TIP3   OH277319   6.476   2.818   5.347 -0.4530  0.2170  0.1551
18635TIP3    H177320   6.502   2.863   5.428 -0.6232  0.7579 -0.0862
18635TIP3    H277321   6.551   2.829   5.289 -1.1288  1.7018 -0.5102
18636TIP3   OH277322   5.935   5.937  13.746 -0.4035 -0.4149 -0.2187
18636TIP3    H177323   5.999   5.982  13.801  1.4230  1.4590 -3.5373
18636TIP3    H277324   5.989   5.891  13.681 -2.4161 -2.3884 -0.6081
18637TIP3   OH277325   5.633   3.991  14.343 -0.5543  0.3188  0.5379
18637TIP3    H177326   5.724   3.965  14.331 -0.9295 -2.0018  2.0118
18637TIP3    H277327   5.610   4.038  14.263  2.2415  2.0603  0.6376
18638TIP3   OH277328   3.988   0.445   3.791  0.3312 -0.1268  0.3443
18638TIP3    H177329   4.000   0.354   3.819  1.4568  0.0145  0.3378
18638TIP3    H277330   3.983   0.495   3.872 -1.8372 -0.3305  0.4197
18639TIP3   OH277331   5.156   6.205   1.846 -0.2389  0.0478  0.4214
18639TIP3    H177332   5.248   6.228   1.852  0.0984 -1.5103  2.7663
18639TIP3    H277333   5.151   6.139   1.777  0.0869  1.3080 -0.8344
18640TIP3   OH277334   3.467   1.612  15.798  0.1619 -0.3011 -0.2645
18640TIP3    H177335   3.376   1.590  15.818  0.6942 -1.9824  0.4932
18640TIP3    H277336   3.511   1.612  15.882  0.5315  2.4837 -0.3744
18641TIP3   OH277337   3.952   4.091  12.633  0.4002 -0.2359 -0.2581
18641TIP3    H177338   4.045   4.072  12.625  0.6991  0.6556  0.9167
18641TIP3    H277339   3.911   4.037  12.565  1.8757  0.3347 -1.6765
18642TIP3   OH277340   5.935   3.411   0.290 -0.6097 -0.2420 -0.3325
18642TIP3    H177341   5.925   3.382   0.199 -0.0504 -2.0895  0.1423
18642TIP3    H277342   5.926   3.506   0.286 -0.1630 -0.2316 -2.3814
18643TIP3   OH277343   1.919   2.521   5.048  0.2524  0.0228  0.2507
18643TIP3    H177344   1.851   2.454   5.053 -0.3755  0.7150  1.4940
18643TIP3    H277345   1.871   2.604   5.049  1.1136  0.5499  1.8407
18644TIP3   OH277346   3.618   5.408  11.338  0.0610 -0.0987 -0.5911
18644TIP3    H177347   3.535   5.454  11.332 -0.0895  0.0506  1.6122
18644TIP3    H277348   3.603   5.325  11.292 -0.8337  0.5195 -1.4410
18645TIP3   OH277349   6.433   1.408  10.528  0.4027 -0.5175  0.0544
18645TIP3    H177350   6.483   1.488  10.510 -1.0895  0.1423 -1.4550
18645TIP3    H277351   6.351   1.439  10.565 -0.2991 -1.3397 -0.7859
18646TIP3   OH277352   6.256   4.158  11.515 -0.0825  0.5029 -0.1570
18646TIP3    H177353   6.274   4.246  11.480  0.4799  1.2025  1.7301
18646TIP3    H277354   6.324   4.103  11.476  2.4821  1.8662  1.9640
18647TIP3   OH277355   6.094   2.707   2.227 -0.4716  0.3362 -1.0255
18647TIP3    H177356   6.152   2.636   2.255 -1.4312  0.0315  0.3183
18647TIP3    H277357   6.067   2.683   2.139 -0.4415 -0.7638 -0.7476
18648TIP3   OH277358   3.126   2.997  14.431 -0.3155 -0.1678  0.3299
18648TIP3    H177359   3.201   2.951  14.393  2.0903  1.8338  2.3239
18648TIP3    H277360   3.074   3.025  14.355  1.1188 -1.2971 -1.1499
18649TIP3   OH277361   1.425   2.318  17.060 -0.0910  0.1785 -0.2143
18649TIP3    H177362   1.405   2.395  17.115 -2.0138  0.3088 -1.0066
18649TIP3    H277363   1.355   2.256  17.081  0.7526 -0.8877 -0.4957
18650TIP3   OH277364   4.004   1.764  11.245 -0.8445  0.1265  0.3234
18650TIP3    H177365   4.016   1.693  11.183 -0.8358  2.5434 -2.6533
18650TIP3    H277366   3.909   1.765  11.262 -0.7290 -1.1376  1.2146
18651TIP3   OH277367   0.670   4.862  14.431 -0.1621 -0.0255  0.3601
18651TIP3    H177368   0.764   4.872  14.417 -0.4344  0.7982 -1.0039
18651TIP3    H277369   0.659   4.769  14.451  1.0466  0.0642  1.6041
18652TIP3   OH277370   2.542   2.598  12.822 -0.0971  0.2063 -0.1448
18652TIP3    H177371   2.627   2.573  12.787 -0.3543 -0.6821 -0.1583
18652TIP3    H277372   2.560   2.675  12.876  0.5453  0.6416 -0.9602
18653TIP3   OH277373   4.647   0.792  16.471 -0.5324 -0.0932  0.0152
18653TIP3    H177374   4.601   0.710  16.453  1.5526 -1.9041  2.2530
18653TIP3    H277375   4.614   0.820  16.556 -0.7891  1.0832 -0.4569
18654TIP3   OH277376   2.449   5.815  15.211  0.0328  0.0551  0.1070
18654TIP3    H177377   2.401   5.783  15.134  1.0483  0.1478 -0.5924
18654TIP3    H277378   2.387   5.874  15.255 -1.4281 -1.8557  0.7327
18655TIP3   OH277379   2.202   2.687   4.025  0.2688  0.0165 -0.4523
18655TIP3    H177380   2.284   2.653   4.061  0.4019  1.9476  1.3046
18655TIP3    H277381   2.230   2.750   3.958  0.1732 -0.1771 -0.6748
18656TIP3   OH277382   5.931   5.965  14.124 -0.1987  0.0182  0.1664
18656TIP3    H177383   5.903   6.044  14.171 -0.4519 -1.0299  1.8681
18656TIP3    H277384   6.013   5.991  14.080 -1.1134  1.6640 -0.6797
18657TIP3   OH277385   0.572   3.289   2.463 -0.1372 -0.1845 -0.1829
18657TIP3    H177386   0.563   3.315   2.555 -2.4274 -1.3015 -0.0349
18657TIP3    H277387   0.525   3.357   2.414  2.9402  1.6553 -0.8435
18658TIP3   OH277388   4.566   4.406   1.678  0.1225  0.4860  0.1511
18658TIP3    H177389   4.506   4.446   1.616 -1.2436 -2.8032 -0.8672
18658TIP3    H277390   4.644   4.383   1.626 -0.4088 -0.9088 -0.0898
18659TIP3   OH277391   5.502   0.893  11.730  0.4507  0.0617 -0.0011
18659TIP3    H177392   5.562   0.838  11.781 -0.7419 -0.6369  0.6867
18659TIP3    H277393   5.415   0.874  11.766  0.0462  2.9107  0.7429
18660TIP3   OH277394   4.053   5.856   1.170 -0.2170  0.4945  0.2980
18660TIP3    H177395   4.016   5.831   1.255  0.1599  1.3470  0.7322
18660TIP3    H277396   3.999   5.810   1.106  0.8198 -1.9047  1.0292
18661TIP3   OH277397   0.397   1.729  17.284 -0.1866 -0.0609 -0.2618
18661TIP3    H177398   0.327   1.682  17.330  0.4409  1.7806  2.8488
18661TIP3    H277399   0.477   1.704  17.330  0.8712 -0.0162 -1.9955
18662TIP3   OH277400   1.982   5.771   2.542 -0.1065  0.8092 -0.5442
18662TIP3    H177401   1.892   5.742   2.560 -0.5021  1.9697 -0.5628
18662TIP3    H277402   1.985   5.783   2.447 -0.4225  2.2292 -0.4059
18663TIP3   OH277403   5.366   6.147  16.973  0.0361 -0.7007 -0.4936
18663TIP3    H177404   5.309   6.110  16.906 -0.3928 -0.9462 -0.0019
18663TIP3    H277405   5.367   6.082  17.043 -1.0629  0.3658  0.5680
18664TIP3   OH277406   5.625   5.091  13.113  0.3864 -0.5048 -0.3798
18664TIP3    H177407   5.545   5.138  13.135 -0.5034 -0.1385 -3.7681
18664TIP3    H277408   5.599   4.999  13.111  0.1986 -0.4450 -0.8385
18665TIP3   OH277409   0.593   3.792  11.759 -0.2593 -0.7541 -0.2370
18665TIP3    H177410   0.670   3.811  11.813  0.4477 -0.1613 -1.4125
18665TIP3    H277411   0.525   3.850  11.793  0.9134  1.5902 -1.5932
18666TIP3   OH277412   0.557   5.730  15.506  0.5675  0.0001 -0.7518
18666TIP3    H177413   0.506   5.705  15.583 -1.1319 -1.5032 -2.2697
18666TIP3    H277414   0.587   5.819  15.525 -2.4261  0.8927  0.3451
18667TIP3   OH277415   3.484   0.158  13.810  0.0248  0.0606  0.0449
18667TIP3    H177416   3.573   0.121  13.809  0.5560  1.2803 -1.0261
18667TIP3    H277417   3.452   0.141  13.899  1.5214  0.0313  0.6103
18668TIP3   OH277418   3.364   0.171   3.936  0.1029 -0.1512 -0.4422
18668TIP3    H177419   3.343   0.080   3.917  1.1486 -0.1651 -1.7312
18668TIP3    H277420   3.302   0.221   3.884  0.0592 -0.1494 -0.3874
18669TIP3   OH277421   2.390   0.362   3.537 -0.7167  0.0257  0.1495
18669TIP3    H177422   2.388   0.371   3.441  2.5408  0.9361  0.0372
18669TIP3    H277423   2.416   0.271   3.552  1.9738  0.6622 -0.0643
18670TIP3   OH277424   0.011   3.498   5.116 -0.1176  0.8921  0.1221
18670TIP3    H177425   0.046   3.411   5.093 -0.8677  0.9710 -1.4018
18670TIP3    H277426  -0.023   3.486   5.204  1.7421  0.2347  0.8137
18671TIP3   OH277427   4.207   2.888  13.368  0.6421  0.0680  0.7066
18671TIP3    H177428   4.156   2.879  13.448 -0.3457  0.4796  0.1319
18671TIP3    H277429   4.237   2.980  13.369 -0.0484  0.3049  0.2142
18672TIP3   OH277430   0.519   1.008   0.832 -0.0786  0.5860 -0.3006
18672TIP3    H177431   0.522   0.928   0.780 -0.9956  1.0163 -1.0463
18672TIP3    H277432   0.606   1.047   0.823  0.4772 -0.4787  0.3410
18673TIP3   OH277433   2.020   3.071  13.822  0.0296 -0.6549 -0.3299
18673TIP3    H177434   1.939   3.031  13.789  0.6810 -1.0613 -1.4988
18673TIP3    H277435   2.048   3.129  13.752  0.9072 -0.7351 -0.0524
18674TIP3   OH277436   4.101   2.797   1.998  0.5935  0.0402  0.5432
18674TIP3    H177437   4.123   2.861   2.066 -4.0787  1.4046  1.1315
18674TIP3    H277438   4.146   2.829   1.920  0.6132  2.5142  1.4744
18675TIP3   OH277439   1.508   6.728   4.235 -0.0435 -0.2024  0.0125
18675TIP3    H177440   1.545   6.814   4.254 -0.1240  0.2643 -1.7572
18675TIP3    H277441   1.473   6.698   4.319  0.1591  1.3973  0.7053
18676TIP3   OH277442   6.215   1.652  12.565  0.1472 -0.4232  0.5031
18676TIP3    H177443   6.305   1.637  12.534 -0.0678 -0.9904  0.1415
18676TIP3    H277444   6.215   1.620  12.655  0.4214 -0.0074  0.6548
18677TIP3   OH277445   2.371   5.692  12.961 -0.1267  0.1871 -0.2034
18677TIP3    H177446   2.455   5.655  12.933 -0.5079 -2.3420  1.6251
18677TIP3    H277447   2.369   5.678  13.055 -3.4609 -1.9108 -0.4137
18678TIP3   OH277448   0.169   4.200  16.510 -0.3316 -0.4934  0.0844
18678TIP3    H177449   0.075   4.216  16.495 -0.7200 -0.5055  2.2209
18678TIP3    H277450   0.213   4.274  16.468 -1.2433 -0.6981 -1.3080
18679TIP3   OH277451   6.747   3.617  11.849  0.1209  0.0863 -0.3109
18679TIP3    H177452   6.706   3.703  11.844 -1.2041 -0.5449 -0.8940
18679TIP3    H277453   6.819   3.620  11.786 -1.2760  0.0802 -1.9579
18680TIP3   OH277454   2.019   2.245   1.453  0.8375 -0.1739  0.7319
18680TIP3    H177455   2.018   2.156   1.417  2.7059 -0.3236  0.9292
18680TIP3    H277456   2.005   2.302   1.377  0.2268 -0.6251  0.5045
18681TIP3   OH277457   2.519   5.312  14.661  0.0458 -0.0323  0.2546
18681TIP3    H177458   2.518   5.306  14.756  0.7062 -0.2773  0.2520
18681TIP3    H277459   2.550   5.227  14.631  0.9604  0.4240 -0.1308
18682TIP3   OH277460   5.997   0.037   4.235 -0.0346  0.3093 -0.2611
18682TIP3    H177461   6.066   0.014   4.173 -0.4407  0.0217 -0.6090
18682TIP3    H277462   5.989   0.132   4.229 -0.8912  0.1828 -1.5422
18683TIP3   OH277463   2.870   2.949   4.287 -0.4940 -0.2696  0.0410
18683TIP3    H177464   2.940   2.904   4.240  0.1063  1.4251 -0.7591
18683TIP3    H277465   2.879   3.041   4.262 -2.1257  0.2087  1.0452
18684TIP3   OH277466   5.319   5.877   1.870  0.3717  0.1783  0.1996
18684TIP3    H177467   5.298   5.876   1.964  3.5432 -1.0939  1.0357
18684TIP3    H277468   5.349   5.966   1.853 -2.2678  1.0662 -0.2464
18685TIP3   OH277469   1.019   0.647  12.941  0.0808 -0.0318 -0.0001
18685TIP3    H177470   1.098   0.684  12.901 -0.6842 -0.2936 -1.8505
18685TIP3    H277471   0.971   0.608  12.868 -1.4149 -0.5279  1.1964
18686TIP3   OH277472   4.545   2.373  15.964 -0.3291 -0.5678  0.4674
18686TIP3    H177473   4.554   2.450  15.909 -0.5111  0.1542  1.4296
18686TIP3    H277474   4.547   2.299  15.903  2.6214 -0.0004 -0.2634
18687TIP3   OH277475   5.830   3.344  11.407 -0.0891  0.0125 -0.3708
18687TIP3    H177476   5.896   3.336  11.339  0.7629  1.3245  0.2464
18687TIP3    H277477   5.874   3.315  11.487 -0.9534 -1.1409 -0.2755
18688TIP3   OH277478   3.749   2.667  16.432  0.1220 -0.7341 -0.3221
18688TIP3    H177479   3.693   2.730  16.478  1.1051 -0.7721  0.9768
18688TIP3    H277480   3.715   2.666  16.342  0.7175  2.4453 -0.6981
18689TIP3   OH277481   3.134   2.908   4.795  0.0752  0.7376  0.6822
18689TIP3    H177482   3.074   2.940   4.727  0.8451  0.3676 -0.1924
18689TIP3    H277483   3.203   2.973   4.799  0.9095 -0.0652 -0.1041
18690TIP3   OH277484   4.557   4.988  15.273  0.1212  0.4768  0.4648
18690TIP3    H177485   4.608   4.989  15.354  0.8996  3.4060  0.0785
18690TIP3    H277486   4.467   4.974  15.302  0.4998  0.5922  1.7726
18691TIP3   OH277487   3.422   3.933  13.903  0.7906  0.2017 -0.0665
18691TIP3    H177488   3.385   3.992  13.968  0.3903  1.5649 -1.4643
18691TIP3    H277489   3.359   3.862  13.896 -1.2511  2.0425 -1.7681
18692TIP3   OH277490   3.224   2.699   0.851  0.0973 -0.9848  0.1693
18692TIP3    H177491   3.272   2.772   0.813 -0.2679 -0.9665 -0.2677
18692TIP3    H277492   3.281   2.623   0.837 -0.5790 -1.2116 -1.6035
18693TIP3   OH277493   4.697   6.596  13.522 -0.2771  0.7549 -0.5222
18693TIP3    H177494   4.660   6.679  13.490 -0.2789  0.1068 -2.2804
18693TIP3    H277495   4.764   6.573  13.458  0.7117  0.0957  0.7217
18694TIP3   OH277496   4.811   6.574  11.514 -0.1129 -0.0818  0.4074
18694TIP3    H177497   4.766   6.650  11.550  0.4131 -0.7695  2.6473
18694TIP3    H277498   4.747   6.504  11.519  0.5892 -0.6493  1.9520
18695TIP3   OH277499   5.554   4.919   5.974  0.4404  0.2054  0.4987
18695TIP3    H177500   5.528   4.959   6.057 -2.2785 -0.2766 -0.0211
18695TIP3    H277501   5.536   4.825   5.986  0.3821  0.0788 -0.4910
18696TIP3   OH277502   2.825   0.813   6.103 -0.4724 -0.4844 -0.3854
18696TIP3    H177503   2.880   0.890   6.113 -0.8463 -0.4015  1.2232
18696TIP3    H277504   2.840   0.785   6.013  0.0712  1.1416 -0.8332
18697TIP3   OH277505   5.838   4.634   0.589 -0.7296  0.2347  0.4065
18697TIP3    H177506   5.836   4.698   0.518  0.1319  0.3291  0.4577
18697TIP3    H277507   5.749   4.599   0.592 -0.8340  0.3785 -0.5856
18698TIP3   OH277508   1.947   5.491  13.006 -0.2233  0.3923  0.0995
18698TIP3    H177509   1.988   5.565  12.962 -0.4434 -0.0655 -0.9151
18698TIP3    H277510   2.021   5.437  13.036 -0.0695  0.0278 -0.9149
18699TIP3   OH277511   6.303   3.204  11.181 -0.3178 -0.2809 -0.1768
18699TIP3    H177512   6.379   3.160  11.220 -0.2496  1.0783  1.3020
18699TIP3    H277513   6.302   3.173  11.090  0.2592 -2.5829  0.5302
18700TIP3   OH277514   1.940   3.560   5.647 -0.2312 -0.3221 -0.6517
18700TIP3    H177515   1.978   3.613   5.717  0.6277 -1.7875  0.0490
18700TIP3    H277516   1.902   3.623   5.586 -0.2093  1.0277  0.6834
18701TIP3   OH277517   4.209   2.943  16.476  0.3591 -0.1796 -0.2510
18701TIP3    H177518   4.174   3.017  16.426  0.0063  0.5563  1.0289
18701TIP3    H277519   4.136   2.882  16.483  0.3619 -0.2111 -0.5066
18702TIP3   OH277520   6.286   1.432  16.568 -0.3726 -0.5090 -0.4178
18702TIP3    H177521   6.342   1.491  16.618  0.0671 -0.8329 -0.5287
18702TIP3    H277522   6.286   1.467  16.479 -2.1446  0.7898  0.0390
18703TIP3   OH277523   1.454   3.417  12.690  0.4034  0.8620  0.1704
18703TIP3    H177524   1.390   3.352  12.720  1.6661 -0.6331 -0.2220
18703TIP3    H277525   1.420   3.500  12.723 -1.3138  0.0353  0.6549
18704TIP3   OH277526   0.904   2.718   2.632  0.3119  0.3788 -0.2407
18704TIP3    H177527   0.884   2.808   2.661 -2.2310 -0.7059  1.7944
18704TIP3    H277528   0.824   2.689   2.588  0.3484 -1.4578  0.8092
18705TIP3   OH277529   6.522   0.965   5.841  0.9206 -0.1563 -0.1732
18705TIP3    H177530   6.448   0.996   5.894 -0.4251 -1.9105 -0.9508
18705TIP3    H277531   6.599   1.003   5.884 -0.2219 -0.2640  2.1193
18706TIP3   OH277532   2.282   4.310   2.664  0.0353 -0.1359  0.1462
18706TIP3    H177533   2.242   4.225   2.644 -0.8835  0.6084 -1.3208
18706TIP3    H277534   2.374   4.298   2.642 -0.2303 -0.5343 -0.7913
18707TIP3   OH277535   4.298   6.728   6.195 -0.1958 -0.0718  0.6368
18707TIP3    H177536   4.238   6.718   6.269  2.2228 -1.4305  2.5525
18707TIP3    H277537   4.300   6.823   6.179 -3.7388 -0.0331 -0.4290
18708TIP3   OH277538   4.960   1.706  13.426 -0.0706 -0.3566  0.2533
18708TIP3    H177539   5.010   1.687  13.347 -0.9351 -1.4599 -0.0560
18708TIP3    H277540   4.877   1.740  13.394 -0.9449 -2.0612  0.6084
18709TIP3   OH277541   6.358   6.670  14.098  0.2209  0.0076 -0.0979
18709TIP3    H177542   6.431   6.698  14.153 -0.0199  0.5656 -0.0480
18709TIP3    H277543   6.337   6.747  14.045  0.6972 -0.6428 -1.2532
18710TIP3   OH277544   2.955   1.164   3.626  0.2049 -1.0442  0.7734
18710TIP3    H177545   2.988   1.240   3.578 -2.4877 -0.9188 -1.1416
18710TIP3    H277546   2.931   1.198   3.712 -0.5039  0.2278  0.1091
18711TIP3   OH277547   0.390   2.242   1.726  0.3087 -0.1476  0.4127
18711TIP3    H177548   0.407   2.150   1.705 -1.4618 -0.0525 -1.8506
18711TIP3    H277549   0.431   2.290   1.653 -1.5338  0.6011 -0.1674
18712TIP3   OH277550   6.034   6.260  16.283 -0.1716  0.2317  0.7635
18712TIP3    H177551   5.956   6.205  16.278  1.7216 -2.9510  2.7648
18712TIP3    H277552   6.085   6.237  16.205  0.3577 -0.4716  1.3029
18713TIP3   OH277553   2.839   2.041  13.925  0.4244  0.1966  0.3264
18713TIP3    H177554   2.835   2.039  14.020 -0.1637 -1.3358  0.3050
18713TIP3    H277555   2.932   2.029  13.904  0.2677 -2.5938  0.7530
18714TIP3   OH277556   1.418   3.801  13.909 -0.0345 -0.0505 -0.5394
18714TIP3    H177557   1.398   3.761  13.824 -0.9436 -1.7250  0.4207
18714TIP3    H277558   1.357   3.874  13.916 -0.7634 -0.6187 -0.8428
18715TIP3   OH277559   5.501   6.660   1.287  0.0367 -0.3101  0.0576
18715TIP3    H177560   5.575   6.612   1.323  0.0626 -0.5111 -0.2555
18715TIP3    H277561   5.488   6.622   1.200 -0.5925 -0.4490  0.2062
18716TIP3   OH277562   0.811   4.678  15.371 -0.5756  0.0219 -0.8184
18716TIP3    H177563   0.843   4.595  15.335 -1.1908 -0.3062 -0.6275
18716TIP3    H277564   0.768   4.653  15.453 -1.1358  0.4734 -0.9683
18717TIP3   OH277565   5.416   5.929  12.958 -0.2237 -0.1232 -0.2333
18717TIP3    H177566   5.470   5.867  13.008 -1.4165  0.3270  1.7206
18717TIP3    H277567   5.327   5.898  12.970 -0.6888  1.0171 -0.6234
18718TIP3   OH277568   1.848   2.286   0.503  0.2203 -0.4527 -0.0447
18718TIP3    H177569   1.773   2.230   0.486  1.2712 -1.2587 -2.4647
18718TIP3    H277570   1.913   2.227   0.542  0.2106 -0.1418  0.4519
18719TIP3   OH277571   5.524   5.884   1.148  0.2696 -0.0241  0.4733
18719TIP3    H177572   5.444   5.839   1.124  0.4427  0.1722 -0.5138
18719TIP3    H277573   5.574   5.890   1.067  2.1478 -1.8156  1.4036
18720TIP3   OH277574   1.422   2.046  10.278  0.5980 -0.3854 -0.4284
18720TIP3    H177575   1.399   2.027  10.369  0.5084 -0.6670 -0.5099
18720TIP3    H277576   1.495   1.986  10.259  1.8059  0.8912  0.0144
18721TIP3   OH277577   1.245   3.349   1.690  0.3148 -0.4263  0.3176
18721TIP3    H177578   1.289   3.266   1.709  0.2289 -0.3103  1.0545
18721TIP3    H277579   1.156   3.324   1.667 -0.2375 -0.4523  2.2857
18722TIP3   OH277580   4.397   4.767  11.969  0.1706  0.4118  0.2889
18722TIP3    H177581   4.490   4.788  11.964  0.6389 -1.6362 -1.6947
18722TIP3    H277582   4.356   4.822  11.902  0.6245 -1.2008 -1.4288
18723TIP3   OH277583   3.611   5.283  12.684 -0.1817 -0.1984 -0.0270
18723TIP3    H177584   3.593   5.237  12.765 -0.2703  1.2255  0.8067
18723TIP3    H277585   3.610   5.216  12.616  0.2342 -1.4661  1.1912
18724TIP3   OH277586   1.026   4.619   5.080 -0.2565  0.2846 -0.1299
18724TIP3    H177587   1.113   4.610   5.041  0.5505 -1.1911  1.8145
18724TIP3    H277588   1.043   4.658   5.166 -1.5726  0.4197  0.0819
18725TIP3   OH277589   3.806   2.343  13.587 -0.5171 -0.2373 -0.3130
18725TIP3    H177590   3.864   2.288  13.642  0.4290  0.2409 -0.8054
18725TIP3    H277591   3.746   2.383  13.649  1.2930  1.2412  0.5984
18726TIP3   OH277592   5.615   2.078  10.793 -0.1202 -0.3604  0.0478
18726TIP3    H177593   5.668   2.068  10.872 -0.0216 -3.3533 -0.2617
18726TIP3    H277594   5.679   2.091  10.723 -0.0391 -0.2667  0.1384
18727TIP3   OH277595   3.431   2.649   1.402  0.5413  0.4319 -0.1383
18727TIP3    H177596   3.471   2.693   1.327 -0.7232  0.7172 -0.6787
18727TIP3    H277597   3.503   2.604   1.446  1.0517 -1.5969 -2.7917
18728TIP3   OH277598   2.141   1.512   1.892 -0.0851  0.1693  0.0166
18728TIP3    H177599   2.062   1.565   1.897  0.4797  0.9508  1.0317
18728TIP3    H277600   2.170   1.521   1.802 -1.5737 -0.7791 -0.5896
18729TIP3   OH277601   2.827   1.306   0.648 -0.0651 -0.5941  0.0964
18729TIP3    H177602   2.756   1.305   0.712 -0.5329  1.3582 -0.3198
18729TIP3    H277603   2.821   1.392   0.608  0.8460 -1.3957 -1.8845
18730TIP3   OH277604   5.854   5.512  16.503  0.4854 -0.1512  0.0195
18730TIP3    H177605   5.934   5.474  16.541  0.5898 -0.9075 -0.8996
18730TIP3    H277606   5.783   5.459  16.539  0.6189 -1.1755 -1.1315
18731TIP3   OH277607   6.029   0.091   1.933 -0.0489 -0.1774  0.3775
18731TIP3    H177608   6.074   0.162   1.888 -1.0290  0.3703  0.2258
18731TIP3    H277609   5.936   0.110   1.921 -0.3460 -0.2255  2.3150
18732TIP3   OH277610   0.668   0.791   4.965  0.0391  0.5323  0.2972
18732TIP3    H177611   0.631   0.771   5.051  0.1585 -0.6700  0.0799
18732TIP3    H277612   0.621   0.735   4.904  0.7069  0.5814 -0.2846
18733TIP3   OH277613   5.869   3.145   1.204 -1.0275  0.1707 -0.3219
18733TIP3    H177614   5.787   3.193   1.214 -0.6439  0.4364  2.0039
18733TIP3    H277615   5.935   3.201   1.244  0.0829 -0.6515 -0.9427
18734TIP3   OH277616   3.748   2.672  13.868  0.5157  0.1472  0.2245
18734TIP3    H177617   3.796   2.754  13.865 -0.4052  0.6871 -0.0581
18734TIP3    H277618   3.790   2.622  13.938  0.5666  1.1876  0.9640
18735TIP3   OH277619   3.852   3.486   1.371  0.2330  0.0976  0.4048
18735TIP3    H177620   3.818   3.497   1.460  1.1796 -1.5785  1.0208
18735TIP3    H277621   3.893   3.570   1.350 -1.9700  1.3139  0.6093
18736TIP3   OH277622   3.730   4.040   2.828  0.6432  0.1303 -0.0433
18736TIP3    H177623   3.811   4.088   2.844  0.2437  1.2306 -1.0894
18736TIP3    H277624   3.678   4.053   2.907  1.4022 -0.4372  0.5624
18737TIP3   OH277625   1.994   4.649   2.592  0.5575 -0.2948 -0.3328
18737TIP3    H177626   2.065   4.615   2.538  0.9902  0.4957 -0.2804
18737TIP3    H277627   1.916   4.639   2.537  0.6147 -1.6289 -0.1982
18738TIP3   OH277628   5.017   4.605   1.196  0.1088 -0.0209  0.1534
18738TIP3    H177629   4.937   4.561   1.168 -0.2754 -0.3045  1.5946
18738TIP3    H277630   5.087   4.546   1.167 -0.1979  0.1325 -0.9463
18739TIP3   OH277631   1.830   3.590  15.164  0.5290 -0.4363  0.6371
18739TIP3    H177632   1.787   3.617  15.246 -0.2156 -0.8471  0.3924
18739TIP3    H277633   1.765   3.535  15.120  0.9162 -0.1951 -0.2487
18740TIP3   OH277634   5.554   6.535   6.449 -0.0841 -0.2423 -0.6487
18740TIP3    H177635   5.545   6.499   6.537  4.6850 -2.2709 -0.6803
18740TIP3    H277636   5.567   6.629   6.463 -0.0579 -0.4334  0.7289
18741TIP3   OH277637   0.452   3.979   5.823  0.0775  0.0815  0.4176
18741TIP3    H177638   0.414   4.052   5.774  1.9801 -0.4036 -1.9941
18741TIP3    H277639   0.477   4.017   5.907 -0.9410  1.6378  0.0496
18742TIP3   OH277640   5.893   6.089  14.545  0.1846  0.4328 -0.3434
18742TIP3    H177641   5.989   6.081  14.540  0.7032  4.4722 -0.1325
18742TIP3    H277642   5.865   6.096  14.454  0.6197  2.5766 -0.3754
18743TIP3   OH277643   2.319   5.634  15.965  0.1412 -0.2157  0.4385
18743TIP3    H177644   2.309   5.641  16.060  0.3658  0.0946  0.4395
18743TIP3    H277645   2.357   5.717  15.938 -0.4943 -0.0617 -0.0097
18744TIP3   OH277646   4.247   3.324   0.795  0.3404 -0.2367 -0.1770
18744TIP3    H177647   4.201   3.318   0.879  1.3967  1.6858  0.5988
18744TIP3    H277648   4.340   3.320   0.819  0.8923  4.2712 -0.6457
18745TIP3   OH277649   4.856   5.189   4.155 -0.1848  0.2666 -0.2679
18745TIP3    H177650   4.818   5.105   4.127 -0.5214  0.8171 -1.5198
18745TIP3    H277651   4.915   5.165   4.227 -1.1379 -0.8939  0.1638
18746TIP3   OH277652   5.146   5.367   6.162  0.3103  0.2129  0.4630
18746TIP3    H177653   5.056   5.396   6.153  0.0207 -0.3619  1.3802
18746TIP3    H277654   5.190   5.437   6.209  0.7357  1.1832 -1.2972
18747TIP3   OH277655   6.664   3.804   3.676  0.1310  1.0243  0.3128
18747TIP3    H177656   6.683   3.718   3.637  0.2801  1.0192  0.3974
18747TIP3    H277657   6.630   3.783   3.763  0.7041  1.0691  0.5544
18748TIP3   OH277658   6.404   6.614   3.416  0.1418 -0.8386  0.9111
18748TIP3    H177659   6.444   6.699   3.432  1.0478 -0.9694 -0.4333
18748TIP3    H277660   6.423   6.563   3.494 -1.5807  0.5517  2.3456
18749TIP3   OH277661   5.988   5.396  14.964 -0.0794  0.1420  0.0229
18749TIP3    H177662   6.038   5.315  14.974 -1.4031 -0.8375 -0.9195
18749TIP3    H277663   5.897   5.370  14.980 -0.5940  1.2961 -0.8845
18750TIP3   OH277664   4.095   0.513  12.052 -0.2284 -0.5453  0.0242
18750TIP3    H177665   4.154   0.551  12.117 -0.2364  1.6349 -1.1492
18750TIP3    H277666   4.153   0.482  11.982 -0.3655  0.1545 -0.4098
18751TIP3   OH277667   1.207   6.097   4.174 -0.2138 -0.1113  0.0875
18751TIP3    H177668   1.141   6.158   4.143  1.6895  1.4784 -1.0454
18751TIP3    H277669   1.279   6.153   4.206  1.2198 -1.7302 -0.1387
18752TIP3   OH277670   4.600   4.146  11.241  0.3723  0.0253  0.0040
18752TIP3    H177671   4.661   4.092  11.190 -0.7993  0.0242 -1.4533
18752TIP3    H277672   4.534   4.084  11.272  0.2156  0.2767  0.1695
18753TIP3   OH277673   0.035   3.941  15.724 -0.5168  0.6270 -0.1346
18753TIP3    H177674  -0.060   3.956  15.729 -0.8184  0.4202 -3.3397
18753TIP3    H277675   0.062   3.984  15.644  1.4726 -2.0925 -1.0843
18754TIP3   OH277676   2.826   1.069  16.533 -0.2257 -0.8462  0.5724
18754TIP3    H177677   2.828   1.163  16.549  0.0305 -0.5297 -1.1205
18754TIP3    H277678   2.804   1.030  16.618 -1.4338  0.7930  1.0468
18755TIP3   OH277679   4.577   0.503   1.597 -0.4667  0.0491 -0.2832
18755TIP3    H177680   4.615   0.424   1.559 -0.5953  0.3874 -1.1399
18755TIP3    H277681   4.513   0.471   1.660  0.1482 -0.5248  0.0621
18756TIP3   OH277682   1.269   2.620  15.649  0.1653  0.2366 -0.5950
18756TIP3    H177683   1.266   2.593  15.558  0.5045  0.9769 -0.8390
18756TIP3    H277684   1.300   2.711  15.646  1.9767 -0.3138  0.3698
18757TIP3   OH277685   4.606   1.968  16.829 -0.3857 -0.2170 -0.2554
18757TIP3    H177686   4.532   1.921  16.868  0.0274 -1.4955 -0.9519
18757TIP3    H277687   4.566   2.041  16.782 -1.0198  0.3497  1.1114
18758TIP3   OH277688   5.014   4.383  13.105  0.1712  0.9390 -0.0708
18758TIP3    H177689   5.093   4.415  13.150  0.2285 -1.3153  1.6283
18758TIP3    H277690   4.943   4.403  13.165  0.1955 -1.7511  1.0104
18759TIP3   OH277691   0.531   6.387   3.031  0.2602 -0.2561 -0.7176
18759TIP3    H177692   0.493   6.312   2.985  0.7661 -0.0950 -1.4003
18759TIP3    H277693   0.455   6.443   3.052  0.0029 -0.4384 -1.1484
18760TIP3   OH277694   1.594   6.198  12.012 -0.4899  0.1310 -0.3108
18760TIP3    H177695   1.529   6.183  12.081 -0.3966  1.2944  0.0660
18760TIP3    H277696   1.678   6.193  12.057 -0.4696  2.4855  0.0638
18761TIP3   OH277697   4.550   6.059  14.475  0.2201 -0.0405  0.0518
18761TIP3    H177698   4.542   6.142  14.427 -0.1341 -0.9878 -1.5916
18761TIP3    H277699   4.512   5.994  14.416  0.5261 -1.3877  1.3049
18762TIP3   OH277700   6.505   6.283  12.182  0.7162 -0.7683  0.0707
18762TIP3    H177701   6.575   6.287  12.247  1.7810 -1.9989 -0.9277
18762TIP3    H277702   6.478   6.191  12.181  0.7501 -0.7872 -1.2069
18763TIP3   OH277703   4.767   6.063   1.756 -0.2322  0.9172 -1.1422
18763TIP3    H177704   4.676   6.066   1.727 -1.5114 -1.2679  2.1535
18763TIP3    H277705   4.793   6.155   1.762 -2.5982  1.6565 -1.0584
18764TIP3   OH277706   0.360   0.452   0.604  0.3591 -0.6748 -0.3053
18764TIP3    H177707   0.423   0.380   0.612 -0.8228 -1.7978 -0.7507
18764TIP3    H277708   0.336   0.473   0.694  0.5506 -0.9777 -0.1836
18765TIP3   OH277709   5.744   1.510  14.713  0.3703 -0.0336 -0.0156
18765TIP3    H177710   5.827   1.558  14.716  0.5629 -0.3872  0.6535
18765TIP3    H277711   5.717   1.514  14.622 -0.3777  2.6338  0.2335
18766TIP3   OH277712   5.963   1.028  14.828  0.5310 -0.5947 -0.0023
18766TIP3    H177713   5.880   1.020  14.780  0.5614 -2.0760  0.1362
18766TIP3    H277714   5.947   1.098  14.891  0.2091  0.8295 -1.5901
18767TIP3   OH277715   6.024   3.965   3.976  0.3831  0.4880  0.5008
18767TIP3    H177716   6.086   3.978   3.905 -1.1351  0.3392 -0.9231
18767TIP3    H277717   5.945   4.010   3.947 -1.4847 -2.5648  0.3746
18768TIP3   OH277718   1.173   2.422   1.161 -0.1572 -0.0425  0.3304
18768TIP3    H177719   1.185   2.459   1.074  1.0038 -1.8381 -0.3389
18768TIP3    H277720   1.258   2.433   1.204 -0.7865  1.0348  1.3513
18769TIP3   OH277721   5.183   3.618  12.062 -0.5211  0.6080 -0.0433
18769TIP3    H177722   5.234   3.608  11.982  0.1057 -0.5166  0.4638
18769TIP3    H277723   5.099   3.654  12.033 -0.6406 -0.6139 -1.3384
18770TIP3   OH277724   3.077   3.346   3.640 -0.0904 -0.0956 -0.3396
18770TIP3    H177725   3.127   3.266   3.627 -0.7465 -0.0977 -4.0019
18770TIP3    H277726   3.143   3.414   3.652  0.6327 -0.6708 -0.9872
18771TIP3   OH277727   6.581   5.058   0.916 -0.3545  0.3341 -0.5024
18771TIP3    H177728   6.532   5.137   0.938  0.0741 -0.0711  2.1872
18771TIP3    H277729   6.672   5.081   0.935 -0.1331 -0.5382 -0.4766
18772TIP3   OH277730   2.627   6.630  11.394  0.2604 -0.2361 -0.0227
18772TIP3    H177731   2.569   6.609  11.467  0.7811  0.7700  0.6930
18772TIP3    H277732   2.591   6.580  11.320 -0.2422 -1.3168  0.9161
18773TIP3   OH277733   4.126   4.717   0.305 -0.4480 -0.4928  0.4207
18773TIP3    H177734   4.112   4.809   0.286  0.1390 -0.4999 -0.0735
18773TIP3    H277735   4.040   4.676   0.293 -0.6443 -0.0611  0.3509
18774TIP3   OH277736   3.374   5.579  15.266  0.0700 -0.0190 -0.4825
18774TIP3    H177737   3.305   5.628  15.310  0.9642  1.0167 -0.2025
18774TIP3    H277738   3.438   5.645  15.239  1.1102 -0.9730 -0.4591
18775TIP3   OH277739   1.676   2.824  14.031  0.0382 -0.4259 -0.3195
18775TIP3    H177740   1.627   2.848  13.952  0.6963 -0.9627 -0.9029
18775TIP3    H277741   1.756   2.876  14.027 -0.9782  1.4028  1.2767
18776TIP3   OH277742   1.488   1.627  12.016 -0.2296 -0.6592  0.5662
18776TIP3    H177743   1.499   1.590  12.104 -2.2395  0.3555  1.3210
18776TIP3    H277744   1.575   1.622  11.976  1.2699  0.6387  3.3354
18777TIP3   OH277745   1.011   6.665   5.359 -0.1258 -0.1937 -0.2839
18777TIP3    H177746   1.044   6.608   5.428 -1.2668  1.1426  1.4869
18777TIP3    H277747   1.082   6.671   5.296  1.8452  0.1656  1.8340
18778TIP3   OH277748   2.281   1.432   5.217 -0.6617 -0.0347  0.3301
18778TIP3    H177749   2.208   1.373   5.200  0.7180 -1.4523 -1.0588
18778TIP3    H277750   2.268   1.461   5.308 -3.3202  0.4049 -0.1037
18779TIP3   OH277751   6.073   2.220  14.462 -0.7407 -0.4280 -0.3269
18779TIP3    H177752   6.059   2.314  14.471  0.0068 -0.1387 -1.8798
18779TIP3    H277753   5.995   2.180  14.498 -1.0644  0.7873  0.3676
18780TIP3   OH277754   1.732   3.994   2.811  0.3181 -0.4519  0.3903
18780TIP3    H177755   1.682   3.915   2.833  0.6424 -0.7640  0.0263
18780TIP3    H277756   1.699   4.061   2.871  0.2922 -0.9586  0.9550
18781TIP3   OH277757   1.387   6.428   1.770 -0.0398 -0.8394 -0.1051
18781TIP3    H177758   1.400   6.457   1.679 -1.4147 -1.2792 -0.4620
18781TIP3    H277759   1.302   6.385   1.770  0.1068 -1.1886  1.3271
18782TIP3   OH277760   0.585   0.182   1.933 -0.1842  0.5043 -0.1247
18782TIP3    H177761   0.662   0.130   1.955 -0.4085 -0.4018 -1.4127
18782TIP3    H277762   0.511   0.125   1.952 -0.4996  0.9178 -0.0925
18783TIP3   OH277763   2.911   0.556   2.388 -0.6431 -0.1498  0.1373
18783TIP3    H177764   2.886   0.648   2.387 -2.3881 -0.5891 -0.5497
18783TIP3    H277765   2.870   0.521   2.467  0.9449 -0.1346  1.0047
18784TIP3   OH277766   2.627   6.676  15.264  0.5759  0.5427 -0.0589
18784TIP3    H177767   2.533   6.664  15.276  0.7299 -0.2622  0.3642
18784TIP3    H277768   2.667   6.640  15.343  1.1951  1.8674  0.2708
18785TIP3   OH277769   1.926   3.980   4.339  0.7817 -0.4677  0.1869
18785TIP3    H177770   2.006   4.010   4.381  0.8322  0.7919 -0.7627
18785TIP3    H277771   1.869   4.057   4.339 -0.4837 -1.3679  0.9440
18786TIP3   OH277772   0.137   2.963   1.939  0.1558 -0.5880 -0.5823
18786TIP3    H177773   0.230   2.988   1.936  0.6585 -2.2717  0.1636
18786TIP3    H277774   0.137   2.872   1.967 -1.7305 -0.7140 -0.8666
18787TIP3   OH277775   5.291   2.259  14.869  0.5418 -0.2938 -0.2830
18787TIP3    H177776   5.208   2.222  14.838  0.7300  0.1020 -1.2811
18787TIP3    H277777   5.309   2.332  14.810  0.5076  1.0193  1.2619
18788TIP3   OH277778   0.669   2.686  13.694  0.3222 -0.2091  0.2207
18788TIP3    H177779   0.575   2.695  13.679  0.2669  0.3420  0.8454
18788TIP3    H277780   0.698   2.623  13.628 -0.1231  1.1204 -1.3355
18789TIP3   OH277781   3.748   0.844  11.796 -0.0486  0.1394 -0.4967
18789TIP3    H177782   3.826   0.893  11.823 -0.8749  2.5810 -2.2811
18789TIP3    H277783   3.771   0.809  11.710 -0.5832  0.0430 -0.6009
18790TIP3   OH277784   4.806   3.539  14.256 -0.5472 -0.3358  0.5728
18790TIP3    H177785   4.793   3.501  14.169 -0.9947 -2.0514  1.3482
18790TIP3    H277786   4.896   3.571  14.254  0.1552 -2.1778  0.0946
18791TIP3   OH277787   0.283   6.064   1.136 -0.6419 -0.4684  0.1900
18791TIP3    H177788   0.244   6.042   1.051 -0.1455  0.5483 -0.3180
18791TIP3    H277789   0.321   5.982   1.167 -0.2142 -0.6953 -0.9077
18792TIP3   OH277790   1.936   5.630   1.916 -0.1985 -0.3623 -0.4730
18792TIP3    H177791   1.954   5.564   1.982 -1.7866 -0.1494  0.2121
18792TIP3    H277792   1.853   5.670   1.943 -0.1089  0.7841 -1.7561
18793TIP3   OH277793   3.438   0.394   4.100 -0.7963 -0.7872 -0.1705
18793TIP3    H177794   3.429   0.449   4.022  1.3932 -0.6238 -0.3676
18793TIP3    H277795   3.402   0.310   4.073 -1.4500 -0.3082 -0.8572
18794TIP3   OH277796   4.512   2.415  14.084 -0.0178  0.5460  0.1918
18794TIP3    H177797   4.515   2.361  14.163 -0.5730 -0.3203 -0.3737
18794TIP3    H277798   4.490   2.355  14.014 -0.0494  1.4057 -0.5551
18795TIP3   OH277799   1.259   4.689   3.881  0.3380 -0.5410  1.0268
18795TIP3    H177800   1.241   4.605   3.838 -2.4968  0.3741  0.1952
18795TIP3    H277801   1.253   4.753   3.810  2.1739  0.4371  1.6996
18796TIP3   OH277802   3.993   6.259  14.190 -0.1834 -0.0495  0.5152
18796TIP3    H177803   3.939   6.189  14.154  0.5862 -1.6751  2.3251
18796TIP3    H277804   3.986   6.249  14.285  3.0024 -0.1709  0.8612
18797TIP3   OH277805   1.911   3.561  13.602 -0.3824  0.5101 -0.5401
18797TIP3    H177806   1.997   3.560  13.645  0.8295 -0.6041 -2.7936
18797TIP3    H277807   1.870   3.479  13.628  0.2754 -0.0837 -1.3270
18798TIP3   OH277808   1.495   0.068  13.988 -0.6151 -0.2659  0.1441
18798TIP3    H177809   1.413   0.092  13.943 -0.6585 -0.4655  0.1143
18798TIP3    H277810   1.564   0.109  13.936 -0.7728  1.3534  1.1071
18799TIP3   OH277811   5.038   3.276  10.887 -0.0469  0.4449  0.0467
18799TIP3    H177812   5.116   3.231  10.856 -0.2423  0.5442 -0.5985
18799TIP3    H277813   5.064   3.368  10.894 -0.2661  0.5758 -0.7428
18800TIP3   OH277814   5.742   0.262   2.633  0.1439  0.0952  0.3434
18800TIP3    H177815   5.728   0.217   2.716  2.1582  0.3819  0.8993
18800TIP3    H277816   5.661   0.310   2.618 -0.9394 -1.3843  1.2092
18801TIP3   OH277817   5.529   6.094   4.817 -0.6197 -0.1572 -0.0409
18801TIP3    H177818   5.540   6.033   4.744 -3.5384 -0.3538 -0.4205
18801TIP3    H277819   5.526   6.038   4.894 -0.7079 -0.2536 -0.1140
18802TIP3   OH277820   6.075   3.408  14.351  0.1929 -0.3764  0.3445
18802TIP3    H177821   5.991   3.373  14.382 -0.9621  1.4020 -0.5808
18802TIP3    H277822   6.137   3.336  14.362 -1.8505 -2.4119 -0.7336
18803TIP3   OH277823   6.232   6.152   4.450  0.4794  0.3597 -0.1727
18803TIP3    H177824   6.268   6.076   4.405  0.9379  0.9323 -0.7802
18803TIP3    H277825   6.155   6.176   4.398 -0.9025 -0.9194  1.1697
18804TIP3   OH277826   6.310   1.616  14.061 -0.2844  0.3820  0.2860
18804TIP3    H177827   6.313   1.707  14.033 -0.5265  2.5555  6.0204
18804TIP3    H277828   6.397   1.582  14.041 -0.0311  1.9392 -1.5636
18805TIP3   OH277829   6.063   3.798   5.446  0.0294 -0.6318  0.4987
18805TIP3    H177830   6.090   3.770   5.359 -0.3405  3.3142 -1.0977
18805TIP3    H277831   5.968   3.787   5.448 -0.2537  1.2098 -0.5265
18806TIP3   OH277832   4.928   4.290   1.654  0.0690 -0.3773 -0.3135
18806TIP3    H177833   4.955   4.362   1.596 -1.0386 -0.1151 -0.5265
18806TIP3    H277834   4.927   4.330   1.741 -0.9539 -0.0052 -0.4857
18807TIP3   OH277835   1.341   1.150  14.531  0.2570 -0.1769  0.0626
18807TIP3    H177836   1.283   1.133  14.457  0.7379  1.2851 -0.6754
18807TIP3    H277837   1.394   1.225  14.505  0.6968  0.1577  1.7433
18808TIP3   OH277838   0.303   3.508  10.865  0.1472 -0.3823 -0.3735
18808TIP3    H177839   0.316   3.445  10.794  0.4286 -0.9979  0.2196
18808TIP3    H277840   0.270   3.586  10.821 -3.0854 -1.8453 -0.8707
18809TIP3   OH277841   2.178   0.348   5.466  0.6113 -0.3468 -0.0018
18809TIP3    H177842   2.188   0.437   5.500 -1.1702  0.2583 -0.9177
18809TIP3    H277843   2.163   0.294   5.544  0.2913  0.4037  0.4663
18810TIP3   OH277844   5.527   2.619   5.218 -1.2677  0.3094  0.4515
18810TIP3    H177845   5.486   2.647   5.300 -0.5369  1.3598  0.4823
18810TIP3    H277846   5.467   2.650   5.150 -0.7407  1.5456  0.5114
18811TIP3   OH277847   3.346   3.665   3.155 -0.1973 -0.1880 -0.0993
18811TIP3    H177848   3.255   3.669   3.184  0.3131 -0.6388  1.6965
18811TIP3    H277849   3.361   3.749   3.112 -1.9395 -0.8052 -2.0218
18812TIP3   OH277850   4.281   1.358  10.981 -0.3944 -0.1449  0.3434
18812TIP3    H177851   4.366   1.366  10.938 -0.4950 -0.4104  0.0873
18812TIP3    H277852   4.220   1.339  10.909 -0.7738  0.6771  0.4364
18813TIP3   OH277853   1.006   1.924   1.097  0.1802  0.1622  0.0694
18813TIP3    H177854   0.926   1.954   1.141  1.0891  1.1709  1.1087
18813TIP3    H277855   1.043   2.003   1.058  0.4811 -0.3674 -0.7429
18814TIP3   OH277856   4.145   4.790  12.287  0.3543 -0.1124 -0.4496
18814TIP3    H177857   4.187   4.706  12.269 -0.6408 -0.5502 -0.7741
18814TIP3    H277858   4.139   4.794  12.383  2.8997  0.8560 -0.2541
18815TIP3   OH277859   6.299   6.758   0.120 -0.1310  0.0591 -0.2535
18815TIP3    H177860   6.386   6.781   0.086 -0.4185 -0.1351 -1.1474
18815TIP3    H277861   6.279   6.674   0.079 -1.5340  0.9773 -1.5753
18816TIP3   OH277862   2.681   1.593  11.241  0.0999 -0.5232  0.2737
18816TIP3    H177863   2.648   1.503  11.249  0.1707 -0.6385 -0.5991
18816TIP3    H277864   2.758   1.584  11.185  0.6420 -0.0355  0.9364
18817TIP3   OH277865   4.569   0.785  11.327 -0.2715  0.6634 -0.1931
18817TIP3    H177866   4.523   0.770  11.244  0.1449 -0.1828 -0.2720
18817TIP3    H277867   4.637   0.849  11.305  1.2191 -1.1125 -1.0181
18818TIP3   OH277868   2.924   3.494   4.144 -0.1508 -0.0071 -0.1613
18818TIP3    H177869   2.917   3.507   4.050  1.1533  1.7143 -0.0627
18818TIP3    H277870   2.955   3.578   4.178 -1.0104 -0.4569  1.8598
18819TIP3   OH277871   2.837   5.046  14.811 -0.3192 -0.2602  0.2203
18819TIP3    H177872   2.761   5.026  14.866  0.4587 -1.5173  0.9003
18819TIP3    H277873   2.855   4.964  14.765  2.2843 -0.9093  2.1754
18820TIP3   OH277874   4.083   1.369  17.031  0.0562  0.6148 -0.2258
18820TIP3    H177875   4.165   1.337  16.993 -1.1034 -1.2154 -1.3832
18820TIP3    H277876   4.030   1.394  16.955 -1.4880 -0.9508  0.2851
18821TIP3   OH277877   1.850   5.895   1.780 -0.1889 -0.0349 -0.0767
18821TIP3    H177878   1.857   5.886   1.875  0.4615  0.0364 -0.1179
18821TIP3    H277879   1.868   5.808   1.746 -2.6793 -0.6499 -0.0467
18822TIP3   OH277880   2.531   2.434  14.685  0.5381 -0.0178 -0.9794
18822TIP3    H177881   2.454   2.395  14.644  0.6257 -0.7263 -0.4925
18822TIP3    H277882   2.496   2.493  14.751  0.3740 -1.8327  0.6374
18823TIP3   OH277883   2.001   3.907  12.139 -1.0839 -0.2581  0.1976
18823TIP3    H177884   2.016   3.915  12.045  1.3768  0.7628  0.6008
18823TIP3    H277885   1.906   3.902  12.147 -1.3661 -0.5959 -2.3412
18824TIP3   OH277886   4.977   6.386  16.621 -0.4104  0.7132  0.3603
18824TIP3    H177887   5.041   6.340  16.568 -1.0242 -0.6795  0.7794
18824TIP3    H277888   5.027   6.419  16.696 -0.2172 -0.6097  0.8345
18825TIP3   OH277889   2.363   5.740  16.793  0.1237  0.0915  0.5117
18825TIP3    H177890   2.432   5.762  16.731  0.8897 -0.7647  1.0204
18825TIP3    H277891   2.406   5.683  16.857 -1.3003 -1.4027  0.2270
18826TIP3   OH277892   0.879   3.341  16.839 -0.0471  0.6704 -0.0502
18826TIP3    H177893   0.809   3.286  16.803  0.6254 -0.6145  0.5261
18826TIP3    H277894   0.948   3.279  16.862  0.7227  1.7690  0.6855
18827TIP3   OH277895   0.227   5.896  15.086 -0.6734 -0.2405  0.4207
18827TIP3    H177896   0.312   5.892  15.043 -1.4821  0.5925 -1.3782
18827TIP3    H277897   0.164   5.898  15.014 -2.1140  1.5192  1.6247
18828TIP3   OH277898   4.873   0.248   4.417  0.0752  0.3449  0.5713
18828TIP3    H177899   4.836   0.285   4.496 -0.1690  0.2340  0.5094
18828TIP3    H277900   4.930   0.177   4.448  0.3696  0.6233  0.6752
18829TIP3   OH277901   0.063   3.705  13.508  0.3991  0.5148 -0.0417
18829TIP3    H177902   0.140   3.720  13.453  1.1948 -0.7831  0.6758
18829TIP3    H277903   0.057   3.610  13.514 -0.3227  0.6298  1.2171
18830TIP3   OH277904   5.768   0.081  14.312 -0.2861 -0.3115  0.4499
18830TIP3    H177905   5.732   0.101  14.226 -1.3436 -1.0919  0.6909
18830TIP3    H277906   5.833   0.149  14.328 -0.9635  0.5547 -0.4335
18831TIP3   OH277907   2.874   4.499   1.449 -0.6038  0.7235  0.2666
18831TIP3    H177908   2.831   4.579   1.419 -0.4447  1.1598  1.1714
18831TIP3    H277909   2.933   4.475   1.377 -2.6708 -0.1719 -1.2257
18832TIP3   OH277910   5.444   4.699   6.182 -0.2137  0.3422  0.1664
18832TIP3    H177911   5.354   4.706   6.213  0.1962 -0.6978  1.6790
18832TIP3    H277912   5.492   4.658   6.254  1.8985  2.5773  0.1868
18833TIP3   OH277913   5.506   0.329   5.279 -0.2068 -0.1743 -0.2440
18833TIP3    H177914   5.487   0.315   5.372 -1.0169  0.7946 -0.2441
18833TIP3    H277915   5.535   0.243   5.247 -1.7336 -1.0171  0.4864
18834TIP3   OH277916   3.807   3.878   4.848  0.3821  0.2054 -0.0800
18834TIP3    H177917   3.852   3.963   4.854  0.1007  0.4053 -0.6872
18834TIP3    H277918   3.742   3.891   4.779 -0.9767  0.0797  1.1523
18835TIP3   OH277919   5.050   2.373  11.299  0.3809 -0.6677 -0.5374
18835TIP3    H177920   4.961   2.338  11.293  0.3409 -0.7841  0.5536
18835TIP3    H277921   5.063   2.420  11.217 -0.9595 -0.0176 -0.3995
18836TIP3   OH277922   5.722   5.134   0.217 -0.5753 -0.2897 -0.7492
18836TIP3    H177923   5.818   5.143   0.219 -0.5473 -0.5478  0.7561
18836TIP3    H277924   5.694   5.188   0.144  0.6485  0.6946 -0.5287
18837TIP3   OH277925   5.067   3.674   2.274  0.1450  0.0733  0.0933
18837TIP3    H177926   5.143   3.718   2.310 -0.4106 -0.8256  2.5493
18837TIP3    H277927   4.992   3.726   2.303 -0.3650 -1.0769  0.9200
18838TIP3   OH277928   4.828   6.332   5.129 -0.7681 -0.1500  0.3129
18838TIP3    H177929   4.820   6.237   5.127 -2.1328 -0.0656  1.0205
18838TIP3    H277930   4.902   6.351   5.071 -1.0426 -1.5706 -0.5402
18839TIP3   OH277931   5.259   6.543  15.291 -0.7656  0.2075  0.3972
18839TIP3    H177932   5.253   6.635  15.266 -0.7001 -0.1996 -1.2515
18839TIP3    H277933   5.332   6.510  15.239 -0.2159 -0.5924  1.6270
18840TIP3   OH277934   4.590   5.878   2.750  0.2149  0.9921 -0.2104
18840TIP3    H177935   4.588   5.787   2.779  3.2530  0.7851 -0.4069
18840TIP3    H277936   4.534   5.879   2.672 -0.2424 -0.5910  0.0638
18841TIP3   OH277937   2.729   1.198   0.199  0.5522  0.0181 -0.2079
18841TIP3    H177938   2.673   1.125   0.171  1.0638 -0.4911  0.0564
18841TIP3    H277939   2.739   1.184   0.294  2.2080 -0.6921 -0.4499
18842TIP3   OH277940   2.391   0.313   5.213 -0.1947 -0.1365 -0.5264
18842TIP3    H177941   2.396   0.342   5.304 -0.7187  0.4410 -0.6784
18842TIP3    H277942   2.396   0.217   5.219  0.7755 -0.0710  0.0303
18843TIP3   OH277943   4.923   4.310   5.156  0.0596  0.1005  0.0470
18843TIP3    H177944   4.988   4.380   5.153 -0.9754  1.0612 -1.0912
18843TIP3    H277945   4.846   4.347   5.113 -0.3052 -1.9438 -1.2145
18844TIP3   OH277946   3.312   3.646  16.934  0.4798  0.2809 -0.5248
18844TIP3    H177947   3.223   3.615  16.918 -0.4859  2.3432  0.4249
18844TIP3    H277948   3.340   3.683  16.850  0.4908 -0.4845 -0.8586
18845TIP3   OH277949   4.761   0.802   0.138  0.1177  0.5783 -0.0002
18845TIP3    H177950   4.721   0.800   0.226 -1.1671 -0.3323 -0.5683
18845TIP3    H277951   4.767   0.710   0.113  0.8485  0.8148 -0.7171
18846TIP3   OH277952   1.996   5.185   2.385  0.1322  0.0359 -0.4229
18846TIP3    H177953   2.022   5.145   2.303  0.6558  0.8814 -0.6770
18846TIP3    H277954   2.035   5.129   2.452 -1.1384 -1.2494 -0.6867
18847TIP3   OH277955   3.960   4.903  11.452 -0.2620 -0.5704 -0.4970
18847TIP3    H177956   3.937   4.994  11.470 -2.8093 -1.1819 -0.2980
18847TIP3    H277957   4.036   4.886  11.507 -1.5628  0.6036  1.8250
18848TIP3   OH277958   6.207   4.624   1.341  0.4177 -0.5280 -0.2443
18848TIP3    H177959   6.194   4.698   1.401 -0.5004  0.0748 -1.1451
18848TIP3    H277960   6.235   4.552   1.397  0.4090  0.2481  0.7891
18849TIP3   OH277961   0.885   4.250  16.774 -0.8777  0.1223  0.0500
18849TIP3    H177962   0.804   4.300  16.758  0.3215  2.8510  1.8072
18849TIP3    H277963   0.950   4.291  16.717 -0.3428 -0.9761 -0.1519
18850TIP3   OH277964   2.388   0.792   4.747 -0.6105 -0.8237 -0.2149
18850TIP3    H177965   2.338   0.844   4.809  0.2160 -0.1171 -0.1127
18850TIP3    H277966   2.366   0.829   4.661  1.0413  0.6982 -0.0448
18851TIP3   OH277967   5.371   4.887  12.707  1.0319  0.3270  0.2576
18851TIP3    H177968   5.288   4.871  12.662  2.0639 -0.7729 -1.3248
18851TIP3    H277969   5.346   4.940  12.783 -1.5922 -2.4078  1.5643
18852TIP3   OH277970   2.532   1.824   0.714  0.0734 -0.0467  0.1876
18852TIP3    H177971   2.536   1.736   0.750  1.5701  0.8298  2.3758
18852TIP3    H277972   2.558   1.881   0.786  1.6599  1.9963 -1.8262
18853TIP3   OH277973   5.100   4.081  12.187  0.6289  0.5012  0.0901
18853TIP3    H177974   5.147   4.132  12.121  1.5289  0.4208  0.6453
18853TIP3    H277975   5.158   4.006  12.205 -0.0123  0.0518  0.3262
18854TIP3   OH277976   0.086   4.287   5.654  0.4844 -0.0401 -0.0790
18854TIP3    H177977   0.088   4.194   5.677  1.4720  0.1879  0.8213
18854TIP3    H277978   0.026   4.326   5.718  1.0679  0.1475  0.3536
18855TIP3   OH277979   0.554   6.459  12.467 -0.0684 -0.2318  0.3627
18855TIP3    H177980   0.464   6.487  12.450 -1.2066 -2.2727  2.4743
18855TIP3    H277981   0.575   6.400  12.395 -0.6473 -0.2295  0.1852
18856TIP3   OH277982   0.379   2.907  11.340 -0.8117 -0.5433 -0.0213
18856TIP3    H177983   0.319   2.967  11.297 -2.4443 -1.6853  0.5714
18856TIP3    H277984   0.461   2.915  11.291 -1.2086  1.5672 -0.4123
18857TIP3   OH277985   4.171   6.734   3.912 -0.8336  0.1431 -0.1347
18857TIP3    H177986   4.228   6.660   3.934 -0.1084  0.3597 -1.2284
18857TIP3    H277987   4.092   6.694   3.876 -0.1054 -0.1116 -1.5200
18858TIP3   OH277988   4.619   4.040   0.020 -0.5188 -0.1887 -0.0044
18858TIP3    H177989   4.580   4.074  -0.060 -1.5928  1.0172  0.9902
18858TIP3    H277990   4.710   4.071   0.017 -1.1460  1.8130  0.2821
18859TIP3   OH277991   0.011   0.300   2.606 -0.1977  0.7814 -0.2659
18859TIP3    H177992  -0.013   0.261   2.522 -0.3674  0.2364  0.0341
18859TIP3    H277993   0.016   0.394   2.588  0.1346  0.6326 -0.9717
18860TIP3   OH277994   5.989   1.615   1.181 -0.8118 -0.9066  0.4313
18860TIP3    H177995   5.921   1.657   1.233 -2.7713 -2.3495 -0.8070
18860TIP3    H277996   5.997   1.527   1.219 -0.4303 -1.1120 -0.1136
18861TIP3   OH277997   1.917   3.134   5.407 -0.4871 -0.1818 -0.3168
18861TIP3    H177998   2.009   3.148   5.427 -0.1287 -2.5448 -0.1034
18861TIP3    H277999   1.910   3.149   5.313 -0.0759  0.7508 -0.2147
18862TIP3   OH278000   2.753   4.559  11.195 -0.3302  0.4045  0.1717
18862TIP3    H178001   2.769   4.621  11.265  1.1457 -1.7902  1.9465
18862TIP3    H278002   2.841   4.538  11.162 -0.7148 -1.0800  0.0052
18863TIP3   OH278003   6.205   2.976  14.811 -0.4118  0.3549 -0.6073
18863TIP3    H178004   6.251   2.911  14.864 -0.3989  0.5247 -0.4085
18863TIP3    H278005   6.112   2.955  14.823 -0.4035  0.3043 -0.6324
18864TIP3   OH278006   3.201   1.945   3.402 -0.1448  0.1108  0.7190
18864TIP3    H178007   3.193   2.039   3.418  0.9551  0.3686 -0.1027
18864TIP3    H278008   3.295   1.927   3.410 -0.5100 -1.2884  2.6750
18865TIP3   OH278009   2.259   2.351   2.400 -0.0746 -0.7535 -0.3369
18865TIP3    H178010   2.354   2.356   2.406  0.2332 -3.1971 -1.7883
18865TIP3    H278011   2.231   2.314   2.484  0.1967  0.1862  0.1812
18866TIP3   OH278012   2.591   3.011  13.113  0.2711 -0.5201  0.1208
18866TIP3    H178013   2.654   3.043  13.177  1.5117 -1.8130 -0.3877
18866TIP3    H278014   2.540   3.088  13.088  2.6117  0.8996 -0.5115
18867TIP3   OH278015   0.720   2.868   6.305  0.0155 -0.2228 -0.3539
18867TIP3    H178016   0.715   2.839   6.396 -0.7643 -1.2820 -0.7055
18867TIP3    H278017   0.775   2.802   6.262  0.3907  0.2765 -0.6545
18868TIP3   OH278018   1.820   0.911  14.146  0.2729  0.6499 -0.1323
18868TIP3    H178019   1.740   0.897  14.095  0.3653 -0.4816 -0.0044
18868TIP3    H278020   1.799   0.878  14.233  0.3949  1.7710  0.3318
18869TIP3   OH278021   2.985   2.110  13.179 -0.7429  0.6280 -0.2457
18869TIP3    H178022   3.056   2.151  13.229  0.8359  1.5007 -2.9907
18869TIP3    H278023   3.023   2.093  13.093 -3.2915 -0.8231 -1.1962
18870TIP3   OH278024   4.995   4.841   3.620 -0.6202  0.3403  0.1418
18870TIP3    H178025   5.025   4.887   3.542 -1.1431 -1.4592 -1.1835
18870TIP3    H278026   4.913   4.885   3.643 -1.3652 -0.1815 -1.3811
18871TIP3   OH278027   3.743   4.402  15.646 -0.7788 -0.4180 -0.2812
18871TIP3    H178028   3.760   4.336  15.579 -1.0346 -0.6811 -0.0904
18871TIP3    H278029   3.697   4.472  15.599 -1.4143 -0.8278 -0.2815
18872TIP3   OH278030   0.877   1.044  16.089 -0.0724 -0.4139 -0.0347
18872TIP3    H178031   0.902   0.951  16.089 -0.2606 -0.5245 -2.1470
18872TIP3    H278032   0.797   1.047  16.142  0.9234 -1.1045  1.5924
18873TIP3   OH278033   5.892   3.489  17.018 -0.2271  0.0817  0.6041
18873TIP3    H178034   5.918   3.488  16.926 -0.1903 -0.3396  0.6161
18873TIP3    H278035   5.898   3.581  17.045  1.9755 -0.0660  0.8160
18874TIP3   OH278036   5.302   0.459   0.177  0.3899  0.4558  0.2195
18874TIP3    H178037   5.370   0.515   0.138  0.3138 -0.0841 -0.7005
18874TIP3    H278038   5.293   0.492   0.267  0.1248  2.1197 -0.3948
18875TIP3   OH278039   0.745   5.079  16.107 -0.0269  0.2473 -0.2153
18875TIP3    H178040   0.736   5.172  16.086 -1.8587 -0.0691 -1.0707
18875TIP3    H278041   0.691   5.067  16.186 -0.4418 -0.2236 -0.5649
18876TIP3   OH278042   1.097   1.393   1.366  0.3878  0.0378 -0.1542
18876TIP3    H178043   1.146   1.368   1.288  1.1289 -1.3773  0.7195
18876TIP3    H278044   1.154   1.367   1.439 -0.8182  0.1856  0.8728
18877TIP3   OH278045   4.763   2.678  13.647  0.0466 -0.2908 -0.0474
18877TIP3    H178046   4.703   2.617  13.604  3.1348 -2.6364 -1.3851
18877TIP3    H278047   4.745   2.666  13.741 -2.9427  0.7551 -0.3598
18878TIP3   OH278048   0.400   6.536   0.182  0.7624  0.2801  0.1672
18878TIP3    H178049   0.456   6.605   0.146 -0.6215  0.0371 -2.7016
18878TIP3    H278050   0.377   6.567   0.270  2.6030  1.9789  0.1246
18879TIP3   OH278051   5.618   3.286   4.550  0.0089 -0.1629  0.3998
18879TIP3    H178052   5.621   3.191   4.544 -0.6549 -0.2619  1.4211
18879TIP3    H278053   5.698   3.310   4.597  1.1613 -0.0347 -1.5432
18880TIP3   OH278054   0.358   4.799  16.238  0.3487  0.0960  0.8025
18880TIP3    H178055   0.349   4.706  16.260  1.1987 -0.2900 -0.4034
18880TIP3    H278056   0.417   4.834  16.306  0.5373 -0.3859  0.8878
18881TIP3   OH278057   0.016   1.999   4.699 -0.0790 -0.4821  0.1153
18881TIP3    H178058   0.081   2.032   4.761  1.4989 -2.2709 -0.4931
18881TIP3    H278059   0.025   2.055   4.622  1.2595 -1.0917 -0.2095
18882TIP3   OH278060   2.627   3.825  14.757  0.0219  0.3287 -0.9402
18882TIP3    H178061   2.609   3.748  14.703 -1.2559  0.6613 -1.0273
18882TIP3    H278062   2.643   3.790  14.845  0.1710 -0.0805 -1.1276
18883TIP3   OH278063   4.652   0.825  15.645  0.5136 -0.1383  0.3805
18883TIP3    H178064   4.688   0.795  15.728  0.8085 -1.0151 -0.0482
18883TIP3    H278065   4.727   0.826  15.585  0.1754 -0.1702 -0.0522
18884TIP3   OH278066   4.630   2.114   1.774  0.8581  0.1714  0.0995
18884TIP3    H178067   4.718   2.092   1.743  1.1292  0.8223  0.3611
18884TIP3    H278068   4.644   2.146   1.863  0.4587  1.0342 -0.1349
18885TIP3   OH278069   2.573   5.351  14.225 -0.3212 -0.0261  0.1590
18885TIP3    H178070   2.552   5.354  14.132  0.5012  0.9261 -0.0235
18885TIP3    H278071   2.489   5.362  14.269 -0.7850 -0.9988 -0.4517
18886TIP3   OH278072   5.559   1.564   1.963 -0.4647  0.0100  0.7348
18886TIP3    H178073   5.650   1.586   1.945 -0.7365 -0.7139 -2.0449
18886TIP3    H278074   5.509   1.631   1.917 -1.2870 -1.5550 -0.7594
18887TIP3   OH278075   6.050   2.260  10.929 -0.0083 -0.4684  0.2705
18887TIP3    H178076   6.029   2.233  11.018  0.0251  0.1906  0.4871
18887TIP3    H278077   6.066   2.178  10.881 -1.6915 -0.9337  0.4427
18888TIP3   OH278078   4.728   3.730  12.772 -0.5326  0.6978  0.6199
18888TIP3    H178079   4.763   3.819  12.768  2.4203 -0.2989  1.6740
18888TIP3    H278080   4.748   3.700  12.861 -2.0871 -0.8058  0.5270
18889TIP3   OH278081   5.687   0.327  15.006  0.4244  0.5956 -0.2682
18889TIP3    H178082   5.629   0.321  15.082 -1.7535 -1.1063 -1.9086
18889TIP3    H278083   5.750   0.255  15.017  1.1216  1.3380  0.6627
18890TIP3   OH278084   5.784   2.750   0.189 -0.8987  0.6106 -0.1026
18890TIP3    H178085   5.816   2.826   0.142  1.4736 -0.4530 -0.3354
18890TIP3    H278086   5.731   2.703   0.124 -1.0255  1.2183 -0.4494
18891TIP3   OH278087   3.405   0.555   3.870  0.6196 -0.0230  0.3529
18891TIP3    H178088   3.445   0.640   3.889 -0.8612  0.6943  0.4516
18891TIP3    H278089   3.444   0.528   3.787  1.7490  0.3277  0.7534
18892TIP3   OH278090   5.306   4.079  14.276 -0.1881  0.4112  0.4279
18892TIP3    H178091   5.325   4.024  14.352  0.3447 -0.0858 -0.0526
18892TIP3    H278092   5.214   4.063  14.257  0.3047 -1.4210 -0.5656
18893TIP3   OH278093   4.668   1.186  13.097  0.1721  0.6056 -0.2985
18893TIP3    H178094   4.635   1.238  13.023  0.6160  1.6848  0.2496
18893TIP3    H278095   4.647   1.238  13.174 -0.8141 -0.7830  0.4058
18894TIP3   OH278096   0.394   3.507  14.179  0.2965  0.6923  0.1937
18894TIP3    H178097   0.353   3.507  14.266  0.0071  0.2632  0.0637
18894TIP3    H278098   0.486   3.527  14.195  0.0591  1.6044  0.4992
18895TIP3   OH278099   2.018   4.403   3.521  0.5518 -0.2578 -0.1750
18895TIP3    H178100   2.043   4.349   3.446  0.6390 -1.9926  1.0589
18895TIP3    H278101   1.940   4.361   3.556 -0.6987  1.6876 -0.4283
18896TIP3   OH278102   0.271   0.344  16.303  0.3298  0.7049 -0.3951
18896TIP3    H178103   0.356   0.321  16.266  0.1446 -0.3074 -0.2140
18896TIP3    H278104   0.213   0.273  16.275  0.1010  0.1004  1.5053
18897TIP3   OH278105   0.092   1.399  12.347  0.2837 -0.7395 -0.4240
18897TIP3    H178106   0.077   1.487  12.313 -1.3379 -0.5728  0.6477
18897TIP3    H278107   0.104   1.412  12.441  1.1367 -1.5636 -0.4079
18898TIP3   OH278108   0.815   5.531  15.296  0.0043 -0.2549  0.1088
18898TIP3    H178109   0.820   5.438  15.276 -1.8724 -0.3433 -0.1894
18898TIP3    H278110   0.829   5.537  15.391 -2.7616 -1.2468  0.6832
18899TIP3   OH278111   5.648   3.170   1.562  0.3075 -0.0902 -0.3527
18899TIP3    H178112   5.654   3.266   1.568  0.7123 -0.1907  1.4459
18899TIP3    H278113   5.726   3.139   1.608  0.5286 -1.2976 -1.4928
18900TIP3   OH278114   2.035   6.369  15.108  0.4161 -0.0213 -0.1322
18900TIP3    H178115   2.042   6.439  15.172 -0.7244 -0.0655  0.0612
18900TIP3    H278116   1.957   6.391  15.057  0.1231 -1.0698 -0.1532
18901TIP3   OH278117   3.991   1.795   2.002 -0.1867  0.0588 -0.0210
18901TIP3    H178118   3.918   1.836   2.047  0.9299 -1.0149  3.0341
18901TIP3    H278119   3.950   1.736   1.938 -1.8630  1.4539 -0.2935
18902TIP3   OH278120   0.103   0.771   0.257  0.0245 -0.7509 -0.3493
18902TIP3    H178121   0.032   0.820   0.297 -0.2905 -1.1264 -0.4342
18902TIP3    H278122   0.079   0.764   0.165  0.5914 -0.1596 -0.5541
18903TIP3   OH278123   5.698   1.565   0.429  0.2860 -0.3823 -0.5015
18903TIP3    H178124   5.753   1.526   0.361 -0.8907 -0.4320 -1.4552
18903TIP3    H278125   5.611   1.570   0.390 -0.4166 -0.3628  0.9912
18904TIP3   OH278126   0.973   6.657   1.148 -0.2211 -0.1278 -1.0010
18904TIP3    H178127   1.036   6.720   1.113  0.0938 -0.5619 -1.2169
18904TIP3    H278128   0.946   6.606   1.072 -2.2760  1.2762 -1.2980
18905TIP3   OH278129   0.780   6.005   0.109 -0.5103 -0.4681 -0.2661
18905TIP3    H178130   0.762   6.093   0.076  1.2118  0.5921  1.3769
18905TIP3    H278131   0.869   5.986   0.077  0.0121 -0.6459  1.2366
18906TIP3   OH278132   2.628   4.338  13.092  0.3371  0.0641  0.4243
18906TIP3    H178133   2.674   4.276  13.036  0.6475  0.0246  0.7242
18906TIP3    H278134   2.555   4.369  13.038  1.3233  0.9513 -0.4667
18907TIP3   OH278135   4.585   2.670   4.640  0.5983  0.2851 -0.0226
18907TIP3    H178136   4.569   2.670   4.545  1.0818  0.5633 -0.1056
18907TIP3    H278137   4.622   2.583   4.657 -1.6866 -0.7020  0.3066
18908TIP3   OH278138   5.551   4.297  11.266 -0.0318 -0.4254  0.3271
18908TIP3    H178139   5.525   4.389  11.273  1.5251 -0.0477  2.2166
18908TIP3    H278140   5.622   4.296  11.202  0.2064 -0.2209  0.5837
18909TIP3   OH278141   0.123   4.177   1.083  0.5477  0.5406 -0.3320
18909TIP3    H178142   0.210   4.151   1.113  0.6640  1.1582 -0.1210
18909TIP3    H278143   0.069   4.179   1.162  0.7747  1.8455 -0.1929
18910TIP3   OH278144   0.280   1.599  16.838 -0.2324 -0.1692 -0.8668
18910TIP3    H178145   0.317   1.513  16.860  1.8940  0.7868 -0.4437
18910TIP3    H278146   0.186   1.589  16.852  0.0752 -2.1154  0.2221
18911TIP3   OH278147   2.704   5.243  12.441  0.0389 -0.4956  0.4696
18911TIP3    H178148   2.794   5.271  12.454 -0.0942 -0.0951  0.5628
18911TIP3    H278149   2.674   5.293  12.365  0.3420 -1.6950 -0.4705
18912TIP3   OH278150   5.547   5.933  11.884 -0.0508  0.3648  0.2214
18912TIP3    H178151   5.567   5.870  11.814 -2.3505 -0.4642  0.2084
18912TIP3    H278152   5.558   6.019  11.842  1.1670 -0.0628 -0.3697
18913TIP3   OH278153   1.344   4.952  13.420 -0.4857  0.0313  0.1431
18913TIP3    H178154   1.440   4.948  13.427 -0.3786  2.1475  0.3676
18913TIP3    H278155   1.320   5.035  13.461 -2.4720 -0.6060  0.3784
18914TIP3   OH278156   4.814   6.340  14.198  0.8358 -0.1103  0.3774
18914TIP3    H178157   4.843   6.396  14.270  0.6432 -1.3848  1.4846
18914TIP3    H278158   4.721   6.324  14.217  0.6575 -0.0686 -0.4329
18915TIP3   OH278159   0.716   2.780  16.984  0.0426  0.2303  0.2300
18915TIP3    H178160   0.770   2.858  16.982 -0.6422  0.7050 -0.2538
18915TIP3    H278161   0.626   2.812  16.980 -0.2573 -0.5702  0.2060
18916TIP3   OH278162   2.883   4.850  12.869 -0.7619  0.3678 -0.1399
18916TIP3    H178163   2.912   4.819  12.954 -0.8701  1.9491  0.5137
18916TIP3    H278164   2.961   4.845  12.814 -0.0556  1.4865  0.7096
18917TIP3   OH278165   3.003   5.289  14.760 -0.4446 -0.2667  0.1150
18917TIP3    H178166   2.964   5.335  14.686 -0.5829  0.8964  0.8867
18917TIP3    H278167   2.938   5.223  14.784 -0.9326  0.1549 -0.0378
18918TIP3   OH278168   5.186   6.046  15.175  0.2552  0.7233  0.4002
18918TIP3    H178169   5.198   5.961  15.132  1.3667  1.1383 -0.1392
18918TIP3    H278170   5.200   6.110  15.106 -1.2178  1.3659  0.6509
18919TIP3   OH278171   3.159   3.407  15.872 -0.0293  0.8895 -0.4825
18919TIP3    H178172   3.136   3.315  15.859 -1.1564  0.7093  2.2005
18919TIP3    H278173   3.080   3.455  15.846  0.0301  0.9908 -0.4763
18920TIP3   OH278174   2.881   3.117   2.251 -0.0080  0.4592 -0.1884
18920TIP3    H178175   2.864   3.078   2.165 -0.0960  0.8932 -0.3720
18920TIP3    H278176   2.901   3.209   2.232 -1.0340  0.8090  0.3258
18921TIP3   OH278177   0.580   6.483   5.679  0.2021 -0.0660  0.1564
18921TIP3    H178178   0.510   6.425   5.650 -0.1045  1.1528 -1.6940
18921TIP3    H278179   0.536   6.546   5.736 -0.5800  1.5230 -2.0653
18922TIP3   OH278180   2.149   6.622  17.288 -0.3468 -0.1119  0.1152
18922TIP3    H178181   2.156   6.684  17.216 -1.0289  0.9662  0.9402
18922TIP3    H278182   2.211   6.553  17.266 -2.1903 -1.0225 -2.6453
18923TIP3   OH278183   5.133   3.493   5.636  0.0380 -0.2915  0.0606
18923TIP3    H178184   5.211   3.457   5.594  0.0302  0.2783 -0.4540
18923TIP3    H278185   5.160   3.508   5.727 -0.2405 -2.4632  0.5652
18924TIP3   OH278186   5.651   5.903   3.548  0.1267 -0.0298  0.1450
18924TIP3    H178187   5.712   5.976   3.560 -0.1437  0.4079 -1.0725
18924TIP3    H278188   5.593   5.931   3.478 -1.5913 -0.3719  1.3511
18925TIP3   OH278189   3.568   0.138  15.071 -0.0906  0.8178 -0.2180
18925TIP3    H178190   3.582   0.045  15.088 -1.5511  0.9632  2.1883
18925TIP3    H278191   3.656   0.174  15.062  0.4900 -0.9440 -2.5442
18926TIP3   OH278192   1.839   5.271   2.021  0.1045 -0.1177 -0.0025
18926TIP3    H178193   1.748   5.286   2.045  0.3528 -0.4714  1.1856
18926TIP3    H278194   1.850   5.176   2.025  1.1193  0.0298  2.1984
18927TIP3   OH278195   5.015   1.527  11.133  0.5594  0.0708  0.1219
18927TIP3    H178196   5.053   1.611  11.105 -1.2078  1.3105  1.2290
18927TIP3    H278197   5.049   1.513  11.221  2.1578 -1.2702 -0.6662
18928TIP3   OH278198   5.293   0.823   1.501  0.1487  0.1488  0.3224
18928TIP3    H178199   5.245   0.756   1.550  0.5982  0.6471  1.4767
18928TIP3    H278200   5.373   0.836   1.551  0.1708  1.3835 -0.0117
18929TIP3   OH278201   1.274   6.119   2.426  0.0412  0.2320 -0.1665
18929TIP3    H178202   1.304   6.184   2.362  1.7231 -0.4465 -0.1241
18929TIP3    H278203   1.179   6.118   2.417  0.1044  1.5946 -1.2358
18930TIP3   OH278204   1.974   1.923  14.205 -0.1479  0.2402 -0.2198
18930TIP3    H178205   1.974   1.833  14.238 -0.6012  0.3768  0.1580
18930TIP3    H278206   2.013   1.974  14.275 -1.2273  0.5489  0.1723
18931TIP3   OH278207   1.990   1.559   2.935  0.4026 -0.0142  0.0861
18931TIP3    H178208   1.926   1.592   2.997 -1.6932 -0.1957 -1.8467
18931TIP3    H278209   2.005   1.468   2.962 -1.1275 -0.3528 -0.1212
18932TIP3   OH278210   4.433   1.243   6.281 -0.1732  0.2681  0.0271
18932TIP3    H178211   4.431   1.150   6.257  1.8683  0.0013  0.7204
18932TIP3    H278212   4.484   1.246   6.362 -1.6696  1.8362  0.9805
18933TIP3   OH278213   5.720   2.724   1.205  0.6892 -0.0782  0.4473
18933TIP3    H178214   5.696   2.703   1.115  1.1972  0.8664  0.0791
18933TIP3    H278215   5.638   2.750   1.246  0.5942  0.3508 -0.0009
18934TIP3   OH278216   0.650   6.174  16.323  0.3987 -0.4528 -0.2202
18934TIP3    H178217   0.591   6.242  16.290  1.3114 -0.1784 -1.3574
18934TIP3    H278218   0.737   6.200  16.292  1.3195 -0.3271  2.2203
18935TIP3   OH278219   6.642   4.233   2.858 -0.1570 -0.0616  0.0369
18935TIP3    H178220   6.622   4.245   2.950 -0.5596  1.5815 -0.2416
18935TIP3    H278221   6.697   4.308   2.834 -0.8227  0.0508 -1.2604
18936TIP3   OH278222   3.697   3.675  15.596 -0.2424 -0.1978  0.2811
18936TIP3    H178223   3.724   3.585  15.615  1.2688  0.3820  1.0242
18936TIP3    H278224   3.643   3.700  15.671  1.0490  0.1915  1.1000
18937TIP3   OH278225   4.413   6.721   2.401  0.0080 -0.3867  0.4775
18937TIP3    H178226   4.402   6.773   2.480 -3.7787 -0.4249  0.1756
18937TIP3    H278227   4.326   6.718   2.362  1.4465 -1.4573 -3.0501
18938TIP3   OH278228   1.961   0.785   1.276 -0.3768 -0.1518 -0.1645
18938TIP3    H178229   1.883   0.730   1.279 -0.0559 -0.6528 -0.8855
18938TIP3    H278230   1.983   0.791   1.183 -1.0010  2.0530 -0.2323
18939TIP3   OH278231   1.998   1.751   1.954  0.1144  0.7513 -0.2787
18939TIP3    H178232   1.970   1.787   2.038 -0.8580  1.2151 -0.7856
18939TIP3    H278233   2.072   1.805   1.928  0.7221  0.3095  0.4880
18940TIP3   OH278234   2.016   3.799   2.493  0.7987  0.3056  0.3464
18940TIP3    H178235   2.063   3.770   2.572  0.8148  0.0690  0.2515
18940TIP3    H278236   1.996   3.891   2.510 -1.3231 -0.3362  1.6824
18941TIP3   OH278237   3.635   2.888   1.268 -0.1353 -0.3797 -0.2720
18941TIP3    H178238   3.690   2.810   1.259  1.9176  0.9860 -0.3732
18941TIP3    H278239   3.697   2.962   1.261 -1.9389  1.2573  0.1169
18942TIP3   OH278240   3.440   0.683  14.091 -0.3754  0.5542 -0.5391
18942TIP3    H178241   3.418   0.776  14.100  1.6527  1.0898 -0.8053
18942TIP3    H278242   3.458   0.654  14.180 -0.0446  0.6651 -0.5704
18943TIP3   OH278243   5.972   0.806   5.141 -0.3269  0.0191 -0.0050
18943TIP3    H178244   6.046   0.826   5.199 -0.5246 -0.5725  0.4573
18943TIP3    H278245   5.906   0.872   5.164 -0.2168  0.0964  0.0922
18944TIP3   OH278246   4.212   2.659   1.522  0.0860 -0.0192  0.2613
18944TIP3    H178247   4.286   2.601   1.534  0.3347  0.6737  2.8073
18944TIP3    H278248   4.138   2.614   1.564  0.1196  1.0992  1.6151
18945TIP3   OH278249   2.185   5.993   4.114 -0.4100 -0.3809  0.0571
18945TIP3    H178250   2.181   6.077   4.160 -0.8705 -0.8193  0.8519
18945TIP3    H278251   2.254   6.004   4.049  0.9050 -0.0150  1.4476
18946TIP3   OH278252   6.317   2.576   1.554 -0.9627  0.0808  0.7062
18946TIP3    H178253   6.288   2.645   1.613 -0.2414  1.4887 -0.5184
18946TIP3    H278254   6.252   2.575   1.483 -0.5456  0.0480  0.3197
18947TIP3   OH278255   1.892   3.165  12.263 -0.1648 -0.3916  0.6742
18947TIP3    H178256   1.974   3.201  12.228 -1.5539 -0.2924 -2.9486
18947TIP3    H278257   1.840   3.242  12.288  0.2915 -0.3989  1.7002
18948TIP3   OH278258   4.085   0.874   0.857  0.5595  0.3776 -0.0783
18948TIP3    H178259   4.101   0.968   0.850  0.1332  0.5171  0.6337
18948TIP3    H278260   3.990   0.865   0.845  0.7674 -0.1182 -1.4945
18949TIP3   OH278261   5.094   0.756  13.284  0.8811 -0.3031  0.2475
18949TIP3    H178262   5.082   0.720  13.196 -0.4947  0.7962 -0.0310
18949TIP3    H278263   5.169   0.707  13.318  0.6678 -1.6362 -1.0541
18950TIP3   OH278264   6.038   6.514  17.133 -0.2957  0.3745 -0.0190
18950TIP3    H178265   6.096   6.457  17.082 -0.5568  0.4015 -0.3471
18950TIP3    H278266   5.950   6.483  17.113 -0.4701  1.1786 -0.5475
18951TIP3   OH278267   2.759   6.194  11.593  0.0405 -0.3020  0.2521
18951TIP3    H178268   2.704   6.243  11.655  0.0373  1.7851 -1.2930
18951TIP3    H278269   2.848   6.215  11.619  0.0401  0.8452 -0.5782
18952TIP3   OH278270   2.280   3.291  11.918  0.2474 -0.4535  0.1582
18952TIP3    H178271   2.242   3.221  11.972 -0.1299  0.7061  1.4809
18952TIP3    H278272   2.215   3.306  11.849 -0.9056  0.2758  1.3458
18953TIP3   OH278273   2.143   0.419   3.074 -0.2124 -0.2379  0.1455
18953TIP3    H178274   2.143   0.330   3.039  0.8135 -0.8113  1.5108
18953TIP3    H278275   2.221   0.423   3.130  0.0131  1.6677 -0.2170
18954TIP3   OH278276   5.558   3.906   3.379  0.2974 -0.3679 -0.4436
18954TIP3    H178277   5.566   3.990   3.424  0.3009  0.0984 -1.2839
18954TIP3    H278278   5.478   3.868   3.414  0.3051 -0.0201 -0.0383
18955TIP3   OH278279   3.346   5.471  16.956 -0.2921  0.5971  0.1053
18955TIP3    H178280   3.292   5.476  17.035 -0.6006  0.1038 -0.0691
18955TIP3    H278281   3.404   5.397  16.971 -0.0568  0.7707  0.0516
18956TIP3   OH278282   3.024   4.123   4.820 -0.1989 -0.2999  0.2196
18956TIP3    H178283   2.989   4.082   4.900  0.4391 -1.3272 -0.0010
18956TIP3    H278284   3.115   4.091   4.815  0.2336  0.9449 -0.1247
18957TIP3   OH278285   1.948   0.242   3.840 -0.2316 -0.8298 -0.0530
18957TIP3    H178286   2.027   0.287   3.870 -0.8428 -0.3307  0.8579
18957TIP3    H278287   1.876   0.299   3.868 -0.8587  0.0082 -3.0374
18958TIP3   OH278288   2.508   2.876  15.324 -0.1053 -0.0267  0.5965
18958TIP3    H178289   2.503   2.783  15.302 -3.0437 -0.1826  1.4412
18958TIP3    H278290   2.564   2.914  15.256  0.2390 -2.2123 -0.4392
18959TIP3   OH278291   0.234   5.017   3.544 -0.5614  0.1839 -0.7138
18959TIP3    H178292   0.235   4.956   3.471  4.2358 -0.7484 -0.1963
18959TIP3    H278293   0.259   5.101   3.505 -1.0582  0.4083 -0.5560
18960TIP3   OH278294   0.950   1.488   3.411  0.3862 -0.1422  0.2581
18960TIP3    H178295   0.941   1.395   3.393  1.2202 -0.2321  0.2809
18960TIP3    H278296   1.043   1.507   3.397  0.4531  0.4400  1.3540
18961TIP3   OH278297   2.238   5.935  11.099 -0.3537 -0.2828 -0.2843
18961TIP3    H178298   2.247   6.000  11.168 -0.2106  0.1573 -0.7138
18961TIP3    H278299   2.143   5.927  11.085 -0.4195 -0.9151  0.4660
18962TIP3   OH278300   2.493   1.729   2.855 -0.1293 -0.3298 -0.1041
18962TIP3    H178301   2.445   1.709   2.936 -0.5479 -1.6886 -0.6751
18962TIP3    H278302   2.585   1.723   2.880 -0.2272  0.6463  0.5911
18963TIP3   OH278303   3.301   5.753  11.438  0.4175  0.2230  0.8557
18963TIP3    H178304   3.385   5.763  11.393 -0.0254  1.3405  0.2172
18963TIP3    H278305   3.241   5.808  11.387 -0.6616 -0.4297  1.3977
18964TIP3   OH278306   3.218   5.935  15.942  0.0817  0.0130  0.0140
18964TIP3    H178307   3.286   5.955  16.007  0.9804 -1.7635 -0.3168
18964TIP3    H278308   3.198   5.842  15.956 -0.2703 -0.2057 -1.7441
18965TIP3   OH278309   2.172   1.836  14.003  0.6473  0.0075  0.6311
18965TIP3    H178310   2.215   1.760  14.042  0.6072  0.5717  1.8125
18965TIP3    H278311   2.110   1.865  14.070 -0.9104 -0.2154 -0.6657
18966TIP3   OH278312   1.273   2.064   2.731  1.0842 -0.0760  0.3438
18966TIP3    H178313   1.299   2.029   2.816 -0.6499 -2.3497  0.0235
18966TIP3    H278314   1.249   1.987   2.679 -0.3470  1.4223 -1.3530
18967TIP3   OH278315   1.332   6.498   0.797 -0.0596  0.2938  0.2467
18967TIP3    H178316   1.319   6.403   0.790  0.5563  0.2444 -0.3821
18967TIP3    H278317   1.427   6.509   0.788 -0.0614  0.9200  0.9418
18968TIP3   OH278318   3.185   0.398  13.958 -0.2045 -0.3889 -0.3507
18968TIP3    H178319   3.127   0.392  13.882  0.0421  2.0277 -0.7843
18968TIP3    H278320   3.273   0.403  13.922 -0.0611  0.4579  0.0910
18969TIP3   OH278321   4.269   4.380  13.217  0.1548 -0.2648  0.1729
18969TIP3    H178322   4.266   4.468  13.180  1.0096 -1.2078 -2.3801
18969TIP3    H278323   4.360   4.369  13.245 -0.5545  0.5555  3.0823
18970TIP3   OH278324   5.202   6.690  16.650 -0.1445  0.4219 -0.5729
18970TIP3    H178325   5.162   6.774  16.671 -0.5547 -0.0913  0.8296
18970TIP3    H278326   5.183   6.676  16.557 -1.9782  0.8557 -0.2938
18971TIP3   OH278327   0.061   5.756   3.948 -0.3614 -0.1410  0.0753
18971TIP3    H178328   0.130   5.822   3.950  0.4965 -0.7173 -3.3667
18971TIP3    H278329  -0.017   5.801   3.982  0.8733  1.6119  0.7408
18972TIP3   OH278330   5.384   4.171  17.200  0.4792  0.9570 -0.2246
18972TIP3    H178331   5.450   4.238  17.184  2.9443 -1.5643 -1.6829
18972TIP3    H278332   5.408   4.132  17.284  2.8933 -1.8216 -1.9751
18973TIP3   OH278333   1.785   4.091  10.468  0.0614 -0.6085  0.4920
18973TIP3    H178334   1.815   4.007  10.503  1.5447  0.1271  1.0972
18973TIP3    H278335   1.821   4.157  10.528  1.2321  0.5921 -1.4129
18974TIP3   OH278336   4.474   0.017   4.223  0.3470  0.2043 -0.2583
18974TIP3    H178337   4.425  -0.065   4.223  0.2953  0.2144  1.2788
18974TIP3    H278338   4.414   0.081   4.183 -0.2163 -0.1628 -0.0045
18975TIP3   OH278339   6.003   6.267   0.023  0.3828 -0.6807 -1.1149
18975TIP3    H178340   5.977   6.188   0.070  0.6966  0.2933  0.7888
18975TIP3    H278341   6.065   6.237  -0.043 -0.3381 -2.1415 -1.1684
18976TIP3   OH278342   5.681   2.156  14.948 -0.0590  0.2806 -0.2639
18976TIP3    H178343   5.669   2.250  14.953  2.1050  0.5335  1.9096
18976TIP3    H278344   5.735   2.143  14.870 -1.6786  0.6051 -1.4932
18977TIP3   OH278345   6.445   4.963  12.956 -0.3506 -0.3465 -0.3797
18977TIP3    H178346   6.383   4.891  12.963  0.6424 -1.1508  0.5374
18977TIP3    H278347   6.527   4.922  12.929 -0.1765  0.6801 -1.5162
18978TIP3   OH278348   3.881   0.911   0.556  0.0533 -0.3515  0.2738
18978TIP3    H178349   3.870   0.952   0.471 -2.5950  1.2855  1.2933
18978TIP3    H278350   3.947   0.964   0.601  0.9183 -0.7916 -0.4373
18979TIP3   OH278351   4.889   5.986  11.540 -0.0124  0.6284  0.2866
18979TIP3    H178352   4.933   5.964  11.622 -0.9353  1.4421  1.0209
18979TIP3    H278353   4.959   5.992  11.476  0.8001  0.6035  1.1516
18980TIP3   OH278354   2.524   4.636   1.688  0.0069 -0.4022  0.7346
18980TIP3    H178355   2.588   4.576   1.649 -0.3190 -0.4974  0.3414
18980TIP3    H278356   2.482   4.678   1.613  1.5586  1.7892  0.9796
18981TIP3   OH278357   5.151   5.523  15.518 -0.3163  0.2351  0.1882
18981TIP3    H178358   5.218   5.475  15.469  0.1904  1.2421 -0.1300
18981TIP3    H278359   5.191   5.608  15.537 -1.3389  0.6879  0.3880
18982TIP3   OH278360   3.613   4.226   6.791  0.2842 -0.2398 -0.5621
18982TIP3    H178361   3.671   4.180   6.730  2.2711 -0.1162  1.1132
18982TIP3    H278362   3.553   4.275   6.734 -0.5324 -3.1186 -2.3812
18983TIP3   OH278363   3.623   4.804   2.785  0.4775  0.0664  0.3472
18983TIP3    H178364   3.583   4.753   2.856 -0.0677  0.3857  0.2723
18983TIP3    H278365   3.653   4.884   2.828  2.2632 -0.7374  0.6686
18984TIP3   OH278366   0.295   4.885   4.620 -0.6403 -0.1222  0.0365
18984TIP3    H178367   0.369   4.901   4.562 -1.1816  1.0778 -0.3622
18984TIP3    H278368   0.221   4.871   4.561 -1.1043  0.6407  0.4169
18985TIP3   OH278369   2.104   4.436   2.458  0.5860  0.4108 -0.1995
18985TIP3    H178370   2.186   4.392   2.481  0.1057  0.8233  2.5992
18985TIP3    H278371   2.036   4.378   2.491 -0.1280  1.8497  0.9407
18986TIP3   OH278372   0.116   6.088   6.947 -0.0597 -0.6350 -0.0759
18986TIP3    H178373   0.189   6.148   6.939  1.0844 -1.4741  2.8256
18986TIP3    H278374   0.038   6.144   6.952  0.7307  0.4564  0.2329
18987TIP3   OH278375   0.063   0.601  14.583  0.7008 -0.6594  0.6563
18987TIP3    H178376   0.151   0.637  14.587  0.8283 -0.9697  0.6157
18987TIP3    H278377   0.006   0.675  14.607  1.0561 -0.8139  2.0922
18988TIP3   OH278378   2.620   5.563  15.162 -0.0883  0.3596 -0.5377
18988TIP3    H178379   2.576   5.615  15.230 -2.4562 -1.7109 -0.3399
18988TIP3    H278380   2.627   5.622  15.088 -2.6009  1.0773 -0.2977
18989TIP3   OH278381   3.164   4.899  12.816  0.6632 -0.4383 -0.2099
18989TIP3    H178382   3.164   4.823  12.757 -2.1193  0.3654 -1.4646
18989TIP3    H278383   3.203   4.970  12.764  0.5188 -0.3197 -0.1583
18990TIP3   OH278384   0.786   0.045   2.043  0.3707 -0.0067  0.1489
18990TIP3    H178385   0.834   0.074   2.121 -0.3251 -1.8784  1.3404
18990TIP3    H278386   0.854   0.012   1.984  0.7673 -0.2096  0.7113
18991TIP3   OH278387   4.927   3.982  16.379  0.2220 -0.8056  0.7743
18991TIP3    H178388   4.872   4.035  16.437 -0.8546  1.5444 -2.1056
18991TIP3    H278389   5.003   4.038  16.363  1.4454 -2.2442  1.3745
18992TIP3   OH278390   3.224   3.426  13.987  0.3390  0.2764 -0.1354
18992TIP3    H178391   3.311   3.407  14.020  1.4245 -0.1081 -2.9309
18992TIP3    H278392   3.220   3.381  13.903 -2.2386  1.0239 -0.5001
18993TIP3   OH278393   4.923   0.946  13.419  0.1291 -0.4343 -0.2276
18993TIP3    H178394   4.965   0.871  13.377 -1.0962 -0.3512 -1.6784
18993TIP3    H278395   4.899   1.004  13.347  2.0155  1.9335  0.9202
18994TIP3   OH278396   2.107   4.557   2.210  0.2412  0.1157  0.2268
18994TIP3    H178397   2.116   4.488   2.144  1.5347  1.9736 -1.6612
18994TIP3    H278398   2.117   4.511   2.294  1.3951 -1.9294 -0.9409
18995TIP3   OH278399   6.149   4.705  12.479  0.4915  0.4122 -0.1476
18995TIP3    H178400   6.165   4.799  12.473  3.8056 -0.0981 -4.2620
18995TIP3    H278401   6.063   4.692  12.440  0.8869  1.6740 -1.5450
18996TIP3   OH278402   5.027   3.261  14.002 -0.1876  0.5751 -0.0945
18996TIP3    H178403   5.051   3.168  14.008  0.3305  0.7691  1.2737
18996TIP3    H278404   5.105   3.304  13.967 -0.8439  0.3534 -1.8892
18997TIP3   OH278405   2.561   4.655  14.657  0.1023 -0.0666  0.3860
18997TIP3    H178406   2.617   4.698  14.592  1.9013 -1.6628  0.7798
18997TIP3    H278407   2.473   4.664  14.622  0.7985  0.7924 -1.3004
18998TIP3   OH278408   3.591   1.665  16.594  0.3172  0.1209  0.3776
18998TIP3    H178409   3.615   1.726  16.664 -0.4110  0.0794  0.6610
18998TIP3    H278410   3.502   1.690  16.570  0.6760  0.3502 -0.7650
18999TIP3   OH278411   6.130   5.789  12.674 -0.1870  0.4162  0.5579
18999TIP3    H178412   6.064   5.826  12.614 -0.4930  0.9394  1.2011
18999TIP3    H278413   6.139   5.855  12.742  2.6209  1.3737 -0.6060
19000TIP3   OH278414   5.859   2.669  14.388  0.3268 -0.2252 -0.0272
19000TIP3    H178415   5.777   2.625  14.408  0.7375 -1.2517 -0.5302
19000TIP3    H278416   5.926   2.613  14.427  0.7630  0.9570  0.9893
19001TIP3   OH278417   3.355   0.174  12.423  0.3604 -0.0029  0.0783
19001TIP3    H178418   3.266   0.176  12.386 -0.0306  2.2159  0.9287
19001TIP3    H278419   3.395   0.255  12.392  1.3039  0.1005  1.4728
19002TIP3   OH278420   0.307   4.738  10.775  0.4517 -0.5934 -0.0068
19002TIP3    H178421   0.334   4.651  10.806  0.4892 -0.3627  0.6309
19002TIP3    H278422   0.297   4.728  10.681  1.4408 -1.0415 -0.0815
19003TIP3   OH278423   5.686   6.216  12.657 -0.0656 -0.1901 -0.3201
19003TIP3    H178424   5.612   6.196  12.715  0.4785  1.7258  1.1522
19003TIP3    H278425   5.672   6.307  12.631 -0.0213 -0.8542 -2.8880
19004TIP3   OH278426   1.140   5.825  16.165 -0.2388  0.4048 -0.7083
19004TIP3    H178427   1.167   5.764  16.096 -0.3319  0.6965 -1.0098
19004TIP3    H278428   1.217   5.836  16.220 -0.2158  0.0321 -0.6673
19005TIP3   OH278429   1.364   5.043   0.121 -0.7918  0.2859 -0.0549
19005TIP3    H178430   1.414   5.008   0.047  0.0406 -0.7637  0.9614
19005TIP3    H278431   1.365   5.138   0.108  0.8760  0.2465 -0.4464
19006TIP3   OH278432   3.961   0.138   4.805  0.0313 -0.4411  0.1067
19006TIP3    H178433   3.991   0.097   4.887 -0.0366  0.4981  0.6123
19006TIP3    H278434   3.886   0.084   4.778  1.5510 -2.2520 -0.6787
19007TIP3   OH278435   2.147   4.424  14.919  0.7498  0.6789 -0.0417
19007TIP3    H178436   2.215   4.399  14.856  2.8522  2.7116  1.2704
19007TIP3    H278437   2.186   4.405  15.004  0.1078  2.7646  0.7717
19008TIP3   OH278438   5.846   2.120  10.650 -0.8161 -0.8822  0.2297
19008TIP3    H178439   5.868   2.079  10.567  0.1255  2.0893 -1.1340
19008TIP3    H278440   5.908   2.082  10.713  0.3649 -1.1441 -1.0537
19009TIP3   OH278441   5.977   6.086   4.277 -0.1986  0.2405  0.2014
19009TIP3    H178442   5.917   6.152   4.241  1.1170  0.7631 -1.1146
19009TIP3    H278443   5.922   6.035   4.337 -1.9364  0.7585 -0.8564
19010TIP3   OH278444   6.463   3.796   5.072  0.2037  0.4848  0.8097
19010TIP3    H178445   6.414   3.856   5.127  0.1968  1.3645 -0.1344
19010TIP3    H278446   6.553   3.803   5.104 -0.1544 -0.7871  2.2358
19011TIP3   OH278447   1.264   5.575   4.994 -0.3724  0.1092  0.1209
19011TIP3    H178448   1.297   5.659   4.961  0.1116  0.4844  1.4804
19011TIP3    H278449   1.199   5.599   5.059 -0.0916 -0.5560  0.6616
19012TIP3   OH278450   3.627   5.432   0.983 -0.4811  0.6037 -0.2513
19012TIP3    H178451   3.602   5.395   0.898  1.3135  0.2579 -0.6773
19012TIP3    H278452   3.652   5.522   0.963 -0.8213  0.7671  0.0561
19013TIP3   OH278453   5.392   0.658   4.863 -0.5135 -0.5103 -0.3534
19013TIP3    H178454   5.417   0.750   4.853 -2.7207  0.1520 -0.3815
19013TIP3    H278455   5.433   0.630   4.945  1.3429  0.0395 -1.0554
19014TIP3   OH278456   3.069   6.765  11.168 -0.1383 -0.1695  0.4892
19014TIP3    H178457   3.159   6.780  11.198  0.1179 -0.2598 -0.2196
19014TIP3    H278458   3.030   6.852  11.165  0.1121 -0.0669  0.2113
19015TIP3   OH278459   0.845   6.713   3.094  0.1653 -0.7490  0.5248
19015TIP3    H178460   0.854   6.728   2.999 -1.1836  2.7561  0.7938
19015TIP3    H278461   0.935   6.707   3.126  0.6788 -0.5959 -0.8185
19016TIP3   OH278462   0.298   5.423  15.203  0.2701 -0.3436 -0.7496
19016TIP3    H178463   0.352   5.363  15.152  1.6984 -1.2706  1.6662
19016TIP3    H278464   0.361   5.480  15.247 -0.9064  0.6387 -0.2624
19017TIP3   OH278465   3.848   5.916   0.609  0.1923 -0.6446 -0.6670
19017TIP3    H178466   3.935   5.933   0.645  0.9716 -1.8471 -1.8479
19017TIP3    H278467   3.834   5.985   0.544  0.3237 -0.5177 -0.5583
19018TIP3   OH278468   3.536   2.536   4.419  0.4523 -0.0402  0.0804
19018TIP3    H178469   3.590   2.461   4.442  2.3672  0.7767 -1.5171
19018TIP3    H278470   3.553   2.599   4.489  1.9154  0.3379 -0.5721
19019TIP3   OH278471   3.150   6.471   0.953 -0.5410 -0.8319 -0.3964
19019TIP3    H178472   3.239   6.488   0.985 -0.8414 -0.3290  0.2071
19019TIP3    H278473   3.156   6.387   0.909  0.0298 -1.2558  0.4647
19020TIP3   OH278474   0.060   6.452   0.006  0.0607 -0.1569 -0.2036
19020TIP3    H178475   0.128   6.516  -0.015  0.1913 -1.0083 -2.6602
19020TIP3    H278476   0.107   6.375   0.038  0.3540 -0.8686 -2.2196
19021TIP3   OH278477   4.171   1.962   4.828  0.6742  0.1091  0.2395
19021TIP3    H178478   4.134   1.946   4.915 -0.0227 -0.2669 -0.1168
19021TIP3    H278479   4.245   1.902   4.822  0.0708 -0.6511  0.1719
19022TIP3   OH278480   3.528   3.723  15.801  0.3217 -0.1944  0.3113
19022TIP3    H178481   3.449   3.755  15.757  2.0497  2.1383 -1.3464
19022TIP3    H278482   3.543   3.786  15.871  0.3870 -0.9943  1.0263
19023TIP3   OH278483   6.021   2.038   3.259  0.0892  0.6207  0.1913
19023TIP3    H178484   6.000   2.048   3.352 -0.0960 -2.7280  0.6382
19023TIP3    H278485   6.085   1.967   3.256 -2.1638 -1.5494 -2.3552
19024TIP3   OH278486   3.189   1.186   2.789  0.4470 -0.2455 -0.1912
19024TIP3    H178487   3.284   1.174   2.797  0.4087 -0.6652 -0.2985
19024TIP3    H278488   3.153   1.097   2.797 -0.0921  0.0966  1.7816
19025TIP3   OH278489   3.572   0.235   3.061  0.0573 -0.2471  0.4170
19025TIP3    H178490   3.489   0.264   3.099 -0.7670 -2.1368  0.1966
19025TIP3    H278491   3.546   0.182   2.985  1.3319 -2.4696  1.4427
19026TIP3   OH278492   0.933   6.695  15.682  0.1903 -0.5175  0.0508
19026TIP3    H178493   0.991   6.628  15.719 -1.2254 -1.2365  1.0977
19026TIP3    H278494   0.845   6.658  15.693 -0.5100  0.7934 -0.9215
19027TIP3   OH278495   2.900   4.319   3.234  0.4676  0.6133  0.3316
19027TIP3    H178496   2.951   4.377   3.178  0.4647  1.1818  0.8938
19027TIP3    H278497   2.861   4.378   3.299  2.3320 -0.2337  2.3692
19028TIP3   OH278498   2.542   4.682  17.011 -0.5520 -0.0964  0.1167
19028TIP3    H178499   2.583   4.757  17.054  3.1818 -0.6053 -2.1004
19028TIP3    H278500   2.556   4.609  17.070 -0.5718  0.2180  0.5109
19029TIP3   OH278501   0.019   0.892   5.281 -0.0525 -0.3985 -0.1889
19029TIP3    H178502  -0.003   0.984   5.287 -3.9912 -1.2051  0.5612
19029TIP3    H278503   0.114   0.888   5.296  0.3334  3.4684 -0.7165
19030TIP3   OH278504   4.603   1.898  11.590  0.3602  0.0353 -0.2734
19030TIP3    H178505   4.606   1.904  11.495  1.1507  0.3891 -0.2272
19030TIP3    H278506   4.582   1.806  11.608 -0.1365  0.0446 -0.7888
19031TIP3   OH278507   3.194   2.395   4.744 -0.2835  0.5043  0.6977
19031TIP3    H178508   3.143   2.473   4.724  0.3336  0.8750  0.5642
19031TIP3    H278509   3.255   2.386   4.671 -1.2766 -0.9133 -0.0294
19032TIP3   OH278510   2.912   4.820  14.047 -0.1465 -0.2271  0.0539
19032TIP3    H178511   2.850   4.775  14.104  1.6181 -1.3278  1.1972
19032TIP3    H278512   2.985   4.758  14.038 -0.1209  0.0825 -3.0323
19033TIP3   OH278513   5.979   2.514   5.849  0.3198  0.5963  0.1722
19033TIP3    H178514   6.002   2.606   5.857 -1.3521  1.1838 -1.1755
19033TIP3    H278515   5.949   2.488   5.936  1.9523  0.9615  0.8633
19034TIP3   OH278516   3.369   2.830   2.734  0.2211 -0.2563  0.1165
19034TIP3    H178517   3.425   2.813   2.809 -0.4239 -0.9897  0.4500
19034TIP3    H278518   3.366   2.925   2.728 -0.8462 -0.1176  1.9260
19035TIP3   OH278519   0.460   2.911  12.165 -0.4592 -0.1708  0.1628
19035TIP3    H178520   0.542   2.942  12.128 -0.3437  0.9898  1.3348
19035TIP3    H278521   0.438   2.833  12.113  0.3775  0.5977 -1.4207
19036TIP3   OH278522   0.349   1.309  16.920  0.7908 -0.1563 -0.1147
19036TIP3    H178523   0.370   1.349  17.005  0.0802  1.6750 -0.7594
19036TIP3    H278524   0.365   1.215  16.934 -1.5159 -0.3015  2.7860
19037TIP3   OH278525   0.323   2.993  16.405 -0.0006 -0.2660  0.6490
19037TIP3    H178526   0.352   2.918  16.352 -0.8612 -0.6205  0.6627
19037TIP3    H278527   0.270   3.046  16.345  2.5528  1.6625 -0.0732
19038TIP3   OH278528   2.462   5.786  14.779  0.1622  0.4360  0.1165
19038TIP3    H178529   2.378   5.831  14.767  0.1361  0.4871  0.4810
19038TIP3    H278530   2.511   5.807  14.700 -0.0798  0.6042  0.0087
19039TIP3   OH278531   4.986   0.776   3.321 -0.9293  0.0718 -0.5362
19039TIP3    H178532   5.029   0.692   3.337 -1.8601 -0.1265  1.1495
19039TIP3    H278533   4.904   0.753   3.277 -1.0737  0.1116 -0.2906
19040TIP3   OH278534   0.832   3.681  11.288  0.2545 -0.0744 -0.0348
19040TIP3    H178535   0.835   3.605  11.230  0.2371 -0.6208  0.6681
19040TIP3    H278536   0.739   3.688  11.313  0.1800  0.4430 -0.4347
19041TIP3   OH278537   3.839   5.482  16.684  0.2527 -0.4296 -0.1185
19041TIP3    H178538   3.756   5.530  16.686 -0.3691 -1.5273  1.1186
19041TIP3    H278539   3.861   5.467  16.775  1.4436 -0.8235 -0.4523
19042TIP3   OH278540   0.730   1.528  16.751 -0.2419 -0.3487  0.6977
19042TIP3    H178541   0.747   1.619  16.773 -0.1630 -0.3760  0.7490
19042TIP3    H278542   0.783   1.478  16.813 -1.6768 -0.4575  1.9222
19043TIP3   OH278543   4.522   4.399   1.110  0.4331  0.0490  0.5147
19043TIP3    H178544   4.586   4.356   1.053  0.8865 -0.5399  1.4629
19043TIP3    H278545   4.550   4.491   1.111 -0.7680  0.5391 -1.8238
19044TIP3   OH278546   4.499   1.347  13.283  0.3780 -0.2416 -0.2653
19044TIP3    H178547   4.517   1.439  13.263 -0.0407 -0.4805 -1.8915
19044TIP3    H278548   4.548   1.330  13.363 -1.1746  1.9548  1.2921
19045TIP3   OH278549   5.530   1.187   4.467  0.0984 -0.1379  0.5969
19045TIP3    H178550   5.513   1.167   4.375  1.2827 -0.7098  0.4768
19045TIP3    H278551   5.448   1.222   4.500 -1.0403 -2.0550 -0.0794
19046TIP3   OH278552   1.750   5.234  11.476 -0.3393  0.1960 -0.2760
19046TIP3    H178553   1.766   5.317  11.522  0.3337  0.5970 -1.2101
19046TIP3    H278554   1.660   5.242  11.444 -1.0543 -0.3476  1.4443
19047TIP3   OH278555   4.755   3.597   1.449 -0.0728  0.1959  0.0661
19047TIP3    H178556   4.762   3.502   1.454  2.0758  0.3244  0.3661
19047TIP3    H278557   4.718   3.613   1.362 -0.4832 -0.9010  0.0168
19048TIP3   OH278558   6.725   1.114  11.592  0.2635 -0.1089 -0.2410
19048TIP3    H178559   6.750   1.204  11.613  0.1448  0.7516 -3.2985
19048TIP3    H278560   6.720   1.113  11.496  0.2561 -3.3948 -0.2885
19049TIP3   OH278561   5.703   4.484   4.891 -0.8222  0.0012  0.1423
19049TIP3    H178562   5.689   4.399   4.933 -3.1228  0.0870 -0.3408
19049TIP3    H278563   5.688   4.467   4.798 -0.2709  0.7448 -0.0860
19050TIP3   OH278564   3.424   1.055  15.482  0.6765  0.0086 -0.4470
19050TIP3    H178565   3.510   1.022  15.507  0.9358  0.8935 -0.1550
19050TIP3    H278566   3.381   0.980  15.441  2.2450 -0.0051 -2.2538
19051TIP3   OH278567   1.622   0.590   4.453  0.4538 -0.0333 -0.7529
19051TIP3    H178568   1.670   0.673   4.443  0.1175  0.5962  1.9900
19051TIP3    H278569   1.550   0.611   4.513  0.2739 -2.2926 -0.0809
19052TIP3   OH278570   1.957   5.066  16.549  0.1082  0.1102 -0.0764
19052TIP3    H178571   1.885   5.007  16.572 -1.0220  1.4123 -0.0978
19052TIP3    H278572   2.035   5.012  16.554 -0.8655 -1.3551 -0.0095
19053TIP3   OH278573   0.000   2.225  14.928 -0.1205  0.3412 -0.2985
19053TIP3    H178574   0.072   2.285  14.948  0.0416  0.6351 -1.6825
19053TIP3    H278575  -0.066   2.279  14.885 -0.1470 -0.3770 -1.1873
19054TIP3   OH278576   2.483   5.213   4.494 -0.2083 -0.3161  0.0965
19054TIP3    H178577   2.421   5.144   4.471 -0.0554 -1.7814  3.4535
19054TIP3    H278578   2.447   5.251   4.574  2.6872 -0.5980  1.6473
19055TIP3   OH278579   2.136   6.322  14.553  0.2531  0.1968 -0.2751
19055TIP3    H178580   2.067   6.347  14.615  0.6820 -0.6565  0.5792
19055TIP3    H278581   2.131   6.226  14.550  0.9892  0.1642 -0.6900
19056TIP3   OH278582   4.208   0.384  12.974  0.1143 -0.2017 -0.1500
19056TIP3    H178583   4.115   0.386  12.996  0.4491 -1.3773  1.5744
19056TIP3    H278584   4.210   0.385  12.878 -1.6557 -0.1425 -0.2174
19057TIP3   OH278585   1.595   6.279  10.687  0.4971 -0.1136 -0.0164
19057TIP3    H178586   1.580   6.211  10.753  0.7803  0.4227  0.6177
19057TIP3    H278587   1.517   6.334  10.692  0.2603 -0.3980 -0.5406
19058TIP3   OH278588   0.525   2.620  14.530 -0.0238 -0.4917 -0.1433
19058TIP3    H178589   0.602   2.564  14.533 -0.2491 -0.8042 -0.0926
19058TIP3    H278590   0.540   2.679  14.456  0.1315 -0.7455 -0.3164
19059TIP3   OH278591   0.969   0.331  15.078  0.4377 -0.7406 -0.3404
19059TIP3    H178592   0.887   0.363  15.040  0.4611 -1.1852 -0.7778
19059TIP3    H278593   0.980   0.243  15.041  0.9415 -0.8136 -0.0261
19060TIP3   OH278594   4.338   2.918   2.188  0.3953 -0.1011  0.4699
19060TIP3    H178595   4.414   2.961   2.226  0.9795  0.1024 -0.8895
19060TIP3    H278596   4.352   2.825   2.205  1.5014 -0.1742 -0.6624
19061TIP3   OH278597   0.570   4.194   4.236 -0.2996 -0.3919  0.2155
19061TIP3    H178598   0.629   4.165   4.306 -1.3245 -0.6020  1.0215
19061TIP3    H278599   0.627   4.212   4.162  0.8175 -0.1847  1.1037
19062TIP3   OH278600   3.880   6.616  17.192 -0.5384 -0.2116  0.6698
19062TIP3    H178601   3.891   6.561  17.269 -2.3594  1.9034  2.5681
19062TIP3    H278602   3.821   6.566  17.135 -1.3544 -0.6551  1.8812
19063TIP3   OH278603   6.671   3.865  14.842 -0.8194  0.1973  0.2131
19063TIP3    H178604   6.666   3.780  14.798  0.2075  0.3975 -0.3403
19063TIP3    H278605   6.689   3.844  14.934  2.5638 -0.2192 -0.4183
19064TIP3   OH278606   3.207   6.317  16.942  0.6774 -0.0573 -0.0639
19064TIP3    H178607   3.293   6.291  16.976  0.6967  0.7112  0.4963
19064TIP3    H278608   3.159   6.234  16.933  1.4471 -0.4860 -0.3199
19065TIP3   OH278609   5.801   1.710  10.581  0.4796  0.2294 -0.1650
19065TIP3    H178610   5.821   1.776  10.515  1.4567 -0.5443 -0.6777
19065TIP3    H278611   5.724   1.744  10.628  0.5138  1.3534 -0.9020
19066TIP3   OH278612   2.908   6.312   5.016 -0.1122 -0.0618 -0.3497
19066TIP3    H178613   2.923   6.265   4.934  2.2832 -2.7692  1.4354
19066TIP3    H278614   2.815   6.297   5.036 -0.8836  1.0860 -2.6929
19067TIP3   OH278615   4.587   4.281   4.710  0.2894  0.2364 -0.5466
19067TIP3    H178616   4.496   4.305   4.693 -0.1305 -0.9232 -0.0564
19067TIP3    H278617   4.593   4.190   4.678  1.0785  0.0702  0.0594
19068TIP3   OH278618   5.596   1.189  16.731 -0.3047 -0.2845 -0.3606
19068TIP3    H178619   5.645   1.174  16.812 -1.8502  3.7610  1.5814
19068TIP3    H278620   5.505   1.177  16.755 -0.9476  2.9008 -0.8097
19069TIP3   OH278621   0.160   4.796  17.087  0.5280 -0.0239  0.1695
19069TIP3    H178622   0.199   4.855  17.153  0.3154  0.6446 -0.2959
19069TIP3    H278623   0.180   4.837  17.003  0.5966 -0.7556 -0.1799
19070TIP3   OH278624   5.724   6.029  14.774 -0.0778  0.5332 -0.3131
19070TIP3    H178625   5.761   6.037  14.686  2.4675 -0.1272  0.6047
19070TIP3    H278626   5.796   6.053  14.832 -0.0165 -3.6648  1.7058
19071TIP3   OH278627   3.133   1.240   1.489 -0.0202 -0.1104 -0.4115
19071TIP3    H178628   3.180   1.179   1.432  0.5725 -0.5539  0.5334
19071TIP3    H278629   3.073   1.185   1.539 -1.1095  0.3723 -1.1431
19072TIP3   OH278630   1.966   3.742   5.858 -0.0236 -0.4494 -0.0870
19072TIP3    H178631   1.944   3.659   5.902 -2.3282  0.8232  1.3703
19072TIP3    H278632   2.018   3.790   5.922 -1.0194  0.2882  0.1972
19073TIP3   OH278633   6.482   5.728  16.177  0.1894 -0.3394 -0.2940
19073TIP3    H178634   6.504   5.765  16.091  2.2053  0.0239  0.3143
19073TIP3    H278635   6.522   5.641  16.176 -0.7121 -0.7611 -0.1010
19074TIP3   OH278636   5.732   1.078  13.106  0.5829  0.1923  0.4914
19074TIP3    H178637   5.820   1.108  13.083 -0.0161  0.8693 -1.0851
19074TIP3    H278638   5.702   1.032  13.028 -1.2595  1.8587  0.1561
19075TIP3   OH278639   0.905   1.076  12.147 -0.1849 -0.3094  0.0990
19075TIP3    H178640   0.821   1.030  12.140 -0.0672 -0.4541 -0.3873
19075TIP3    H278641   0.958   1.040  12.076  0.0483  0.2831 -0.0329
19076TIP3   OH278642   3.085   3.916   5.050  0.3232  0.1926  0.2390
19076TIP3    H178643   2.995   3.948   5.059  0.5131  0.8885 -0.2855
19076TIP3    H278644   3.078   3.845   4.986  0.1336  0.1885  0.2621
19077TIP3   OH278645   1.965   4.870  15.628 -0.1149 -0.3542 -0.1955
19077TIP3    H178646   1.993   4.830  15.545  1.7114 -0.4158  0.3995
19077TIP3    H278647   1.947   4.962  15.606 -0.1476 -0.4921 -0.7514
19078TIP3   OH278648   4.526   1.376  13.604  0.7329  0.1551  0.4903
19078TIP3    H178649   4.614   1.345  13.583  0.4584  0.0286 -0.4790
19078TIP3    H278650   4.517   1.458  13.556  0.6340  0.6367  1.2971
19079TIP3   OH278651   4.480   2.470   0.887 -0.2910 -0.1044  0.0579
19079TIP3    H178652   4.448   2.554   0.920 -2.2340 -0.5029 -0.7190
19079TIP3    H278653   4.445   2.406   0.948 -0.6425 -0.5266 -0.5823
19080TIP3   OH278654   6.731   2.130   4.173  0.0842  0.2580  0.6295
19080TIP3    H178655   6.711   2.087   4.257 -1.8065 -0.3773 -0.0864
19080TIP3    H278656   6.827   2.128   4.168  0.1780 -2.6534  1.3161
19081TIP3   OH278657   2.270   5.339  17.089 -1.1572  0.1014 -0.5270
19081TIP3    H178658   2.228   5.286  17.156  0.0847  1.6175  1.5562
19081TIP3    H278659   2.198   5.367  17.032 -2.6846  0.7577  1.5838
19082TIP3   OH278660   6.489   4.167   1.438  0.3608 -0.6513  0.1679
19082TIP3    H178661   6.533   4.201   1.360 -1.1188 -0.9261 -0.8210
19082TIP3    H278662   6.473   4.075   1.418 -1.7786 -0.2881 -0.0882
19083TIP3   OH278663   2.921   5.289  15.307  0.3914 -0.4093 -0.3971
19083TIP3    H178664   2.982   5.281  15.379  0.8368 -1.2606 -0.8525
19083TIP3    H278665   2.935   5.210  15.254  0.8582  0.6865 -2.0078
19084TIP3   OH278666   0.260   1.844   1.274 -0.3812  0.5421  0.4917
19084TIP3    H178667   0.206   1.844   1.195 -1.3103 -0.4582  1.1040
19084TIP3    H278668   0.341   1.800   1.248 -0.2338  1.1866 -0.1795
19085TIP3   OH278669   2.921   0.711  13.137  0.0990 -0.1138 -0.1144
19085TIP3    H178670   2.853   0.775  13.117  0.8612  0.2403 -1.7322
19085TIP3    H278671   2.986   0.722  13.067  1.7235 -0.5980  1.2514
19086TIP3   OH278672   1.222   6.286  15.668  0.9301  0.2551  0.3243
19086TIP3    H178673   1.311   6.289  15.705  0.5169  0.2931  1.3471
19086TIP3    H278674   1.184   6.206  15.704  0.0905  0.9401  0.9973
19087TIP3   OH278675   0.477   0.522   3.933 -0.3120 -0.0823 -0.7700
19087TIP3    H178676   0.549   0.468   3.899 -0.3916  0.1505 -1.3162
19087TIP3    H278677   0.470   0.498   4.025  0.6446  0.0758 -0.6440
19088TIP3   OH278678   1.041   1.761   1.489  0.3863 -0.0489  0.3820
19088TIP3    H178679   1.044   1.679   1.441  1.3040  0.0612  0.2402
19088TIP3    H278680   1.131   1.794   1.487  0.5817 -0.3050  2.6600
19089TIP3   OH278681   1.645   6.088   6.694  0.5641 -0.2048  0.7496
19089TIP3    H178682   1.683   6.141   6.624  0.1479 -0.4351  0.3490
19089TIP3    H278683   1.718   6.036   6.727  0.6698 -0.4022  0.2067
19090TIP3   OH278684   3.513   1.604   4.134 -0.2828  0.7665  0.2342
19090TIP3    H178685   3.465   1.592   4.216  0.6995 -0.0686  0.7067
19090TIP3    H278686   3.446   1.632   4.071 -1.7316 -1.8821  0.4737
19091TIP3   OH278687   5.669   5.466  11.223  0.1446 -0.1749 -0.4755
19091TIP3    H178688   5.705   5.552  11.200  0.1706 -0.2787 -0.8293
19091TIP3    H278689   5.743   5.418  11.258 -0.4183  0.8934  2.4988
19092TIP3   OH278690   1.340   5.651   0.830 -0.3024 -0.0779 -0.5206
19092TIP3    H178691   1.291   5.714   0.778  0.8860  0.3263 -1.2039
19092TIP3    H278692   1.398   5.705   0.884 -0.5626 -0.5426  0.2323
19093TIP3   OH278693   6.651   4.765  13.993  0.1667  0.3966 -0.9753
19093TIP3    H178694   6.578   4.706  13.974  1.2971 -1.3276 -0.2789
19093TIP3    H278695   6.610   4.849  14.013 -1.8298 -1.0838  1.7786
19094TIP3   OH278696   5.902   1.759  12.540  0.6701 -0.2720  0.3341
19094TIP3    H178697   5.917   1.822  12.611  1.0502 -0.6069  0.5526
19094TIP3    H278698   5.902   1.674  12.583 -1.0609 -0.3631  0.2314
19095TIP3   OH278699   6.488   6.503  17.193 -0.4688 -0.2991 -0.3196
19095TIP3    H178700   6.424   6.482  17.261  1.8197  1.2594  2.5717
19095TIP3    H278701   6.537   6.422  17.179 -1.1231 -0.6981 -0.3002
19096TIP3   OH278702   5.944   2.497   3.511  0.4479 -0.4028  0.0730
19096TIP3    H178703   5.952   2.586   3.479 -0.0663 -0.1650  0.5967
19096TIP3    H278704   5.880   2.502   3.581 -1.0560 -1.5049 -1.1541
19097TIP3   OH278705   5.521   1.859  11.314  0.1504  0.1211  0.0254
19097TIP3    H178706   5.533   1.796  11.243 -1.0535 -1.2032  0.9206
19097TIP3    H278707   5.441   1.906  11.291 -0.6494 -0.8128  0.8180
19098TIP3   OH278708   6.746   1.148  12.292  0.1590 -0.1679 -0.0752
19098TIP3    H178709   6.763   1.235  12.328 -1.0372  0.5651 -1.2324
19098TIP3    H278710   6.780   1.151  12.203  2.2481 -1.6741  0.5747
19099TIP3   OH278711   2.421   3.651  13.346 -0.1129 -0.3418 -0.1004
19099TIP3    H178712   2.343   3.671  13.293 -1.3342  0.5314  1.9197
19099TIP3    H278713   2.494   3.663  13.285 -1.5396 -2.4455 -2.4488
19100TIP3   OH278714   3.265   0.547   5.990 -0.0210 -0.1270  0.3424
19100TIP3    H178715   3.271   0.590   6.075  0.8080  1.5625 -0.5226
19100TIP3    H278716   3.308   0.607   5.929 -0.9541 -1.0873 -1.3514
19101TIP3   OH278717   4.026   6.505   3.510 -0.3346 -0.0736  0.4032
19101TIP3    H178718   4.088   6.440   3.544  1.0838 -0.3074 -2.2804
19101TIP3    H278719   4.072   6.589   3.519  0.2944 -0.2005 -1.2352
19102TIP3   OH278720   5.485   1.241  16.463  0.2714 -0.0946  0.1970
19102TIP3    H178721   5.535   1.291  16.398  0.3620 -0.5240 -0.0635
19102TIP3    H278722   5.474   1.302  16.536  2.7807 -0.5509  1.0663
19103TIP3   OH278723   3.753   0.788  16.524  0.3741  0.0838 -0.2030
19103TIP3    H178724   3.706   0.871  16.513 -0.7932 -0.7891 -2.7155
19103TIP3    H278725   3.699   0.738  16.585  1.3065  1.2574  1.6645
19104TIP3   OH278726   4.377   6.396   0.597 -0.0209 -0.1588  0.2566
19104TIP3    H178727   4.369   6.330   0.666  0.4486 -1.7101 -1.1146
19104TIP3    H278728   4.337   6.355   0.520 -1.8540  2.0817 -0.0822
19105TIP3   OH278729   4.722   4.380  11.367  0.0326  0.2629  0.0695
19105TIP3    H178730   4.779   4.353  11.439  0.7273  1.5180  0.0226
19105TIP3    H278731   4.661   4.307  11.355  0.5050 -0.3549  1.3052
19106TIP3   OH278732   4.749   1.522   0.484  0.1558 -0.1876  0.1279
19106TIP3    H178733   4.657   1.505   0.504 -0.6180  1.1266 -2.0053
19106TIP3    H278734   4.783   1.437   0.454 -0.4497 -0.5949  0.5765
19107TIP3   OH278735   0.790   5.906  11.142  0.4024 -0.1070 -0.9123
19107TIP3    H178736   0.713   5.917  11.087 -0.1375 -1.7697 -0.5414
19107TIP3    H278737   0.861   5.949  11.094 -0.4271  0.0903 -1.9864
19108TIP3   OH278738   0.701   0.957   2.653  0.0920 -0.5167  0.4722
19108TIP3    H178739   0.677   0.920   2.738 -0.4342  0.4174  0.7429
19108TIP3    H278740   0.775   0.904   2.624  0.5332 -0.5950  1.6869
19109TIP3   OH278741   5.765   2.382  13.936  0.3666 -0.0283 -0.2864
19109TIP3    H178742   5.701   2.330  13.889 -0.8945  2.4425 -1.4902
19109TIP3    H278743   5.760   2.351  14.026  0.2838 -2.4578 -1.0452
19110TIP3   OH278744   1.835   5.271  10.723  0.1068  0.2846 -0.1179
19110TIP3    H178745   1.794   5.308  10.801  0.5161 -1.7635  1.1592
19110TIP3    H278746   1.789   5.311  10.650 -3.5380 -1.1068  1.1943
19111TIP3   OH278747   0.466   6.451   4.793 -0.1665  0.5546 -0.8251
19111TIP3    H178748   0.556   6.474   4.816 -0.8545  2.6803 -0.0929
19111TIP3    H278749   0.475   6.369   4.744  2.1818  0.8624 -1.0332
19112TIP3   OH278750   5.974   2.454  14.955 -0.5579  0.2090  0.1880
19112TIP3    H178751   6.005   2.397  15.025 -2.4828 -0.0558  0.9122
19112TIP3    H278752   6.050   2.471  14.900  1.0576  0.5605  2.4367
19113TIP3   OH278753   1.165   4.006   5.626 -0.3066 -0.1964 -0.2325
19113TIP3    H178754   1.188   3.920   5.662 -2.0424 -0.3829  0.5547
19113TIP3    H278755   1.218   4.068   5.675 -0.4585 -0.6862  0.5607
19114TIP3   OH278756   6.630   2.035   2.209 -0.2372 -0.2069 -0.2594
19114TIP3    H178757   6.643   2.074   2.122  0.6946 -1.6796 -0.8196
19114TIP3    H278758   6.654   2.104   2.270  0.5557  0.3792 -1.1952
19115TIP3   OH278759   3.023   5.338  10.873  0.6532 -0.0157 -0.3381
19115TIP3    H178760   2.940   5.312  10.914  0.4073  2.1209  0.6395
19115TIP3    H278761   3.060   5.256  10.841 -1.9375 -1.0259 -1.0131
19116TIP3   OH278762   3.770   0.486  14.571 -0.0368 -0.1230 -0.0788
19116TIP3    H178763   3.815   0.411  14.610 -0.8356 -0.2038  0.7163
19116TIP3    H278764   3.678   0.460  14.568 -0.0770  0.0830 -1.5682
19117TIP3   OH278765   2.676   3.770   3.157  0.2429  0.9371  0.2089
19117TIP3    H178766   2.745   3.735   3.100 -0.4172  0.6651 -0.4358
19117TIP3    H278767   2.715   3.769   3.245  0.0949 -1.9715  0.3460
19118TIP3   OH278768   0.487   3.153   1.046 -0.1629 -0.5918 -0.4069
19118TIP3    H178769   0.424   3.086   1.072 -1.1027  1.0804  2.0581
19118TIP3    H278770   0.567   3.130   1.093  0.1294 -1.0145 -1.0950
19119TIP3   OH278771   3.374   5.324   5.473 -0.0828 -0.3573  0.2836
19119TIP3    H178772   3.307   5.264   5.505  1.3056 -1.4721  1.2654
19119TIP3    H278773   3.396   5.378   5.549  0.0241  0.0912 -0.0636
19120TIP3   OH278774   6.765   2.041  12.850 -1.1191 -0.0243  0.3856
19120TIP3    H178775   6.735   1.951  12.840 -0.9970 -0.2420  1.7118
19120TIP3    H278776   6.685   2.093  12.859 -1.1782 -0.0762  0.1526
19121TIP3   OH278777   5.294   5.281  11.489  0.4172 -0.2566  0.5753
19121TIP3    H178778   5.272   5.303  11.580  2.7657  2.1210  0.7071
19121TIP3    H278779   5.376   5.232  11.496  0.1851 -0.7729 -0.2339
19122TIP3   OH278780   2.903   4.065  15.868 -0.0497  0.2298 -0.1387
19122TIP3    H178781   2.901   4.119  15.947 -0.6066  0.1242 -0.0776
19122TIP3    H278782   2.812   4.058  15.840 -0.0010 -0.7093 -0.1250
19123TIP3   OH278783   5.718   6.276   2.186 -0.7481 -0.0273 -0.1978
19123TIP3    H178784   5.730   6.309   2.097  1.0199  0.8766  0.3221
19123TIP3    H278785   5.762   6.191   2.186 -2.6838 -1.1061 -0.7225
19124TIP3   OH278786   3.111   6.084  12.985 -0.0007 -0.2007  0.3130
19124TIP3    H178787   3.095   6.083  12.891  0.9845  0.6229  0.1166
19124TIP3    H278788   3.034   6.127  13.022  0.1912  0.6398 -0.2488
19125TIP3   OH278789   5.523   3.354   0.713 -0.1724  1.0291 -0.6005
19125TIP3    H178790   5.610   3.320   0.737 -0.0529  0.2332 -2.0523
19125TIP3    H278791   5.506   3.318   0.626 -2.5277  0.1367  0.1534
19126TIP3   OH278792   3.944   2.600  15.010 -0.6640  0.4169  0.0751
19126TIP3    H178793   3.873   2.544  14.979  0.2530 -0.5908 -0.2586
19126TIP3    H278794   3.900   2.678  15.045 -1.9136 -0.1327 -0.2349
19127TIP3   OH278795   3.126   4.448   1.920 -0.3420  0.0228 -0.0458
19127TIP3    H178796   3.178   4.393   1.978 -1.1956  0.1173  0.8462
19127TIP3    H278797   3.190   4.498   1.870  0.4191 -0.0135  0.8671
19128TIP3   OH278798   6.354   3.864  16.003  0.1071  0.2364 -0.0309
19128TIP3    H178799   6.447   3.885  16.006  0.4981 -1.4475  1.3791
19128TIP3    H278800   6.312   3.945  15.974  2.0736  0.7150 -1.8269
19129TIP3   OH278801   1.397   2.967  12.473 -0.1851  0.0782 -0.3673
19129TIP3    H178802   1.425   2.880  12.500  2.3271  1.3266  1.4814
19129TIP3    H278803   1.321   2.987  12.528 -0.5179 -0.7701 -0.5134
19130TIP3   OH278804   0.348   0.202  11.493  0.2046  0.1744 -0.9610
19130TIP3    H178805   0.337   0.137  11.424  1.5205 -1.4177  0.2527
19130TIP3    H278806   0.339   0.286  11.448 -2.0138 -0.7829 -2.5014
19131TIP3   OH278807   2.221   0.404  14.053  0.1246 -0.0716  0.6935
19131TIP3    H178808   2.298   0.455  14.078 -1.8308  3.4177  0.3348
19131TIP3    H278809   2.161   0.469  14.015 -1.2479 -3.3209 -3.3341
19132TIP3   OH278810   2.439   1.916  11.772  0.5708 -0.7188 -0.3616
19132TIP3    H178811   2.390   1.900  11.853  1.9594 -2.4587  0.2132
19132TIP3    H278812   2.398   1.858  11.708  0.0046  0.0404 -0.6989
19133TIP3   OH278813   4.106   6.772   2.363  0.4703 -0.4610  0.0497
19133TIP3    H178814   4.082   6.857   2.325  0.4906 -0.3296  0.3277
19133TIP3    H278815   4.031   6.715   2.344 -0.1729 -0.0002  1.0935
19134TIP3   OH278816   0.454   6.079  15.434  0.4774 -0.5869  0.0160
19134TIP3    H178817   0.487   6.031  15.358 -0.1021 -0.1862 -0.4952
19134TIP3    H278818   0.359   6.081  15.423  0.4111 -0.2232  0.5699
19135TIP3   OH278819   0.767   2.792   4.835  0.0982  0.0187  0.5361
19135TIP3    H178820   0.812   2.716   4.797  0.6958  1.1193 -1.0536
19135TIP3    H278821   0.683   2.756   4.865  0.8437 -1.5013  0.9146
19136TIP3   OH278822   5.753   4.682   1.933  0.0349 -0.7573  0.1365
19136TIP3    H178823   5.789   4.760   1.890  0.2263  0.0006  1.6030
19136TIP3    H278824   5.717   4.629   1.862  1.0212  0.0809 -1.0130
19137TIP3   OH278825   4.248   6.458   4.927 -0.1212 -0.2747  0.1754
19137TIP3    H178826   4.334   6.498   4.931  0.4195 -1.1182 -1.8188
19137TIP3    H278827   4.261   6.368   4.957 -0.3224 -0.3745 -0.0288
19138TIP3   OH278828   2.409   4.941  11.332  0.3166  0.5242  0.3875
19138TIP3    H178829   2.455   4.970  11.253 -0.8744 -0.5832 -0.7554
19138TIP3    H278830   2.317   4.962  11.316 -0.1257 -0.8862  0.9058
19139TIP3   OH278831   1.137   0.660   4.136  0.0468 -0.0748  0.4186
19139TIP3    H178832   1.079   0.736   4.132  0.2720  0.1519  1.2248
19139TIP3    H278833   1.097   0.602   4.201  0.0613 -0.4942  0.0599
19140TIP3   OH278834   2.047   3.074   0.475  0.1858  0.5082  0.5501
19140TIP3    H178835   2.044   2.978   0.485 -0.3885  0.1358 -2.3840
19140TIP3    H278836   2.133   3.091   0.437 -0.2165  1.0007 -0.1487
19141TIP3   OH278837   0.368   0.337  15.974  0.1822  0.3379 -0.2544
19141TIP3    H178838   0.278   0.346  15.943  1.0643  0.2604 -3.2260
19141TIP3    H278839   0.362   0.275  16.047 -2.1536  0.3046 -0.3819
19142TIP3   OH278840   3.345   1.934   3.825 -0.0170  0.0496 -0.2188
19142TIP3    H178841   3.409   1.968   3.763  0.4280  1.1236  0.7983
19142TIP3    H278842   3.394   1.922   3.906 -0.9723  0.3074  0.4111
19143TIP3   OH278843   5.397   2.021  15.306  0.5391 -0.0143 -0.3184
19143TIP3    H178844   5.439   1.941  15.275 -0.6213 -0.5223 -0.6583
19143TIP3    H278845   5.399   2.080  15.230  0.5008 -0.1040 -0.3902
19144TIP3   OH278846   6.767   3.545   3.555  0.5708 -0.3581 -0.2174
19144TIP3    H178847   6.704   3.550   3.483  0.3588 -1.3073 -0.1077
19144TIP3    H278848   6.749   3.461   3.597 -0.1531  0.6758  1.7105
19145TIP3   OH278849   2.932   0.822   0.792 -0.2135  0.0031 -0.1538
19145TIP3    H178850   2.885   0.778   0.721 -0.0232  1.2235 -1.0794
19145TIP3    H278851   3.024   0.801   0.777 -0.0457  1.2599 -1.0376
19146TIP3   OH278852   3.609   1.880   2.791  0.1956 -0.2866  0.4223
19146TIP3    H178853   3.569   1.963   2.814  1.4657  0.4420  0.0830
19146TIP3    H278854   3.574   1.860   2.704 -0.7936 -0.5637  0.8761
19147TIP3   OH278855   1.336   1.824  13.882  0.1783  0.1100  0.0049
19147TIP3    H178856   1.312   1.750  13.937  1.8304 -0.5680 -0.1452
19147TIP3    H278857   1.293   1.806  13.798 -0.6328  0.0856  0.4171
19148TIP3   OH278858   2.350   4.283  14.352  0.0304 -0.0402  0.2709
19148TIP3    H178859   2.425   4.235  14.387  1.0635  2.2945  1.4804
19148TIP3    H278860   2.287   4.286  14.424  1.3127  3.0235  1.4116
19149TIP3   OH278861   2.545   0.636   4.393  0.8684  0.3665  0.1819
19149TIP3    H178862   2.570   0.665   4.480 -1.4585 -0.9113  1.3727
19149TIP3    H278863   2.579   0.547   4.386  3.6024  1.3897 -1.4876
19150TIP3   OH278864   4.232   1.932  13.851  0.4920 -0.3445  0.3584
19150TIP3    H178865   4.215   1.852  13.801 -0.0281 -0.8329  1.2818
19150TIP3    H278866   4.298   1.906  13.916  1.4955  0.3933 -0.3241
19151TIP3   OH278867   3.681   3.195   4.030 -0.7739 -0.0475 -0.1725
19151TIP3    H178868   3.665   3.180   4.123  3.4789 -0.7402  0.6687
19151TIP3    H278869   3.625   3.131   3.986 -1.8219 -0.7247  1.9890
19152TIP3   OH278870   6.051   4.876  11.595  0.2512  0.2331 -0.4930
19152TIP3    H178871   6.043   4.788  11.631 -0.1149  0.3696 -0.2395
19152TIP3    H278872   6.003   4.932  11.656 -0.9014  0.3776 -1.4875
19153TIP3   OH278873   0.789   3.215   5.858  0.0159  0.2174 -0.6286
19153TIP3    H178874   0.780   3.141   5.919  0.8327  1.1000  0.6111
19153TIP3    H278875   0.712   3.269   5.874 -1.8866 -1.4555 -3.2313
19154TIP3   OH278876   2.037   1.162   0.090  0.0086 -0.7834 -0.1651
19154TIP3    H178877   2.130   1.173   0.112 -0.1767  0.1125  0.2436
19154TIP3    H278878   1.991   1.204   0.163 -0.6641  0.9366 -1.5178
19155TIP3   OH278879   5.438   4.576   4.453  0.2902 -0.4591  0.2521
19155TIP3    H178880   5.434   4.594   4.547 -2.3444 -0.6733  0.2459
19155TIP3    H278881   5.365   4.625   4.416  1.9268  0.4983 -1.8903
19156TIP3   OH278882   6.174   2.471  16.625 -0.1770 -0.3363  0.3541
19156TIP3    H178883   6.196   2.522  16.546  0.5473  0.7570  1.2246
19156TIP3    H278884   6.084   2.496  16.645 -0.0597  0.0840  0.3746
19157TIP3   OH278885   4.468   3.133   5.401  0.2721  0.6540 -0.2079
19157TIP3    H178886   4.469   3.214   5.351 -1.7465  0.6973 -0.2520
19157TIP3    H278887   4.524   3.073   5.352  0.5436  1.5551 -1.0119
19158TIP3   OH278888   6.036   1.962   2.336 -0.3788 -0.0598 -0.1778
19158TIP3    H178889   6.037   2.011   2.253  1.3118  0.4894  0.1282
19158TIP3    H278890   5.948   1.978   2.372 -1.0948 -0.1900 -1.7754
19159TIP3   OH278891   0.131   4.243  11.722 -0.7675  0.1215  0.4682
19159TIP3    H178892   0.180   4.227  11.802 -0.8903  1.1592  0.7687
19159TIP3    H278893   0.058   4.181  11.726 -0.8244  0.2234  1.2036
19160TIP3   OH278894   1.157   5.286  12.265 -0.2318 -0.2126  0.0060
19160TIP3    H178895   1.204   5.324  12.339 -2.8169  0.1528  1.5733
19160TIP3    H278896   1.136   5.360  12.208 -3.2371  0.5232  1.8907
19161TIP3   OH278897   2.374   5.319   5.644  0.0476  0.9794  0.2571
19161TIP3    H178898   2.380   5.369   5.562 -0.7333  0.5214 -0.0990
19161TIP3    H278899   2.330   5.378   5.705 -1.2380  0.6381 -0.2800
19162TIP3   OH278900   0.599   6.528   5.398 -0.0057 -0.3823 -0.3092
19162TIP3    H178901   0.665   6.574   5.347 -0.2571 -0.7489 -0.9765
19162TIP3    H278902   0.618   6.551   5.489  1.0397 -0.4804 -0.4905
19163TIP3   OH278903   1.453   4.663  16.327  0.3975 -0.2016  0.3105
19163TIP3    H178904   1.429   4.694  16.240  2.7473  2.1599  0.3794
19163TIP3    H278905   1.547   4.678  16.333  0.3672 -0.5481  3.1833
19164TIP3   OH278906   2.458   5.430   0.725 -0.2792 -0.5354  0.6751
19164TIP3    H178907   2.497   5.350   0.691 -1.0273 -0.2100 -1.0488
19164TIP3    H278908   2.384   5.448   0.667 -0.8006  0.8048  1.6887
19165TIP3   OH278909   0.274   1.603   3.623 -0.1391 -0.7524 -0.3518
19165TIP3    H178910   0.271   1.697   3.604 -3.1273 -0.9533 -1.3891
19165TIP3    H278911   0.219   1.592   3.700  0.7821 -1.6033  0.2056
19166TIP3   OH278912   5.220   5.416   0.741 -0.4411 -0.3322  0.0719
19166TIP3    H178913   5.253   5.375   0.821  0.7240 -1.6714 -1.0523
19166TIP3    H278914   5.130   5.383   0.734 -0.7767  0.2863  1.1193
19167TIP3   OH278915   4.465   1.659  15.287  0.8383 -0.4780  0.0040
19167TIP3    H178916   4.410   1.720  15.238  2.6071  1.2250  0.0227
19167TIP3    H278917   4.494   1.596  15.221  0.3229 -0.3460 -0.3644
19168TIP3   OH278918   0.375   0.336  13.100  0.5019 -0.0310 -0.0286
19168TIP3    H178919   0.386   0.269  13.032  1.5348  0.5959 -0.4981
19168TIP3    H278920   0.314   0.399  13.061  1.1153  0.3426 -0.3952
19169TIP3   OH278921   4.825   4.235   0.261 -0.4750  0.1238 -0.1912
19169TIP3    H178922   4.837   4.309   0.201 -2.5219  0.4771 -0.2552
19169TIP3    H278923   4.734   4.242   0.289 -1.0798 -2.9668 -0.9965
19170TIP3   OH278924   5.930   3.648   2.105  0.2050  0.1548 -0.1900
19170TIP3    H178925   5.858   3.644   2.043  0.0349  0.3627 -0.0086
19170TIP3    H278926   5.888   3.643   2.191  0.3977  0.3722 -0.0821
19171TIP3   OH278927   2.043   3.893   0.894 -0.4211  0.3562  0.2538
19171TIP3    H178928   2.032   3.894   0.989 -1.1551 -0.7512  0.1946
19171TIP3    H278929   2.128   3.935   0.879  1.3621 -2.4545  1.6679
19172TIP3   OH278930   3.159   2.072  12.498  0.4254  0.0292  0.4791
19172TIP3    H178931   3.067   2.090  12.481  0.7850  0.8073 -0.8459
19172TIP3    H278932   3.159   1.996  12.556 -1.0679  0.9229  1.7053
19173TIP3   OH278933   6.060   4.887  13.658  0.1007  0.2935  0.4552
19173TIP3    H178934   6.083   4.919  13.570 -1.8850  0.4445 -0.0476
19173TIP3    H278935   5.967   4.907  13.668  0.1632 -0.1912  2.4095
19174TIP3   OH278936   2.101   1.775  15.341 -0.2244  0.8167 -0.1774
19174TIP3    H178937   2.048   1.698  15.322 -0.5364  0.3954  2.0690
19174TIP3    H278938   2.091   1.788  15.435  2.9401  1.2641  0.2122
19175TIP3   OH278939   2.175   4.693   3.046 -0.1405 -0.4751 -0.0362
19175TIP3    H178940   2.242   4.708   3.112 -1.8729  0.2358  1.6588
19175TIP3    H278941   2.220   4.646   2.976  1.4537 -2.9169  2.3956
19176TIP3   OH278942   4.175   1.516   0.924 -0.2064 -0.0353  0.3429
19176TIP3    H178943   4.220   1.520   1.009 -0.2350 -0.7627  0.4026
19176TIP3    H278944   4.137   1.428   0.922  0.0472 -0.1326 -0.5553
19177TIP3   OH278945   4.666   5.931   4.471 -0.0964  0.3895 -0.4188
19177TIP3    H178946   4.652   5.918   4.564 -0.5063  3.0793 -0.0142
19177TIP3    H278947   4.750   5.888   4.453 -0.4852 -0.9993  0.9552
19178TIP3   OH278948   1.680   3.651   0.704  0.1445 -0.2617  0.3598
19178TIP3    H178949   1.722   3.735   0.683 -0.6305  0.1194  0.3115
19178TIP3    H278950   1.610   3.642   0.639  0.4550 -1.1263  0.1344
19179TIP3   OH278951   1.090   6.704   6.379 -0.1718 -0.8070  0.3685
19179TIP3    H178952   1.058   6.743   6.460  0.1423  1.1217 -0.3780
19179TIP3    H278953   1.183   6.690   6.394 -0.6438 -3.3991  1.3920
19180TIP3   OH278954   3.692   3.098  11.952  0.4379 -0.7997 -0.4721
19180TIP3    H178955   3.741   3.165  11.904  1.5102 -0.4332  1.0693
19180TIP3    H278956   3.623   3.148  11.997 -0.0096 -1.0287 -0.8830
19181TIP3   OH278957   3.546   4.906  14.521 -0.5629 -0.0460  0.3716
19181TIP3    H178958   3.513   4.841  14.584 -0.5899 -0.4985 -0.1074
19181TIP3    H278959   3.597   4.967  14.575 -1.2766  0.0456  0.9594
19182TIP3   OH278960   2.636   0.004  12.093 -0.0968 -0.1710  0.0762
19182TIP3    H178961   2.640   0.084  12.040 -1.2283 -0.2006 -0.0679
19182TIP3    H278962   2.724  -0.034  12.084  0.5272  1.1468  0.3189
19183TIP3   OH278963   1.301   3.399   1.400  0.4152 -0.2367 -0.6982
19183TIP3    H178964   1.248   3.372   1.325  0.1714 -2.0355  0.0797
19183TIP3    H278965   1.257   3.361   1.476  0.7103  1.4484  0.3917
19184TIP3   OH278966   0.128   4.672  16.342  0.0651 -0.5421 -0.0362
19184TIP3    H178967   0.038   4.663  16.309 -0.1560 -0.0930  0.4216
19184TIP3    H278968   0.155   4.760  16.315  0.5555 -0.8654 -0.6082
19185TIP3   OH278969   2.675   4.824   2.614  0.1202  0.0820  0.3173
19185TIP3    H178970   2.624   4.825   2.533  0.4634 -0.7127  0.0824
19185TIP3    H278971   2.628   4.764   2.671  0.7028 -0.5368  0.1528
19186TIP3   OH278972   2.066   0.740  11.937  0.0885  0.1810 -0.2781
19186TIP3    H178973   2.059   0.652  11.901  0.6021  0.0099  0.0344
19186TIP3    H278974   2.117   0.729  12.017  1.5980  0.9964 -1.0966
19187TIP3   OH278975   4.143   1.787   2.285  0.0719 -0.4261  0.5375
19187TIP3    H178976   4.079   1.845   2.325 -0.4990  0.1679 -1.1669
19187TIP3    H278977   4.106   1.763   2.200  0.6029 -2.7642  0.8875
19188TIP3   OH278978   5.422   6.007   3.044 -0.4125  0.1347  0.1427
19188TIP3    H178979   5.383   5.970   3.123 -0.5106 -0.0369  0.0122
19188TIP3    H278980   5.433   6.100   3.064 -0.3904  0.0819  0.3778
19189TIP3   OH278981   0.526   2.383   2.389  0.4898 -0.3200 -0.0912
19189TIP3    H178982   0.487   2.355   2.472  0.3788 -0.4572 -0.1887
19189TIP3    H278983   0.543   2.301   2.343 -0.5006 -0.2026 -0.6876
19190TIP3   OH278984   5.767   2.505  16.212  0.2397  0.3904  0.2678
19190TIP3    H178985   5.762   2.506  16.116 -0.5331  2.9270  0.2436
19190TIP3    H278986   5.849   2.461  16.232  0.2516 -0.4912 -1.5288
19191TIP3   OH278987   0.848   4.587  13.888 -0.9123 -0.0382 -0.6832
19191TIP3    H178988   0.888   4.617  13.806  0.0953 -0.0077 -0.1927
19191TIP3    H278989   0.895   4.506  13.909 -2.8542 -1.4378 -1.4201
19192TIP3   OH278990   4.070   1.289   5.562  0.0868  0.0289 -0.8264
19192TIP3    H178991   4.001   1.269   5.498  0.7696  0.0361 -1.5725
19192TIP3    H278992   4.022   1.324   5.638 -0.8000 -0.6866 -1.0268
19193TIP3   OH278993   3.578   1.851   3.158  0.1171 -0.1651  0.1806
19193TIP3    H178994   3.519   1.874   3.086  0.0456  0.0811  0.3162
19193TIP3    H278995   3.644   1.794   3.117  0.3864  0.4066 -0.2000
19194TIP3   OH278996   0.273   5.016  12.592  0.1150  0.3683 -0.3528
19194TIP3    H178997   0.336   5.010  12.520  0.1978  0.8745 -0.3300
19194TIP3    H278998   0.305   5.088  12.646  0.9325 -1.0122  1.0812
19195TIP3   OH278999   4.935   4.941   4.618 -0.0246 -0.1422  0.8336
19195TIP3    H179000   4.885   4.869   4.658 -1.2841  1.2156  1.7991
19195TIP3    H279001   4.890   5.020   4.646  1.3648  1.0564 -0.1627
19196TIP3   OH279002   6.418   3.015  13.879 -0.0697  0.0884  0.5441
19196TIP3    H179003   6.481   3.077  13.842 -1.1224 -0.0254 -1.5779
19196TIP3    H279004   6.440   2.931  13.839 -0.3801 -0.3592  1.2865
19197TIP3   OH279005   3.619   5.901   4.798 -0.7189 -0.8273 -0.2074
19197TIP3    H179006   3.605   5.988   4.835 -1.6371 -1.8337  1.9505
19197TIP3    H279007   3.581   5.841   4.862 -0.0160 -2.8426 -1.5864
19198TIP3   OH279008   1.110   1.275   5.456  0.4129  0.5052  0.1181
19198TIP3    H179009   1.141   1.224   5.530 -1.2397 -0.7782 -0.0283
19198TIP3    H279010   1.124   1.219   5.380  0.5455  1.1438 -0.3407
19199TIP3   OH279011   4.726   2.013  11.881  0.2787  0.3538 -0.1440
19199TIP3    H179012   4.713   1.949  11.951  1.9445  0.7829  0.5913
19199TIP3    H279013   4.638   2.049  11.865 -1.5263 -4.2919 -2.8769
19200TIP3   OH279014   4.840   5.729   0.508  0.3369  0.2821  0.3565
19200TIP3    H179015   4.758   5.693   0.541 -0.0143 -0.5315 -1.2902
19200TIP3    H279016   4.821   5.821   0.491 -0.9347 -0.3231 -1.9447
19201TIP3   OH279017   0.797   0.616  13.126  0.4768  0.1405 -0.2818
19201TIP3    H179018   0.860   0.644  13.059 -0.7778  0.7375 -1.2648
19201TIP3    H279019   0.731   0.567  13.077 -0.3756  0.4297  0.5420
19202TIP3   OH279020   2.188   5.283  16.412  0.4827 -0.2399  0.1819
19202TIP3    H179021   2.130   5.240  16.474  1.7931 -0.9235  0.9856
19202TIP3    H279022   2.244   5.338  16.466  2.8898 -2.2453 -0.0836
19203TIP3   OH279023   3.738   1.506   2.111  0.0523 -0.4064 -0.2147
19203TIP3    H179024   3.699   1.484   2.195  1.2320 -1.8315 -0.0050
19203TIP3    H279025   3.684   1.461   2.047 -0.9171  0.7735 -0.2736
19204TIP3   OH279026   2.668   5.012   1.561  0.4753  0.1400 -0.3552
19204TIP3    H179027   2.759   5.036   1.545  0.4610  0.6409  0.2854
19204TIP3    H279028   2.661   5.006   1.656 -0.3704  0.9350 -0.3536
19205TIP3   OH279029   2.790   4.946  11.926 -0.0443  0.1653  0.0716
19205TIP3    H179030   2.776   5.025  11.978  0.7882  0.7974 -0.6395
19205TIP3    H279031   2.861   4.969  11.866  0.4925 -1.2489  0.1306
19206TIP3   OH279032   3.447   2.128  14.228  0.0918  0.0448  0.8796
19206TIP3    H179033   3.495   2.207  14.253  0.0583  0.0766  0.8452
19206TIP3    H279034   3.504   2.056  14.253  1.0044  0.1161 -0.8581
19207TIP3   OH279035   3.307   3.441   3.005 -0.2616  0.2384  0.0901
19207TIP3    H179036   3.329   3.525   3.045  1.8691 -0.2620  0.0804
19207TIP3    H279037   3.229   3.412   3.052 -1.2372  2.3381 -0.1305
19208TIP3   OH279038   3.112   2.952  15.085  0.1922  0.2191 -0.0326
19208TIP3    H179039   3.070   2.901  15.155  1.5853  0.4347  1.0017
19208TIP3    H279040   3.176   2.891  15.046  1.7758  1.0664  1.1254
19209TIP3   OH279041   3.897   5.252   4.529  0.2802 -0.3456  0.0460
19209TIP3    H179042   3.819   5.280   4.481  1.2619  1.3128 -0.6568
19209TIP3    H279043   3.913   5.323   4.591  0.4767 -1.3066  1.1335
19210TIP3   OH279044   2.365   1.303   4.358  0.1999 -0.6598  0.2881
19210TIP3    H179045   2.298   1.302   4.427  2.3115  0.8886  2.5325
19210TIP3    H279046   2.435   1.247   4.391  0.9801 -0.4631 -0.9496
19211TIP3   OH279047   2.666   4.262   5.519 -0.5150 -0.2252 -0.4807
19211TIP3    H179048   2.755   4.244   5.489 -0.7577 -0.5330 -1.0332
19211TIP3    H279049   2.639   4.180   5.561 -0.5889 -0.1772 -0.4354
19212TIP3   OH279050   4.665   3.434   5.068  0.4273 -0.2504 -0.0833
19212TIP3    H179051   4.671   3.509   5.008 -2.2698  0.4223  0.3804
19212TIP3    H279052   4.725   3.456   5.139 -1.3039  2.2136  0.7447
19213TIP3   OH279053   0.475   3.901   1.553 -0.1070  0.8594  0.5291
19213TIP3    H179054   0.482   3.935   1.642  0.5196 -1.1678  1.3119
19213TIP3    H279055   0.565   3.902   1.520 -0.1859  0.6397  0.3071
19214TIP3   OH279056   0.692   4.157  15.317  0.4881  0.5610  0.3784
19214TIP3    H179057   0.743   4.236  15.331 -1.1828  1.5641  1.0836
19214TIP3    H279058   0.670   4.126  15.405  0.0535  0.0420  0.0971
19215TIP3   OH279059   5.376   6.700  14.770  0.2253  0.5387 -0.2410
19215TIP3    H179060   5.381   6.715  14.864  1.0943  0.4888 -0.2717
19215TIP3    H279061   5.379   6.788  14.732  1.7751  0.4967 -0.2814
19216TIP3   OH279062   0.818   6.430   4.084 -0.7141 -0.0152  0.2246
19216TIP3    H179063   0.860   6.472   4.009  1.9052 -1.4167  0.7904
19216TIP3    H279064   0.728   6.414   4.055  0.2759 -0.8505 -2.7948
19217TIP3   OH279065   4.219   5.916  11.608 -0.3964 -0.2714 -0.0911
19217TIP3    H179066   4.201   5.826  11.584  1.2381 -0.1146 -2.2847
19217TIP3    H279067   4.241   5.913  11.701  1.0258 -2.3982 -0.4224
19218TIP3   OH279068   3.291   2.112  12.266  0.0513  0.0646  0.1976
19218TIP3    H179069   3.244   2.080  12.343  1.8881 -1.5000  0.7465
19218TIP3    H279070   3.331   2.034  12.227  0.4359  1.0290 -1.4663
19219TIP3   OH279071   3.645   6.166   4.865 -0.0210 -0.0982 -0.0519
19219TIP3    H179072   3.628   6.228   4.795 -2.0801 -0.7375 -0.1766
19219TIP3    H279073   3.687   6.218   4.934  1.1259  0.7380 -1.3331
19220TIP3   OH279074   4.116   4.268   5.073  0.5026 -0.1483 -0.1635
19220TIP3    H179075   4.048   4.319   5.029 -0.3250 -2.8492 -2.2473
19220TIP3    H279076   4.197   4.294   5.030  0.0619 -0.6635 -1.3518
19221TIP3   OH279077   1.521   4.902  13.736 -0.1518  0.1503 -0.4308
19221TIP3    H179078   1.441   4.902  13.790 -1.2644  1.2030 -1.9823
19221TIP3    H279079   1.592   4.893  13.799 -1.5008 -1.2942  0.9818
19222TIP3   OH279080   1.205   0.529   2.364 -0.0560 -0.3424  0.6940
19222TIP3    H179081   1.260   0.594   2.320  0.7016 -1.6160 -0.3401
19222TIP3    H279082   1.121   0.534   2.320  0.9706 -2.2789 -1.7530
19223TIP3   OH279083   5.106   2.068  14.475  0.3418 -0.0147  0.2283
19223TIP3    H179084   5.134   2.080  14.566  1.9085  0.1799 -0.2458
19223TIP3    H279085   5.021   2.111  14.470 -2.5726 -4.5243  2.9330
19224TIP3   OH279086   5.512   6.086  14.932 -0.5195 -0.4848  0.9761
19224TIP3    H179087   5.574   6.069  14.861 -0.4992 -0.1061  0.9027
19224TIP3    H279088   5.521   6.011  14.990  0.7240  0.0257  1.4770
19225TIP3   OH279089   2.834   0.039   2.490  0.1693  0.5856 -0.2519
19225TIP3    H179090   2.798  -0.030   2.546 -0.2740 -0.4088 -1.6897
19225TIP3    H279091   2.849   0.113   2.549 -0.0038 -0.5048  1.2055
19226TIP3   OH279092   1.359   1.312   4.208 -0.6018  0.7532  0.0436
19226TIP3    H179093   1.286   1.259   4.237  0.5077 -0.7916  0.1075
19226TIP3    H279094   1.393   1.352   4.288 -0.7311  0.6450  0.1526
19227TIP3   OH279095   1.060   1.289   5.020  0.0533 -0.2880 -0.0451
19227TIP3    H179096   1.119   1.288   5.096  1.1866  0.7525 -0.8759
19227TIP3    H279097   0.998   1.359   5.039  0.7178  0.3907 -0.3401
19228TIP3   OH279098   4.767   1.981  14.344 -0.7568  0.5588 -0.7714
19228TIP3    H179099   4.806   2.067  14.362 -2.5960  1.5120 -1.0310
19228TIP3    H279100   4.764   1.938  14.429  0.4648  0.6043 -0.6887
19229TIP3   OH279101   2.253   4.292  12.603  0.0261 -0.1391  0.1024
19229TIP3    H179102   2.204   4.359  12.555 -2.5911 -1.6960  0.4538
19229TIP3    H279103   2.267   4.222  12.538 -0.2288 -0.6599  0.6023
19230TIP3   OH279104   6.352   2.990   4.406  0.0446 -0.0523 -0.3318
19230TIP3    H179105   6.279   2.933   4.428  0.8481 -1.1706 -0.4961
19230TIP3    H279106   6.325   3.077   4.436 -0.2887 -0.8975  1.9449
19231TIP3   OH279107   4.182   6.242  14.533  0.1198 -0.0356  0.1311
19231TIP3    H179108   4.095   6.230  14.494  1.7860 -1.6796 -3.5077
19231TIP3    H279109   4.200   6.158  14.577 -0.0566  0.2552  0.7673
19232TIP3   OH279110   5.447   3.614   0.087  0.8960 -0.2806  0.6025
19232TIP3    H179111   5.533   3.653   0.072 -0.9689  3.8015 -1.1100
19232TIP3    H279112   5.406   3.611   0.001 -1.2356 -0.5218  1.5450
19233TIP3   OH279113   3.256   3.723  13.900 -0.0555 -0.0109 -0.1631
19233TIP3    H179114   3.231   3.632  13.919  0.9624  0.1045  1.9666
19233TIP3    H279115   3.179   3.759  13.856 -1.6861 -1.0944  1.6168
19234TIP3   OH279116   5.213   2.571  13.797 -0.1361 -0.3651 -0.3802
19234TIP3    H179117   5.220   2.648  13.740 -2.1523  0.9136  0.9993
19234TIP3    H279118   5.260   2.596  13.876 -2.0466  0.1116  0.6656
19235TIP3   OH279119   4.155   6.685   5.960  0.0251  0.3818 -0.2039
19235TIP3    H179120   4.212   6.660   6.033  1.3113 -0.7576 -1.5284
19235TIP3    H279121   4.117   6.769   5.987  2.0463  1.0215  0.9282
19236TIP3   OH279122   0.537   6.017   3.176 -0.0468  0.3243  0.1651
19236TIP3    H179123   0.491   5.948   3.127 -1.3462  1.7930 -0.7985
19236TIP3    H279124   0.504   6.008   3.265 -0.8075  0.1820 -0.1198
19237TIP3   OH279125   0.568   2.972  14.833  0.0346 -0.6092 -0.2627
19237TIP3    H179126   0.557   2.901  14.895 -0.4912  1.0959  1.7336
19237TIP3    H279127   0.484   3.018  14.835  0.5331  0.3842 -1.0615
19238TIP3   OH279128   2.207   5.677   1.851  0.2709  0.6128  0.1525
19238TIP3    H179129   2.217   5.582   1.847  0.1507  0.5406  1.2230
19238TIP3    H279130   2.124   5.690   1.897  0.6765  1.2344  0.7208
19239TIP3   OH279131   5.323   5.875  12.025 -0.4410  0.8916  0.0292
19239TIP3    H179132   5.340   5.929  12.102  2.3724 -0.0657  0.1940
19239TIP3    H279133   5.397   5.892  11.967 -0.2674 -1.6051 -0.5883
19240TIP3   OH279134   3.295   4.962  15.994 -0.2548  0.1674  0.0418
19240TIP3    H179135   3.328   5.033  16.048 -0.1504  1.0076 -1.0918
19240TIP3    H279136   3.211   4.994  15.961 -0.5260 -0.5097  0.0520
19241TIP3   OH279137   3.449   2.426   5.084 -0.1213  0.1634 -0.0942
19241TIP3    H179138   3.511   2.407   5.014 -1.3768  0.9669 -1.4760
19241TIP3    H279139   3.366   2.393   5.052 -0.5841 -0.2456  1.4267
19242TIP3   OH279140   2.559   5.561   3.688  0.2880  0.0879  0.4774
19242TIP3    H179141   2.634   5.620   3.697 -1.4039  2.4117  0.3031
19242TIP3    H279142   2.508   5.575   3.767 -0.9978  0.1403 -0.3376
19243TIP3   OH279143   0.949   5.050   2.655  0.2327 -0.2260  0.0204
19243TIP3    H179144   1.019   5.080   2.597 -1.0679  0.9032 -1.0397
19243TIP3    H279145   0.952   4.954   2.648  0.1869 -0.1431 -1.9059
19244TIP3   OH279146   6.174   1.428  17.047  0.2985  0.1883  0.7418
19244TIP3    H179147   6.156   1.349  16.995 -0.4901 -0.6348  2.2021
19244TIP3    H279148   6.255   1.463  17.010  0.9995 -1.6403  0.4391
19245TIP3   OH279149   4.958   4.588   4.432 -0.3072  0.0227 -0.1925
19245TIP3    H179150   4.914   4.507   4.454 -1.5052  0.9778  1.1171
19245TIP3    H279151   4.928   4.651   4.498  1.4380  1.2507 -0.4848
19246TIP3   OH279152   0.686   0.042  16.260 -0.0875  0.4029 -0.5363
19246TIP3    H179153   0.672  -0.048  16.290  0.1129  0.7359  0.5789
19246TIP3    H279154   0.762   0.035  16.202  0.6774  0.0210  0.4798
19247TIP3   OH279155   2.474   6.376  12.512  0.6410 -0.0356 -0.5569
19247TIP3    H179156   2.436   6.459  12.481 -0.1355 -0.3853 -0.5747
19247TIP3    H279157   2.402   6.313  12.505  1.7494 -1.1848 -2.3936
19248TIP3   OH279158   2.932   4.815  16.551  0.8103  0.5222  0.6368
19248TIP3    H179159   2.866   4.769  16.603 -0.3216  1.0914 -0.2488
19248TIP3    H279160   2.958   4.890  16.606 -1.1665  1.7411  0.0223
19249TIP3   OH279161   0.684   5.040  12.195  0.0258 -0.0000 -0.5204
19249TIP3    H179162   0.749   5.009  12.132 -0.0330 -1.9160  0.2959
19249TIP3    H279163   0.735   5.087  12.261  0.8683 -2.6654  0.8599
19250TIP3   OH279164   4.793   3.645   4.177  0.1214 -0.0338  0.3668
19250TIP3    H179165   4.841   3.720   4.142  0.4482  0.0449  0.9710
19250TIP3    H279166   4.817   3.642   4.270  0.0618 -0.8474  0.3614
19251TIP3   OH279167   2.774   4.334   0.202  0.1353  0.2887 -0.3175
19251TIP3    H179168   2.695   4.325   0.255  0.8614  2.2013  1.2403
19251TIP3    H279169   2.749   4.392   0.130 -0.0943  0.1593 -0.3426
19252TIP3   OH279170   1.581   5.383  13.308  0.6830 -0.5406 -0.4175
19252TIP3    H179171   1.542   5.388  13.395 -0.8660  0.7891 -1.1246
19252TIP3    H279172   1.525   5.321  13.260  1.3541 -1.0461 -0.5571
19253TIP3   OH279173   6.455   0.743  13.859 -0.3849  0.2093 -0.3593
19253TIP3    H179174   6.490   0.799  13.928  0.7882 -1.7220  0.7061
19253TIP3    H279175   6.532   0.718  13.807 -0.9193 -0.2193 -0.9602
19254TIP3   OH279176   6.554   3.912   4.442 -0.0639 -0.2317 -0.3656
19254TIP3    H179177   6.648   3.897   4.452 -0.0692 -1.5147 -1.8038
19254TIP3    H279178   6.542   4.004   4.466  1.6525  0.1183 -0.6977
19255TIP3   OH279179   5.362   0.329  16.970  0.4926 -0.1604 -0.0381
19255TIP3    H179180   5.432   0.393  16.964  1.5449 -1.3600 -1.6064
19255TIP3    H279181   5.407   0.245  16.983 -0.8446 -0.6256  2.1600
19256TIP3   OH279182   2.361   1.140   1.465 -0.1349 -0.4412 -0.0041
19256TIP3    H179183   2.313   1.058   1.481 -1.0434 -0.4655 -2.5076
19256TIP3    H279184   2.303   1.208   1.499 -0.4353 -0.6967  0.0077
19257TIP3   OH279185   6.469   0.212   2.197  0.1173  0.4633 -0.0554
19257TIP3    H179186   6.376   0.204   2.221  0.8396  1.7242  3.8125
19257TIP3    H279187   6.467   0.245   2.107 -3.1304 -0.6278 -0.5183
19258TIP3   OH279188   4.632   4.165  14.174  0.6210 -0.2030  0.0753
19258TIP3    H179189   4.709   4.220  14.190  1.8187 -1.8664  0.2545
19258TIP3    H279190   4.651   4.083  14.219 -1.6044 -0.4107  0.7314
19259TIP3   OH279191   4.845   1.569   4.213 -0.6722 -0.4728 -0.2223
19259TIP3    H179192   4.934   1.562   4.179 -1.5249 -1.1528 -2.5364
19259TIP3    H279193   4.830   1.487   4.259 -0.8199 -1.4009 -1.8362
19260TIP3   OH279194   0.447   4.895  11.818 -0.2978  0.1108  0.0093
19260TIP3    H179195   0.405   4.918  11.735 -0.4531 -0.2790 -0.0209
19260TIP3    H279196   0.524   4.844  11.793  0.0911  0.6574  0.0733
19261TIP3   OH279197   1.953   5.941  11.106 -0.2852  0.3099 -0.0681
19261TIP3    H179198   1.922   6.007  11.167 -2.8679 -1.3428  0.5723
19261TIP3    H279199   1.874   5.892  11.081  1.6191 -3.7628  1.0270
19262TIP3   OH279200   3.077   1.185  12.780 -0.1755  0.2004 -0.2329
19262TIP3    H179201   2.987   1.176  12.749 -0.3780 -0.5077  0.5101
19262TIP3    H279202   3.068   1.212  12.872  0.3505 -0.3410 -0.0119
19263TIP3   OH279203   5.767   0.168   4.760  0.4941  0.4169  0.4110
19263TIP3    H179204   5.755   0.186   4.667 -0.8584 -1.6292  0.1201
19263TIP3    H279205   5.854   0.128   4.765  0.2348 -0.2337 -0.1235
19264TIP3   OH279206   6.501   1.693   4.870  0.5816 -0.4130  0.0416
19264TIP3    H179207   6.557   1.718   4.943 -0.0752 -2.6810  1.4275
19264TIP3    H279208   6.413   1.690   4.907 -0.4139  1.9135 -1.7991
19265TIP3   OH279209   0.850   3.914   5.265 -0.3281  0.2956 -0.2216
19265TIP3    H179210   0.871   3.851   5.334 -0.3228  0.1026 -0.3965
19265TIP3    H279211   0.857   3.863   5.184  1.4082  0.9453 -0.5140
19266TIP3   OH279212   4.376   2.400   3.343  0.3549 -0.0616  0.0689
19266TIP3    H179213   4.296   2.452   3.340  0.0454 -0.2978  2.2340
19266TIP3    H279214   4.436   2.442   3.282 -0.6887  1.4012  0.0205
19267TIP3   OH279215   0.873   3.909  12.701  0.7833  0.7144  0.6220
19267TIP3    H179216   0.809   3.873  12.639  0.0387  1.6962  0.7973
19267TIP3    H279217   0.934   3.958  12.647 -0.0327  1.8140  0.6669
19268TIP3   OH279218   6.557   0.073   3.472 -0.2524 -0.5660 -0.5372
19268TIP3    H179219   6.650   0.054   3.461 -0.4282 -1.6020 -0.4034
19268TIP3    H279220   6.549   0.167   3.457  0.9118 -0.3552  0.0573
19269TIP3   OH279221   2.553   5.318  13.951 -0.2636 -0.5025  0.3601
19269TIP3    H179222   2.579   5.227  13.934  1.5648  0.2611 -1.3121
19269TIP3    H279223   2.629   5.370  13.925 -1.6474  1.5976  0.2675
19270TIP3   OH279224   5.254   3.793   3.481  0.4190 -0.1298 -0.0351
19270TIP3    H179225   5.268   3.810   3.574 -0.1347 -0.9098  0.1997
19270TIP3    H279226   5.177   3.844   3.458  0.4852 -0.0317 -0.0407
19271TIP3   OH279227   4.042   1.459   3.393  0.3090  0.1394  0.4567
19271TIP3    H179228   4.130   1.422   3.406  0.7570  1.5265  1.6769
19271TIP3    H279229   3.986   1.409   3.453  0.2007 -0.8862 -0.4743
19272TIP3   OH279230   0.821   2.073   5.790  0.1141 -0.0002  0.2460
19272TIP3    H179231   0.892   2.054   5.851 -2.0484 -0.5833  2.7423
19272TIP3    H279232   0.831   2.165   5.768  0.2365  0.5993  2.5812
19273TIP3   OH279233   1.011   6.680   3.929 -0.3396 -0.2700  0.8638
19273TIP3    H179234   0.969   6.609   3.879 -0.5127  0.7376 -0.4574
19273TIP3    H279235   1.062   6.728   3.864  0.4259  0.3422  1.9036
19274TIP3   OH279236   2.181   0.863   2.339  0.0069  0.6630  0.0272
19274TIP3    H179237   2.152   0.954   2.330  1.3994  1.1399  0.0263
19274TIP3    H279238   2.221   0.843   2.255 -0.0486  0.1412  0.1256
19275TIP3   OH279239   5.198   6.414   4.729  0.3966  0.1558 -0.2323
19275TIP3    H179240   5.136   6.476   4.691 -0.1376 -0.9281 -1.2138
19275TIP3    H279241   5.231   6.364   4.654 -1.1543 -2.4840  0.6803
19276TIP3   OH279242   6.424   6.270  13.838 -0.2365  0.8483 -0.2151
19276TIP3    H179243   6.383   6.184  13.846  0.5644  0.4246 -0.4985
19276TIP3    H279244   6.358   6.331  13.869 -0.1442 -0.0220  1.8904
19277TIP3   OH279245   5.501   0.608  11.863 -0.3451  0.0080  0.3721
19277TIP3    H179246   5.410   0.577  11.870  0.3579 -2.4772 -0.4530
19277TIP3    H279247   5.542   0.580  11.945 -0.1820  0.6300  0.5056
19278TIP3   OH279248   1.809   1.196  16.101  0.2272 -0.5733  0.1318
19278TIP3    H179249   1.836   1.178  16.011  0.1506  0.2269 -0.0563
19278TIP3    H279250   1.725   1.150  16.109 -1.6846  2.3002 -1.4336
19279TIP3   OH279251   5.641   6.167   5.287  0.1746 -0.1898 -0.3916
19279TIP3    H179252   5.712   6.140   5.346 -0.9177 -1.6084  0.3355
19279TIP3    H279253   5.637   6.262   5.296 -0.8096 -0.4151  2.9115
19280TIP3   OH279254   6.392   4.657  11.668  0.1764 -0.2528  0.3594
19280TIP3    H179255   6.424   4.748  11.666  0.0433 -0.2142 -0.1850
19280TIP3    H279256   6.419   4.624  11.754  0.4291  0.2301  0.4697
19281TIP3   OH279257   0.862   3.975  13.592 -0.0666  0.0270  0.0332
19281TIP3    H179258   0.821   4.062  13.591 -2.7877 -1.1529  0.7519
19281TIP3    H279259   0.806   3.922  13.536  0.9291 -1.5403  0.4818
19282TIP3   OH279260   4.106   2.042  15.948 -0.4883  0.2083  0.2118
19282TIP3    H179261   4.193   2.076  15.966 -0.4004 -0.6442  1.5771
19282TIP3    H279262   4.055   2.118  15.921  0.9483  0.5149 -1.7837
19283TIP3   OH279263   6.091   6.120   5.854  0.4648 -0.2049 -0.2037
19283TIP3    H179264   6.122   6.194   5.907 -0.5831 -0.0132  0.1548
19283TIP3    H279265   6.172   6.076   5.825  1.0719  0.2132  0.8053
19284TIP3   OH279266   5.527   3.618   2.108  0.2741  0.2466  0.2289
19284TIP3    H179267   5.492   3.686   2.166 -1.1783  0.0676 -0.3841
19284TIP3    H279268   5.485   3.635   2.023  0.5494 -0.8906 -0.1550
19285TIP3   OH279269   6.604   4.744  12.250 -1.0062  0.3737  0.2235
19285TIP3    H179270   6.529   4.706  12.294 -0.0974 -0.6066  0.9675
19285TIP3    H279271   6.650   4.793  12.318  0.3191 -1.0205  0.3606
19286TIP3   OH279272   6.739   6.631  14.723 -0.3450 -0.0924 -0.3597
19286TIP3    H179273   6.672   6.633  14.655 -0.0608  1.8628 -0.6442
19286TIP3    H279274   6.704   6.684  14.794 -0.0981 -1.0577  0.5121
19287TIP3   OH279275   6.554   2.188   3.612  0.3702 -0.1172 -0.6523
19287TIP3    H179276   6.562   2.122   3.681  0.2320 -1.0550 -1.5173
19287TIP3    H279277   6.460   2.208   3.610  0.5652  1.1112  0.4944
19288TIP3   OH279278   6.354   0.284   5.628 -0.1601  0.0897  0.4837
19288TIP3    H179279   6.443   0.264   5.599 -0.1276 -0.2250  0.8001
19288TIP3    H279280   6.352   0.259   5.720 -1.6249 -3.3991 -0.3256
19289TIP3   OH279281   1.437   0.841  15.292  0.4318  0.0138  0.3455
19289TIP3    H179282   1.346   0.851  15.264 -1.0140 -4.7043  2.4068
19289TIP3    H279283   1.477   0.786  15.225  1.1357  0.1775  0.6207
19290TIP3   OH279284   0.518   2.214   0.480 -0.7352 -0.2148  0.5603
19290TIP3    H179285   0.560   2.145   0.532 -1.1607  0.1035  1.3483
19290TIP3    H279286   0.513   2.178   0.392 -1.7532 -1.5674  1.1340
19291TIP3   OH279287   0.107   6.750  14.307  0.3123 -0.1097  0.3550
19291TIP3    H179288   0.175   6.766  14.372  0.6240  0.9788 -0.2182
19291TIP3    H279289   0.155   6.742  14.224 -0.1033 -1.2015  0.2037
19292TIP3   OH279290   5.815   3.393  12.431 -0.0872  0.2511 -0.9261
19292TIP3    H179291   5.821   3.305  12.393  1.1326  0.5761 -1.5332
19292TIP3    H279292   5.780   3.447  12.360 -1.9211  0.0748 -0.2046
19293TIP3   OH279293   0.651   5.863  17.057  0.5453  0.2924  0.2668
19293TIP3    H179294   0.648   5.849  17.151 -0.7160  2.0266  0.5378
19293TIP3    H279295   0.568   5.827  17.025  0.3727  0.8926  0.0250
19294TIP3   OH279296   5.241   5.573   2.073  0.0360  0.2365 -0.1102
19294TIP3    H179297   5.192   5.512   2.129  0.6330  1.3774  1.7662
19294TIP3    H279298   5.184   5.588   1.998  0.2741 -3.3495 -1.1802
19295TIP3   OH279299   6.537   3.777  13.054 -0.3890 -0.2592  0.0113
19295TIP3    H179300   6.535   3.861  13.009  0.7727 -0.3490 -0.2172
19295TIP3    H279301   6.561   3.799  13.144  1.1181 -0.4471 -0.3272
19296TIP3   OH279302   3.450   5.650   5.899  0.2636  0.1632 -0.0553
19296TIP3    H179303   3.540   5.683   5.902 -0.4855  2.4398 -0.6299
19296TIP3    H279304   3.420   5.653   5.990  0.1573  1.3084 -0.1162
19297TIP3   OH279305   2.874   4.764   0.986  0.1416 -0.1932  0.5637
19297TIP3    H179306   2.780   4.786   0.984  0.3632  0.7503 -1.1608
19297TIP3    H279307   2.918   4.849   0.985  1.0287 -0.6454  0.9135
19298TIP3   OH279308   6.542   3.442  13.354  0.3650  0.4151 -0.0751
19298TIP3    H179309   6.611   3.412  13.413  1.1077  1.7083 -0.2558
19298TIP3    H279310   6.583   3.445  13.268 -0.5828 -0.9965 -0.6292
19299TIP3   OH279311   4.994   0.740  16.564 -0.1335 -0.4702  0.3850
19299TIP3    H179312   4.921   0.680  16.549 -0.5463  0.4181 -1.3214
19299TIP3    H279313   5.016   0.774  16.478  1.1589  0.6110  1.1048
19300TIP3   OH279314   5.013   6.527   3.634 -0.7987 -0.5509 -0.2864
19300TIP3    H179315   5.008   6.621   3.648 -1.7006 -0.3845 -1.6108
19300TIP3    H279316   4.966   6.511   3.553  1.3384 -1.8732 -1.3757
19301TIP3   OH279317   0.431   3.790   5.539 -0.0384 -0.0788 -0.3987
19301TIP3    H179318   0.478   3.873   5.538 -0.9553  0.4980 -2.7372
19301TIP3    H279319   0.435   3.760   5.630 -0.2370  2.8458  0.6619
19302TIP3   OH279320   0.914   3.498   1.984 -0.4150  0.1800 -0.4129
19302TIP3    H179321   0.927   3.576   1.929  2.8601 -0.8837 -1.3762
19302TIP3    H279322   1.002   3.462   1.995 -1.7227 -2.9940  0.6047
19303TIP3   OH279323   3.582   4.998   0.038  0.1992 -0.2869  0.0073
19303TIP3    H179324   3.505   4.941   0.030 -0.0211 -0.1319  0.8738
19303TIP3    H279325   3.655   4.938   0.049 -0.2559 -0.4703  2.8826
19304TIP3   OH279326   6.272   5.442   4.792  0.3386  0.3296 -0.1893
19304TIP3    H179327   6.315   5.392   4.861  1.6681  2.2734  0.4889
19304TIP3    H279328   6.219   5.507   4.839  0.1060  0.7453 -1.0034
19305TIP3   OH279329   2.165   3.083   1.807 -0.2571  0.9670  0.7267
19305TIP3    H179330   2.098   3.094   1.873  0.2342 -0.3538  1.4917
19305TIP3    H279331   2.234   3.032   1.850 -1.0682 -2.3544 -1.4523
19306TIP3   OH279332   0.612   2.133   0.918  0.3828  0.6723 -0.4703
19306TIP3    H179333   0.613   2.097   0.830 -0.9703  1.1175 -0.6828
19306TIP3    H279334   0.601   2.227   0.906  0.0350  0.7206  0.1780
19307TIP3   OH279335   4.072   0.050   0.497  0.5895  0.0369  0.5480
19307TIP3    H179336   4.128   0.119   0.533  1.6852  0.0609 -1.0772
19307TIP3    H279337   4.129  -0.027   0.492 -0.7842 -1.2772  2.9482
19308TIP3   OH279338   2.269   6.571   1.453 -0.4654 -0.2322  0.6801
19308TIP3    H179339   2.248   6.492   1.503  0.0779 -1.2805 -0.6817
19308TIP3    H279340   2.197   6.632   1.473 -2.3886 -2.0551 -0.3093
19309TIP3   OH279341   0.720   2.351   0.322 -1.0676  0.4418 -0.2804
19309TIP3    H179342   0.778   2.408   0.373  0.5364 -1.5743  0.2839
19309TIP3    H279343   0.673   2.299   0.387 -1.2676 -0.0453 -0.8028
19310TIP3   OH279344   3.826   1.263   5.042  0.0923 -0.5595  0.0688
19310TIP3    H179345   3.888   1.324   5.082  0.5277 -0.9317 -0.0382
19310TIP3    H279346   3.740   1.291   5.076  0.0844  1.0678 -1.1372
19311TIP3   OH279347   5.369   6.265   3.204 -0.0644  0.1122  0.1343
19311TIP3    H179348   5.354   6.360   3.204  0.4168  0.2087  1.2377
19311TIP3    H279349   5.282   6.227   3.207 -0.3189  0.4700 -1.5228
19312TIP3   OH279350   4.104   2.748  12.340  0.7476 -0.3438 -0.3429
19312TIP3    H179351   4.040   2.682  12.313  1.4566 -0.8466 -0.8385
19312TIP3    H279352   4.088   2.759  12.434 -0.7548  0.3264 -0.6559
19313TIP3   OH279353   2.802   4.107   1.085 -0.2493  0.3265 -0.4512
19313TIP3    H179354   2.798   4.071   1.174 -0.7816 -0.4566 -0.7785
19313TIP3    H279355   2.845   4.192   1.095 -1.0001  0.5961  0.6623
19314TIP3   OH279356   1.958   3.088  13.307 -0.0728  0.7276  0.2420
19314TIP3    H179357   1.920   3.154  13.365 -2.2949 -0.2185 -0.0370
19314TIP3    H279358   1.912   3.007  13.330  0.2005 -0.0244 -1.6851
19315TIP3   OH279359   4.078   2.516   4.843  1.4004 -0.5899 -0.1013
19315TIP3    H179360   4.099   2.479   4.929  0.2476  0.4715  0.6816
19315TIP3    H279361   4.159   2.557   4.813  1.4207  0.4360  1.2465
19316TIP3   OH279362   5.023   0.360   5.496  0.3104 -0.2493  0.3742
19316TIP3    H179363   5.037   0.285   5.438  1.2051  1.3999 -1.6773
19316TIP3    H279364   4.943   0.401   5.462 -0.4987 -0.5446  1.8419
19317TIP3   OH279365   2.790   4.146   3.509  0.1733  0.0597  0.0740
19317TIP3    H179366   2.697   4.128   3.523  0.5870 -2.5720 -0.1558
19317TIP3    H279367   2.833   4.107   3.585  1.2784 -1.1929 -1.1489
19318TIP3   OH279368   3.346   1.558   0.322 -0.7726 -0.4106 -0.6005
19318TIP3    H179369   3.365   1.527   0.233 -0.7740 -0.6551 -0.5182
19318TIP3    H279370   3.281   1.496   0.355 -0.5683 -0.4856 -0.3324
19319TIP3   OH279371   3.724   5.674  16.448  0.2199 -0.2832  0.7233
19319TIP3    H179372   3.818   5.678  16.467  0.0249  0.5603  1.5728
19319TIP3    H279373   3.714   5.595  16.395  1.4986 -0.0257  0.0505
19320TIP3   OH279374   4.756   0.530   4.176 -0.2869  0.3158  0.4476
19320TIP3    H179375   4.688   0.463   4.177 -0.0313  0.0580  0.9820
19320TIP3    H279376   4.837   0.482   4.161 -0.1605  0.5637  0.3189
19321TIP3   OH279377   6.476   2.090   3.327  0.8964 -0.1356  0.1874
19321TIP3    H179378   6.428   2.146   3.388  0.3660  0.1105 -0.4421
19321TIP3    H279379   6.429   2.100   3.244  0.1355 -2.3313  0.2932
19322TIP3   OH279380   4.626   6.736  13.299 -0.2177 -0.1385  0.1318
19322TIP3    H179381   4.714   6.771  13.313 -0.1028 -0.7906  1.1679
19322TIP3    H279382   4.641   6.648  13.263 -0.4699  0.0207 -0.3808
19323TIP3   OH279383   6.519   5.631   2.554 -0.5081 -0.3172 -0.5876
19323TIP3    H179384   6.433   5.606   2.522 -1.1946 -0.0567  0.9402
19323TIP3    H279385   6.547   5.701   2.496 -2.6454  1.6394  0.5936
19324TIP3   OH279386   5.808   5.715   0.350  0.5469  0.2033  0.7969
19324TIP3    H179387   5.748   5.758   0.411  0.3377  1.8309 -0.5106
19324TIP3    H279388   5.751   5.669   0.288  0.5323  2.3618 -0.8977
19325TIP3   OH279389   6.439   3.904   3.451 -0.3676 -0.2265 -0.1709
19325TIP3    H179390   6.477   3.847   3.518 -0.2813 -0.7714 -0.6815
19325TIP3    H279391   6.463   3.864   3.368  0.4263  1.0173 -0.5758
19326TIP3   OH279392   6.329   0.720   3.023  0.2646 -0.2514  0.5354
19326TIP3    H179393   6.368   0.696   2.939 -1.3090 -2.3914  0.3166
19326TIP3    H279394   6.319   0.637   3.069 -1.9565  0.4383  1.4411
19327TIP3   OH279395   3.864   6.585  16.717 -0.3618  0.7166  0.2144
19327TIP3    H179396   3.829   6.547  16.798 -0.6662 -0.7428 -0.5583
19327TIP3    H279397   3.786   6.613  16.669 -0.4380 -1.2732 -0.9062
19328TIP3   OH279398   3.766   1.739  15.718 -0.0430 -0.1885  0.0182
19328TIP3    H179399   3.798   1.650  15.734  2.1681  0.7498  1.3388
19328TIP3    H279400   3.713   1.760  15.795 -0.7780 -0.4365 -0.4138
19329TIP3   OH279401   6.166   5.528  12.141  0.6303 -1.1189  0.1055
19329TIP3    H179402   6.145   5.564  12.227 -0.3627 -0.8263 -0.2467
19329TIP3    H279403   6.101   5.567  12.082  0.1304 -2.7392 -0.4519
19330TIP3   OH279404   1.275   5.610   3.245 -0.6920 -0.0283  0.3750
19330TIP3    H179405   1.325   5.683   3.282 -2.7618  1.6052  0.1311
19330TIP3    H279406   1.216   5.582   3.315  0.0200 -1.4685  0.4414
19331TIP3   OH279407   6.044   2.262  13.820 -0.6598 -0.3869 -0.1127
19331TIP3    H179408   5.971   2.306  13.864  0.9242  1.0243  1.2562
19331TIP3    H279409   6.065   2.187  13.876  0.4914  0.6425  0.8985
19332TIP3   OH279410   0.428   2.866   0.040 -0.2537 -0.3462  0.2349
19332TIP3    H179411   0.333   2.850   0.038  0.1021 -2.8214 -1.7798
19332TIP3    H279412   0.465   2.784   0.072  1.4349 -1.7449 -4.4880
19333TIP3   OH279413   0.320   6.143  16.061  0.0273  0.5328  0.1875
19333TIP3    H179414   0.373   6.219  16.084 -2.3710  2.1807  0.6759
19333TIP3    H279415   0.298   6.156  15.969 -0.4166  0.4703  0.2829
19334TIP3   OH279416   0.666   5.613   0.948  0.4181  0.2498 -0.0520
19334TIP3    H179417   0.758   5.589   0.962  0.3340  0.6065  1.2919
19334TIP3    H279418   0.624   5.532   0.920  0.5537 -0.7647  2.3917
19335TIP3   OH279419   2.760   0.669  11.099 -0.6320  0.2771  0.8573
19335TIP3    H179420   2.786   0.579  11.078  0.5183  0.7164  0.3542
19335TIP3    H279421   2.683   0.659  11.155  0.7334 -1.0656  2.5812
19336TIP3   OH279422   3.155   3.212   0.222 -0.3747  0.0580  0.1075
19336TIP3    H179423   3.155   3.238   0.130  1.1465 -1.9795 -0.5226
19336TIP3    H279424   3.062   3.208   0.246 -0.8575 -0.9076 -1.7951
19337TIP3   OH279425   2.526   4.986  16.365 -0.0694 -0.3089  0.6291
19337TIP3    H179426   2.465   5.051  16.331  0.5119 -1.5482 -3.3978
19337TIP3    H279427   2.486   4.902  16.342  1.9327 -1.1868  0.0832
19338TIP3   OH279428   6.032   2.096  11.606 -0.0534  0.3952  0.3053
19338TIP3    H179429   6.063   2.064  11.691  1.2228  1.5882  0.3338
19338TIP3    H279430   5.959   2.154  11.627  1.1464  1.8187  0.7750
19339TIP3   OH279431   5.423   1.765  12.941  0.1524 -0.1914 -0.1626
19339TIP3    H179432   5.453   1.853  12.963 -1.5859  0.3399  0.2966
19339TIP3    H279433   5.330   1.777  12.919 -1.1400 -2.3253  3.2823
19340TIP3   OH279434   3.101   1.919  14.889 -0.6610 -0.0854 -0.5733
19340TIP3    H179435   3.150   1.965  14.820 -0.7609  0.8831 -0.0183
19340TIP3    H279436   3.066   1.989  14.944 -0.2917 -0.8370  0.6687
19341TIP3   OH279437   5.281   6.533  15.856 -0.7191  0.0805 -0.2977
19341TIP3    H179438   5.254   6.448  15.889  1.2349 -0.4650  0.0026
19341TIP3    H279439   5.282   6.523  15.761 -3.4962  0.7662 -0.4783
19342TIP3   OH279440   2.709   2.707   5.293  0.3270  0.1099  0.0084
19342TIP3    H179441   2.782   2.680   5.238  0.3267  0.2668 -0.0696
19342TIP3    H279442   2.665   2.625   5.317  1.4352 -0.1373  1.3223
19343TIP3   OH279443   0.738   5.029   3.216  0.1135  0.5278 -0.2193
19343TIP3    H179444   0.769   5.066   3.133 -0.2909 -0.9257 -1.0534
19343TIP3    H279445   0.650   4.997   3.197  0.0123  0.1741  0.7891
19344TIP3   OH279446   2.785   6.441  10.856 -0.2005  0.0753 -0.2982
19344TIP3    H179447   2.876   6.427  10.829 -0.1349 -0.5795  0.2310
19344TIP3    H279448   2.735   6.439  10.775  0.1488 -0.5019 -0.5063
19345TIP3   OH279449   5.206   4.152  14.715 -0.4022  0.0819 -0.3160
19345TIP3    H179450   5.155   4.144  14.635  0.4951  0.2176 -0.9149
19345TIP3    H279451   5.290   4.189  14.687 -0.3659  0.9005  0.7996
19346TIP3   OH279452   0.834   6.629  12.028  0.2659  0.2347 -0.2778
19346TIP3    H179453   0.821   6.666  11.940  2.4181  1.3201 -0.1962
19346TIP3    H279454   0.847   6.705  12.084  0.1025 -0.5040  0.7833
19347TIP3   OH279455   0.475   6.108  17.191  0.0291 -0.1137  0.5213
19347TIP3    H179456   0.386   6.103  17.157  0.0607  1.3401  0.2033
19347TIP3    H279457   0.523   6.159  17.126  0.4766  1.3017  1.9121
19348TIP3   OH279458   5.682   5.841   5.701 -0.9092  0.1006  0.1970
19348TIP3    H179459   5.676   5.895   5.780  1.0792 -0.1990  0.6230
19348TIP3    H279460   5.772   5.809   5.702 -1.1965 -0.8637 -1.5952
19349TIP3   OH279461   2.695   5.527   5.744 -0.2506  0.6345  0.2465
19349TIP3    H179462   2.616   5.580   5.735  0.5840  2.2028  1.5124
19349TIP3    H279463   2.758   5.568   5.685 -0.3888 -0.7103 -0.8799
19350TIP3   OH279464   6.736   0.239   0.089  0.1466 -0.8578 -1.1419
19350TIP3    H179465   6.696   0.156   0.062 -2.2992  0.3124 -1.4324
19350TIP3    H279466   6.666   0.284   0.137  1.6371  0.7478 -0.3690
19351TIP3   OH279467   5.043   5.248  15.117  0.1125 -0.5627 -0.3163
19351TIP3    H179468   4.968   5.207  15.161  0.6006 -1.1417 -0.0158
19351TIP3    H279469   5.090   5.294  15.186  0.1414 -0.3561 -0.4710
19352TIP3   OH279470   1.031   6.482  15.390  0.3231 -0.2337 -0.0273
19352TIP3    H179471   0.961   6.454  15.331 -1.4089  0.7512  1.4226
19352TIP3    H279472   1.023   6.424  15.466  1.2790 -0.2831  0.0471
19353TIP3   OH279473   4.358   4.595   0.395 -0.1741  0.6685  0.1450
19353TIP3    H179474   4.319   4.528   0.450 -1.1198  1.2167  0.1578
19353TIP3    H279475   4.284   4.650   0.367  0.1168 -0.1053 -2.3789
19354TIP3   OH279476   1.637   6.484   4.329 -0.1699 -0.1690 -0.0723
19354TIP3    H179477   1.544   6.501   4.343  0.0443  0.2538  0.9528
19354TIP3    H279478   1.655   6.517   4.241 -0.6393  1.2862  0.3549
19355TIP3   OH279479   6.579   4.905   3.055  0.1197 -0.3124  0.1315
19355TIP3    H179480   6.567   4.992   3.094  0.0125 -0.5993  0.7439
19355TIP3    H279481   6.529   4.846   3.111  2.1071 -1.1273  1.1422
19356TIP3   OH279482   1.711   1.410  15.578  0.2596  0.1916  0.3219
19356TIP3    H179483   1.638   1.371  15.529  0.3811  0.1566  0.1673
19356TIP3    H279484   1.669   1.457  15.650 -0.0001  1.0690 -0.3814
19357TIP3   OH279485   5.777   2.262   5.087 -0.4603 -0.7290  0.5093
19357TIP3    H179486   5.860   2.228   5.122  0.4029 -0.5600 -1.2894
19357TIP3    H279487   5.787   2.357   5.092 -0.6851 -0.7100  0.5915
19358TIP3   OH279488   2.196   3.716   3.451 -0.5100  0.1479 -0.2451
19358TIP3    H179489   2.168   3.698   3.541  0.5405 -0.0412  0.0604
19358TIP3    H279490   2.119   3.697   3.398 -1.0699  0.0110  0.5920
19359TIP3   OH279491   1.059   3.579   5.747  0.2721  0.1015 -0.3620
19359TIP3    H179492   1.046   3.514   5.678 -1.0072 -0.4731  0.3911
19359TIP3    H279493   1.045   3.531   5.829  0.9334  0.9572  0.2812
19360TIP3   OH279494   1.631   2.198  12.797 -0.4544  0.2280 -0.0282
19360TIP3    H179495   1.623   2.133  12.728  2.3990  0.3354 -0.5867
19360TIP3    H279496   1.548   2.246  12.794 -1.6266 -1.7201 -1.2752
19361TIP3   OH279497   2.180   1.896  12.313 -0.2361 -0.1640  0.3152
19361TIP3    H179498   2.163   1.879  12.406  0.5931 -0.2972  0.4517
19361TIP3    H279499   2.125   1.971  12.292  0.7098  0.8420  1.3158
19362TIP3   OH279500   4.759   4.377   0.975  0.1854  0.5260  0.1924
19362TIP3    H179501   4.824   4.345   1.038  0.0667 -0.9129 -0.3754
19362TIP3    H279502   4.811   4.425   0.910  0.7266 -0.6892 -0.3069
19363TIP3   OH279503   4.449   0.059  14.454 -0.1787 -0.2163  0.1711
19363TIP3    H179504   4.436   0.034  14.546  0.8521  0.8223  0.6217
19363TIP3    H279505   4.449   0.155  14.456 -0.6457 -0.1832 -1.0031
19364TIP3   OH279506   3.178   1.405  11.531  0.1952  0.1689  0.2896
19364TIP3    H179507   3.223   1.330  11.493  0.1529  0.5909 -0.6176
19364TIP3    H279508   3.229   1.481  11.502 -1.6366  0.7586 -1.7057
19365TIP3   OH279509   4.473   4.720  12.359  0.1528 -0.4365 -0.4339
19365TIP3    H179510   4.406   4.686  12.300  1.1629  2.0682 -3.3048
19365TIP3    H279511   4.551   4.668  12.338  0.0265 -0.9167  0.2541
19366TIP3   OH279512   2.691   2.778   4.869  0.1065  0.7242 -0.3907
19366TIP3    H179513   2.694   2.784   4.773  1.3824  1.1245 -0.3480
19366TIP3    H279514   2.738   2.698   4.890 -0.2594  0.5828 -0.0945
19367TIP3   OH279515   4.346   3.078  11.961  0.3078 -0.8436  0.7082
19367TIP3    H179516   4.421   3.102  12.015  1.1134  0.8679 -1.0550
19367TIP3    H279517   4.270   3.103  12.014  1.0403  0.1058  1.3522
19368TIP3   OH279518   3.436   1.311   4.524 -0.1541 -0.1275  0.5968
19368TIP3    H179519   3.487   1.268   4.593 -0.4810  0.2917  1.1101
19368TIP3    H279520   3.357   1.257   4.516 -0.8011  0.6291  1.5965
19369TIP3   OH279521   1.093   2.387  14.959 -0.2896 -0.0063  1.0612
19369TIP3    H179522   1.172   2.362  14.910 -0.8628 -0.5319  0.3811
19369TIP3    H279523   1.120   2.384  15.051  0.7494  0.8013  0.7927
19370TIP3   OH279524   3.899   2.668   1.470 -0.7602  0.2900 -0.0542
19370TIP3    H179525   3.970   2.732   1.467 -0.7802  0.4060  1.4584
19370TIP3    H279526   3.937   2.592   1.514 -0.9583 -0.4753 -1.1547
19371TIP3   OH279527   4.283   3.645  16.820  0.4384 -0.5122 -0.0961
19371TIP3    H179528   4.357   3.699  16.848 -0.3149  0.0415  0.9125
19371TIP3    H279529   4.258   3.680  16.735  1.5117 -0.9000 -0.5919
19372TIP3   OH279530   3.357   1.633   1.171 -0.4765  0.1029 -0.0584
19372TIP3    H179531   3.417   1.704   1.193 -0.7489 -0.2746  2.1805
19372TIP3    H279532   3.385   1.560   1.227 -1.9162 -0.6321 -0.2490
19373TIP3   OH279533   4.087   1.408   3.775 -0.2544 -0.4513  0.4966
19373TIP3    H179534   4.123   1.436   3.859 -0.2476  0.2620  0.2646
19373TIP3    H279535   4.150   1.345   3.741  0.6281  0.5498  0.2387
19374TIP3   OH279536   0.498   6.347   2.483 -1.0926 -0.1047 -0.3097
19374TIP3    H179537   0.508   6.313   2.572  1.0134  1.3052  0.0518
19374TIP3    H279538   0.502   6.269   2.427  1.0319 -0.7510  0.6418
19375TIP3   OH279539   5.227   1.131   1.836 -0.2441 -0.4243  0.2189
19375TIP3    H179540   5.176   1.080   1.899 -1.1436 -0.0788 -0.2155
19375TIP3    H279541   5.192   1.106   1.751  1.9476 -2.0003 -0.3025
19376TIP3   OH279542   1.912   0.632   6.251 -0.2983 -0.2194 -0.4973
19376TIP3    H179543   1.926   0.727   6.252  1.6271 -0.3342  3.8044
19376TIP3    H279544   1.818   0.621   6.262 -0.2335  1.3943  2.7954
19377TIP3   OH279545   1.884   5.117   1.695  0.6375  0.1267 -0.0275
19377TIP3    H179546   1.943   5.078   1.630  0.7323  1.2601 -0.6436
19377TIP3    H279547   1.893   5.061   1.772  2.1438 -0.0098 -0.2768
19378TIP3   OH279548   3.066   5.741   5.184 -0.3552 -0.5019 -0.1432
19378TIP3    H179549   3.040   5.830   5.156  1.8705  0.6388  1.1508
19378TIP3    H279550   3.065   5.745   5.279  0.4561 -1.6514 -0.0752
19379TIP3   OH279551   0.574   0.289  12.325 -0.8762 -0.4513 -0.8557
19379TIP3    H179552   0.609   0.255  12.242  0.6940 -0.8890 -0.0588
19379TIP3    H279553   0.548   0.379  12.306  3.0463  0.8406 -1.0168
19380TIP3   OH279554   0.507   0.845  15.429 -0.1348  0.1119  0.5369
19380TIP3    H179555   0.417   0.825  15.454 -0.2016  1.0643  1.1292
19380TIP3    H279556   0.542   0.762  15.397 -1.4964 -0.0778 -0.5813
19381TIP3   OH279557   5.624   0.005  14.058  0.2272  0.0407  0.6731
19381TIP3    H179558   5.613  -0.073  14.004  0.4632 -1.5086  2.7333
19381TIP3    H279559   5.689   0.058  14.011 -0.7958 -0.4035 -1.3502
19382TIP3   OH279560   3.349   4.984  11.930  1.1519 -0.6064 -0.5689
19382TIP3    H179561   3.369   5.058  11.988 -0.2200  0.2105 -1.0750
19382TIP3    H279562   3.431   4.936  11.922  1.6047 -0.2098  1.2947
19383TIP3   OH279563   0.525   0.342  16.977 -0.2150 -0.1818  0.4446
19383TIP3    H179564   0.464   0.356  17.049 -0.9165 -3.7356  0.6959
19383TIP3    H279565   0.569   0.260  16.998  2.3587  0.6208 -1.3482
19384TIP3   OH279566   2.552   6.760   6.321  0.0972  0.7402 -0.2180
19384TIP3    H179567   2.472   6.724   6.360  2.1137 -1.5838  2.0860
19384TIP3    H279568   2.524   6.844   6.284 -3.5153 -0.2588 -0.1460
19385TIP3   OH279569   1.365   3.696   1.928 -0.6160 -0.0037  0.4131
19385TIP3    H179570   1.321   3.780   1.943 -1.5150 -0.5624  1.0236
19385TIP3    H279571   1.424   3.686   2.003 -0.0318  0.3658  0.0131
19386TIP3   OH279572   2.938   0.189   3.460  0.1070 -0.0194 -0.9780
19386TIP3    H179573   2.945   0.117   3.522 -0.6000  1.2285  0.6347
19386TIP3    H279574   3.022   0.191   3.415  0.4383 -1.3078 -0.4607
19387TIP3   OH279575   1.083   4.555  14.558  0.0143 -0.2969 -0.0010
19387TIP3    H179576   1.148   4.513  14.502  0.3124 -0.1820  0.2572
19387TIP3    H279577   1.133   4.586  14.633 -0.4487 -0.8088  0.5279
19388TIP3   OH279578   2.839   5.779  13.867  0.0249  0.3725 -0.3075
19388TIP3    H179579   2.822   5.872  13.882 -0.0751  0.3055  0.0178
19388TIP3    H279580   2.823   5.766  13.773  0.7144  0.8177 -0.4902
19389TIP3   OH279581   2.631   3.667  17.174  0.3814 -0.1307 -0.0209
19389TIP3    H179582   2.682   3.747  17.188  1.9041 -1.0487 -0.0087
19389TIP3    H279583   2.568   3.665  17.246  1.8474 -0.0541  1.3331
19390TIP3   OH279584   5.361   3.653   5.472  0.0864 -0.2776  0.0471
19390TIP3    H179585   5.360   3.564   5.508  1.2554 -0.8968 -1.3610
19390TIP3    H279586   5.420   3.648   5.396 -2.0853  1.0105 -1.8389
19391TIP3   OH279587   4.037   0.458   1.163  0.4336 -0.0036  0.2946
19391TIP3    H179588   4.113   0.427   1.212  0.0878 -1.5028 -0.0962
19391TIP3    H279589   4.074   0.503   1.087  0.9346 -0.2608  0.3834
19392TIP3   OH279590   0.929   0.286   1.994 -0.4885  0.0927 -0.6332
19392TIP3    H179591   0.841   0.312   2.022 -0.2668 -0.2107  0.4028
19392TIP3    H279592   0.923   0.192   1.978 -0.1268 -0.1211  0.4196
19393TIP3   OH279593   1.201   0.662   2.611  0.5597 -0.0902 -0.0449
19393TIP3    H179594   1.213   0.632   2.520  1.6891  0.3481 -0.0611
19393TIP3    H279595   1.108   0.648   2.629  0.7062 -2.1354 -0.5684
19394TIP3   OH279596   5.836   5.720  14.565  0.7858  0.1351  0.2925
19394TIP3    H179597   5.745   5.694  14.578  0.6573  0.6364  0.3877
19394TIP3    H279598   5.847   5.719  14.470  0.4210  0.9443  0.2313
19395TIP3   OH279599   4.254   1.155   0.847 -0.1793  0.2678 -0.3497
19395TIP3    H179600   4.194   1.217   0.888 -0.1514  1.5711 -2.1475
19395TIP3    H279601   4.325   1.209   0.813  0.4731 -0.8964 -0.9169
19396TIP3   OH279602   3.417   6.577   1.546  0.3585 -0.4244  0.3949
19396TIP3    H179603   3.401   6.671   1.544 -0.2383 -0.4879 -2.8680
19396TIP3    H279604   3.359   6.544   1.614 -2.1984  1.2027 -0.8588
19397TIP3   OH279605   0.371   1.925   0.454  0.3337 -0.3365 -0.1944
19397TIP3    H179606   0.327   1.840   0.463  1.8207 -1.1439 -0.1022
19397TIP3    H279607   0.351   1.972   0.534  0.7107 -1.2192  0.4307
19398TIP3   OH279608   0.366   6.251  13.723 -0.1576 -0.5940  0.4779
19398TIP3    H179609   0.352   6.340  13.754 -0.6429 -0.1616 -0.8954
19398TIP3    H279610   0.442   6.258  13.665  0.7265 -1.3733  1.5037
19399TIP3   OH279611   0.374   5.555  11.022  0.2696  0.2091 -0.1321
19399TIP3    H179612   0.412   5.479  10.978  1.5477  1.5828 -1.5140
19399TIP3    H279613   0.441   5.623  11.013 -1.1137  1.6862  0.4666
19400TIP3   OH279614   1.914   1.912  12.184  0.1303 -0.5735 -0.0677
19400TIP3    H179615   1.823   1.888  12.201 -0.4447  1.1764 -0.5290
19400TIP3    H279616   1.936   1.977  12.250  1.1163 -1.0573  0.1142
19401TIP3   OH279617   5.850   0.222   5.595 -0.4853  0.1168  0.2193
19401TIP3    H179618   5.815   0.135   5.573 -1.0337  0.0802  1.1510
19401TIP3    H279619   5.808   0.281   5.533  0.0576 -0.3033 -0.5630
19402TIP3   OH279620   2.871   5.665  16.787  0.2074  0.6901  0.4111
19402TIP3    H179621   2.879   5.714  16.868  0.7067  3.0737 -0.9772
19402TIP3    H279622   2.786   5.622  16.792  0.0376  1.1736  1.9695
19403TIP3   OH279623   0.536   5.996  13.010  0.5752  0.3923  0.3374
19403TIP3    H179624   0.544   6.043  13.093  0.8351  0.8382  0.0661
19403TIP3    H279625   0.570   6.057  12.945  2.6335 -0.8312  0.1800
19404TIP3   OH279626   2.657   1.952   0.927  0.1035  0.4098  0.3896
19404TIP3    H179627   2.648   2.021   0.993  0.0964  0.8312 -0.0412
19404TIP3    H279628   2.691   1.877   0.975 -0.6122  0.4764  1.0127
19405TIP3   OH279629   4.414   6.637   5.189  0.4698 -0.2734 -0.4096
19405TIP3    H179630   4.487   6.674   5.237  0.5686 -0.8989 -0.0783
19405TIP3    H279631   4.453   6.598   5.111  0.1988  1.7037 -1.6026
19406TIP3   OH279632   1.431   2.457   1.262  0.2828  0.1742  0.0562
19406TIP3    H179633   1.471   2.538   1.234  1.4287 -1.2255 -2.7636
19406TIP3    H279634   1.504   2.395   1.271 -0.7930 -1.3910 -1.2618
19407TIP3   OH279635   5.063   4.518   5.309  0.2311 -0.2593  0.2557
19407TIP3    H179636   5.085   4.611   5.300  0.7477 -0.5424 -1.9317
19407TIP3    H279637   4.999   4.516   5.380 -0.8463  1.9599 -0.5563
19408TIP3   OH279638   4.109   0.285   3.468  0.4212 -0.0896  0.0602
19408TIP3    H179639   4.070   0.198   3.481 -1.3909  0.8157  1.0487
19408TIP3    H279640   4.095   0.304   3.376 -1.4490  0.1476  0.3603
19409TIP3   OH279641   1.074   6.326   4.782 -0.0187 -0.5774  0.4640
19409TIP3    H179642   1.045   6.359   4.867 -0.1679 -1.9254  0.9539
19409TIP3    H279643   1.085   6.232   4.795  2.0652 -0.5053 -0.4131
19410TIP3   OH279644   1.930   3.764   5.024  0.2437 -0.0154  0.2411
19410TIP3    H179645   1.848   3.738   5.067 -0.9360 -0.5131 -2.1888
19410TIP3    H279646   1.914   3.852   4.993  1.0052  0.2541  0.5883
19411TIP3   OH279647   3.067   5.979   4.572  0.2293 -0.1959 -0.5478
19411TIP3    H179648   2.989   6.024   4.605 -0.2191  0.6457 -2.5977
19411TIP3    H279649   3.134   5.994   4.638 -0.6537  1.2447  0.0585
19412TIP3   OH279650   2.620   6.387   0.239 -0.3246 -0.1951 -0.0604
19412TIP3    H179651   2.565   6.387   0.317  0.2303  1.1146  0.3542
19412TIP3    H279652   2.609   6.299   0.202 -0.5357 -0.8662  1.5197
19413TIP3   OH279653   6.101   3.788   0.749  0.2503  0.2601 -0.2443
19413TIP3    H179654   6.101   3.716   0.812  0.0266 -0.4860 -1.0821
19413TIP3    H279655   6.018   3.832   0.763 -0.7702 -1.1964 -1.4418
19414TIP3   OH279656   0.414   6.526  15.191 -0.4839  0.0377 -0.3325
19414TIP3    H179657   0.443   6.467  15.261 -2.0544  0.5589  0.8232
19414TIP3    H279658   0.495   6.568  15.161  0.6480 -2.4552 -1.0202
19415TIP3   OH279659   0.656   1.086   4.199 -0.7527 -0.5993  0.4463
19415TIP3    H179660   0.616   1.113   4.117 -0.4174  1.4830  0.8966
19415TIP3    H279661   0.588   1.038   4.245 -0.7898 -2.2344 -1.2084
19416TIP3   OH279662   4.810   0.089   3.133 -0.0817  0.1435 -0.7387
19416TIP3    H179663   4.834   0.094   3.226  0.6043 -0.4299 -0.8745
19416TIP3    H279664   4.727   0.041   3.133 -0.0481  0.0786 -0.4299
19417TIP3   OH279665   0.176   0.989  14.822  0.3425  0.0541 -0.4536
19417TIP3    H179666   0.124   0.982  14.902 -0.7228 -1.0704 -1.2031
19417TIP3    H279667   0.195   1.083  14.814 -1.4350  0.4964 -0.0339
19418TIP3   OH279668   5.700   1.869   0.268 -0.2481 -0.1740 -0.3776
19418TIP3    H179669   5.750   1.896   0.192  0.3378  2.0458  0.7261
19418TIP3    H279670   5.765   1.833   0.328 -0.4458 -0.2578 -0.2131
19419TIP3   OH279671   6.018   1.409   1.909  0.3114  0.7397 -0.2083
19419TIP3    H179672   5.948   1.474   1.917 -1.3721 -0.7447 -1.9921
19419TIP3    H279673   5.991   1.337   1.965 -0.8934 -0.8392 -2.6698
19420TIP3   OH279674   0.251   0.392   3.235  0.0861  0.4818 -0.3574
19420TIP3    H179675   0.274   0.390   3.328  0.9896  0.7542 -0.5657
19420TIP3    H279676   0.334   0.375   3.190 -0.7771 -2.3428 -1.0744
19421TIP3   OH279677   3.386   6.527   3.289  0.2523 -0.0953  0.4219
19421TIP3    H179678   3.463   6.529   3.346 -1.0020  1.7628  2.1527
19421TIP3    H279679   3.314   6.502   3.346 -0.6318 -0.8244 -0.9622
19422TIP3   OH279680   4.213   6.579   1.600 -0.0059 -0.4286 -0.1894
19422TIP3    H179681   4.177   6.665   1.617  2.2817  0.0881  2.9312
19422TIP3    H279682   4.161   6.519   1.653  1.6936 -0.0809  2.0184
19423TIP3   OH279683   4.906   3.235  15.156  0.0799 -0.4254 -0.5431
19423TIP3    H179684   4.824   3.208  15.197  1.0782 -1.0514  1.1177
19423TIP3    H279685   4.891   3.222  15.062 -1.4258 -1.3325 -0.2120
19424TIP3   OH279686   4.640   3.381  13.378  0.2578 -0.2504 -0.4149
19424TIP3    H179687   4.570   3.399  13.440  1.3491 -1.5860  1.3048
19424TIP3    H279688   4.631   3.448  13.310 -2.3012 -0.0607  0.0386
19425TIP3   OH279689   6.487   0.135  14.248 -0.1740 -0.5041 -0.3069
19425TIP3    H179690   6.558   0.095  14.199  0.4956 -1.1066  1.1054
19425TIP3    H279691   6.514   0.226  14.259 -0.1185 -0.4771 -0.6526
19426TIP3   OH279692   5.155   4.179  16.491 -0.1286  0.0882 -0.2236
19426TIP3    H179693   5.216   4.196  16.562 -0.6110  1.7767 -0.1511
19426TIP3    H279694   5.179   4.093  16.458  0.3568 -0.5787  1.7222
19427TIP3   OH279695   2.858   1.622  15.435 -0.2370  0.4219 -0.9431
19427TIP3    H179696   2.942   1.648  15.396  1.2554 -1.2076  0.9766
19427TIP3    H279697   2.827   1.550  15.380  2.5517 -2.8383  1.3155
19428TIP3   OH279698   2.271   5.112  15.509 -0.2039  0.4467  0.3504
19428TIP3    H179699   2.241   5.104  15.418 -0.7176  0.5264  0.5079
19428TIP3    H279700   2.364   5.133  15.502  0.1954 -1.2670 -0.1449
19429TIP3   OH279701   6.420   3.789   1.079 -0.0747  0.1348  0.5765
19429TIP3    H179702   6.510   3.804   1.048  0.4650  0.4502  2.2008
19429TIP3    H279703   6.372   3.868   1.052 -0.1170 -0.4285 -1.0905
19430TIP3   OH279704   0.982   6.558  16.535 -0.1105  0.2342  0.4632
19430TIP3    H179705   0.947   6.589  16.451 -0.1481  0.0274  0.4016
19430TIP3    H279706   0.906   6.524  16.581 -0.3721  1.7778  1.2365
19431TIP3   OH279707   3.311   3.922  12.015 -0.2660 -0.3820  0.1756
19431TIP3    H179708   3.401   3.916  12.047  0.8796  2.3605 -2.0827
19431TIP3    H279709   3.320   3.960  11.927 -3.5671 -1.4163 -0.7330
19432TIP3   OH279710   5.248   6.318  13.370 -0.2379 -0.3824  0.3883
19432TIP3    H179711   5.212   6.251  13.428 -0.7995 -0.8936 -0.5208
19432TIP3    H279712   5.342   6.316  13.387 -0.2087 -1.5968  0.1985
19433TIP3   OH279713   3.791   5.196   2.420  0.1073 -0.0827 -0.0021
19433TIP3    H179714   3.750   5.114   2.450 -1.3215 -0.0131 -1.5767
19433TIP3    H279715   3.757   5.263   2.479  0.4878 -0.4823  0.6770
19434TIP3   OH279716   2.831   4.273  12.139  0.1709  0.0478  0.1328
19434TIP3    H179717   2.923   4.277  12.165  0.3051  1.0678 -0.4318
19434TIP3    H279718   2.825   4.196  12.083  0.3144 -0.9859  1.4987
19435TIP3   OH279719   2.539   2.709  16.162  0.1496  0.4097 -0.7397
19435TIP3    H179720   2.529   2.804  16.159 -0.0312  0.4471  0.3574
19435TIP3    H279721   2.594   2.694  16.239 -2.6738 -0.5300  1.2880
19436TIP3   OH279722   0.182   0.023   2.924 -0.5258 -0.3956 -0.1221
19436TIP3    H179723   0.205   0.094   2.984 -1.1031 -0.9588  0.7860
19436TIP3    H279724   0.117   0.062   2.865  0.0003  0.1449 -0.3587
19437TIP3   OH279725   1.073   1.146  16.972 -0.1040  0.6978  0.2297
19437TIP3    H179726   1.117   1.152  16.887 -2.7619 -1.0198 -1.4183
19437TIP3    H279727   1.050   1.237  16.993  0.8084  1.1801 -0.7436
19438TIP3   OH279728   0.855   0.041   0.620 -0.0529  0.7034 -0.0094
19438TIP3    H179729   0.844   0.067   0.712  2.1732  1.3379  0.1518
19438TIP3    H279730   0.846  -0.054   0.620  1.4044  0.5166  1.1910
19439TIP3   OH279731   1.681   3.933  13.304  0.9597  0.0848 -0.3207
19439TIP3    H179732   1.735   3.904  13.230  1.0500 -0.0255 -0.2122
19439TIP3    H279733   1.671   3.855  13.359  2.2892  0.5679  0.6495
19440TIP3   OH279734   6.717   1.783   3.702 -0.3008 -0.0694 -0.3658
19440TIP3    H179735   6.780   1.838   3.747 -0.6342 -0.2641  0.3534
19440TIP3    H279736   6.742   1.788   3.610  2.0585 -1.7696  0.0838
19441TIP3   OH279737   3.506   1.612  10.365 -0.2258 -0.0088  0.5249
19441TIP3    H179738   3.534   1.637  10.277 -0.6116 -0.5154  0.2541
19441TIP3    H279739   3.537   1.683  10.421  0.1398  0.2512 -0.0002
19442TIP3   OH279740   1.804   4.316  16.756 -0.1469 -1.1220 -0.1186
19442TIP3    H179741   1.837   4.234  16.793 -0.1631 -1.1048 -0.0668
19442TIP3    H279742   1.868   4.382  16.782 -0.2058 -1.0941 -0.0429
19443TIP3   OH279743   3.188   2.909  13.642 -0.9686  0.0446 -0.0255
19443TIP3    H179744   3.243   2.855  13.699 -1.2252  1.9243  2.1986
19443TIP3    H279745   3.246   2.938  13.572  0.7688  1.2846  1.8033
19444TIP3   OH279746   1.677   4.592   1.405  0.2628  0.0132 -0.2045
19444TIP3    H179747   1.723   4.635   1.333  1.6080  0.1084  0.6763
19444TIP3    H279748   1.690   4.498   1.390  0.8397  0.0419  0.0903
19445TIP3   OH279749   3.823   4.146   3.928  0.0026 -0.0880  0.2432
19445TIP3    H179750   3.869   4.185   3.854 -1.0924 -0.2634 -0.5487
19445TIP3    H279751   3.830   4.052   3.913  0.7520 -0.1682  0.9908
19446TIP3   OH279752   0.568   1.913   5.375 -0.0863 -0.0439 -0.1759
19446TIP3    H179753   0.474   1.921   5.391  0.1715 -0.1701  1.6437
19446TIP3    H279754   0.575   1.902   5.280 -1.8050  1.1425 -0.4887
19447TIP3   OH279755   5.791   6.544   1.243  0.2403  0.5496  0.4349
19447TIP3    H179756   5.789   6.467   1.186  3.1192 -0.3657  1.4158
19447TIP3    H279757   5.764   6.510   1.329  1.3968  0.6296  0.8414
19448TIP3   OH279758   1.003   2.976  13.651 -0.4649  0.1601  0.0572
19448TIP3    H179759   0.994   3.068  13.675  0.9323 -0.0601  1.6217
19448TIP3    H279760   0.953   2.928  13.717 -0.9297 -0.2270 -0.5627
19449TIP3   OH279761   0.350   1.510  14.476  0.4640  0.2944  0.3214
19449TIP3    H179762   0.294   1.522  14.399  2.0696  0.2741 -0.9182
19449TIP3    H279763   0.313   1.568  14.542  0.0593  1.6794 -1.0448
19450TIP3   OH279764   3.121   0.037   4.386  0.4182 -0.1190  0.7043
19450TIP3    H179765   3.212   0.032   4.416 -0.4181 -2.6339  3.2748
19450TIP3    H279766   3.070   0.046   4.467 -1.6824  1.0093 -0.6558
19451TIP3   OH279767   6.573   2.557   5.711 -0.3803  0.1677 -0.3381
19451TIP3    H179768   6.499   2.615   5.726  0.3801  1.6838 -2.1489
19451TIP3    H279769   6.565   2.530   5.620  0.4401 -0.9303 -0.1086
19452TIP3   OH279770   0.897   4.060   5.034  0.0816  0.0591  0.0615
19452TIP3    H179771   0.959   3.996   4.999  0.7305  1.0398 -0.6088
19452TIP3    H279772   0.904   4.051   5.129  3.1804  1.8859  0.1379
19453TIP3   OH279773   6.647   5.457   4.405  0.2251 -0.0695 -0.0887
19453TIP3    H179774   6.555   5.469   4.427 -0.0073  1.4871 -1.6920
19453TIP3    H279775   6.659   5.362   4.404 -0.4437 -0.3379  3.4521
19454TIP3   OH279776   0.037   2.120  15.179 -0.8319  0.2217 -0.0955
19454TIP3    H179777  -0.050   2.094  15.207 -0.7858 -2.4566 -2.0752
19454TIP3    H279778   0.026   2.149  15.089  0.1723  1.1370  0.0451
19455TIP3   OH279779   2.902   4.465   5.312  0.2891 -0.2743  0.4514
19455TIP3    H179780   2.923   4.409   5.388 -3.5740 -0.6990  1.4486
19455TIP3    H279781   2.820   4.508   5.337  0.1342  1.4422 -2.5997
19456TIP3   OH279782   6.278   1.138  16.601  0.5404 -0.1785  0.4104
19456TIP3    H179783   6.357   1.097  16.637 -0.3308 -0.8483  1.6456
19456TIP3    H279784   6.284   1.229  16.630  0.1370 -0.5777  1.8243
19457TIP3   OH279785   2.747   1.572   0.559  0.3504 -0.1071 -0.0270
19457TIP3    H179786   2.660   1.611   0.567  0.5722  0.4130 -0.1017
19457TIP3    H279787   2.806   1.647   0.557  0.7172 -0.4117 -1.0754
19458TIP3   OH279788   5.176   6.744   1.390  0.2398  0.3728 -0.6130
19458TIP3    H179789   5.246   6.707   1.443  1.5534  0.8131 -1.9852
19458TIP3    H279790   5.131   6.805   1.449  1.1732  0.2925  0.2092
19459TIP3   OH279791   0.685   3.782   3.571  0.5276  0.3752  0.0998
19459TIP3    H179792   0.649   3.741   3.492  2.0135  1.9059 -1.4686
19459TIP3    H279793   0.608   3.816   3.617 -0.3154  0.2618 -1.1662
19460TIP3   OH279794   1.779   2.272   4.937 -0.2820  0.4064  0.3033
19460TIP3    H179795   1.710   2.217   4.974 -1.1904  1.8025  0.7398
19460TIP3    H279796   1.860   2.237   4.974 -0.8879 -0.2982  1.0003
19461TIP3   OH279797   0.897   4.225   3.264  0.5178  0.3323  0.4780
19461TIP3    H179798   0.843   4.219   3.343 -1.3621 -0.2715 -0.7695
19461TIP3    H279799   0.856   4.294   3.212  1.0868  0.0338 -0.3899
19462TIP3   OH279800   1.774   5.862   3.292 -0.2250 -0.0612  0.6364
19462TIP3    H179801   1.694   5.812   3.274 -0.5841  0.7892 -0.2187
19462TIP3    H279802   1.753   5.914   3.370 -0.0345 -0.8333  1.2087
19463TIP3   OH279803   5.131   6.299  15.811 -0.1247 -0.2314  0.1491
19463TIP3    H179804   5.054   6.321  15.758 -0.9103  0.0118  1.3474
19463TIP3    H279805   5.097   6.241  15.879  0.8627 -0.5393  0.3855
19464TIP3   OH279806   5.463   2.858  11.914  0.0893  0.5343  0.0346
19464TIP3    H179807   5.380   2.815  11.934 -0.5146  1.0302 -1.2865
19464TIP3    H279808   5.453   2.887  11.824  1.1266  1.9634  0.3565
19465TIP3   OH279809   3.815   0.702   3.942  0.1353  0.5634  0.1110
19465TIP3    H179810   3.810   0.682   3.848  1.0764  2.1436 -0.3131
19465TIP3    H279811   3.889   0.650   3.973  0.5066  0.8599 -0.2641
19466TIP3   OH279812   1.945   1.389   5.496 -0.5780  0.2136 -0.5337
19466TIP3    H179813   1.877   1.455   5.482  0.9526  1.8419 -0.5996
19466TIP3    H279814   1.950   1.379   5.591 -0.7094  0.3106 -0.5173
19467TIP3   OH279815   2.066   0.120   1.260  0.4633  0.6073  0.2334
19467TIP3    H179816   2.053   0.043   1.315 -1.2113 -0.3587 -1.4144
19467TIP3    H279817   2.104   0.086   1.178 -0.4646  1.4829 -0.5865
19468TIP3   OH279818   4.703   6.304  17.110 -0.4937  0.2762 -0.4091
19468TIP3    H179819   4.787   6.258  17.104  0.0890  0.8613  2.0680
19468TIP3    H279820   4.656   6.279  17.031  1.9200 -0.2403 -1.7802
19469TIP3   OH279821   0.951   0.181   0.184  0.2455 -0.2558  0.7494
19469TIP3    H179822   0.868   0.155   0.145  0.5129  0.2619 -0.2007
19469TIP3    H279823   0.928   0.218   0.269 -0.4132 -0.8616  0.8357
19470TIP3   OH279824   0.483   4.879  16.468  0.0656  0.0934  0.2283
19470TIP3    H179825   0.473   4.964  16.509 -0.9069  0.4382 -0.6762
19470TIP3    H279826   0.465   4.816  16.538  0.4376  0.6377  0.8142
19471TIP3   OH279827   1.086   1.721   0.412  0.5808 -0.4433  0.6173
19471TIP3    H179828   1.063   1.643   0.462 -0.5784  0.3405  1.3438
19471TIP3    H279829   1.172   1.747   0.445  0.4176 -0.7018  1.2580
19472TIP3   OH279830   6.335   2.315   5.261  0.1769  0.2421 -0.3218
19472TIP3    H179831   6.389   2.392   5.281  1.9704 -0.7034 -1.2789
19472TIP3    H279832   6.296   2.336   5.176 -2.1050  1.4555  0.9166
19473TIP3   OH279833   6.627   1.805  12.850 -0.1759  0.0962  0.0512
19473TIP3    H179834   6.671   1.760  12.921 -2.2743 -1.1225  0.6562
19473TIP3    H279835   6.637   1.747  12.774  1.1281  0.8826 -0.4060
19474TIP3   OH279836   0.191   1.608   0.144  0.4648 -0.1728 -0.4879
19474TIP3    H179837   0.132   1.599   0.069 -1.4269 -1.4055  1.0614
19474TIP3    H279838   0.155   1.549   0.211  2.8729 -0.1898  0.9328
19475TIP3   OH279839   4.618   5.094   0.996  0.7542  0.0184  0.5372
19475TIP3    H179840   4.542   5.044   0.967 -2.0014  2.1911  3.2185
19475TIP3    H279841   4.682   5.029   1.023 -0.6485 -1.9509 -0.6912
19476TIP3   OH279842   0.044   3.563   5.741  0.0500 -0.8568 -0.1022
19476TIP3    H179843   0.023   3.472   5.721 -2.5356 -0.9507  2.4245
19476TIP3    H279844   0.034   3.570   5.836  2.6045  1.5552  0.1454
19477TIP3   OH279845   2.994   2.711   2.259  0.2160  0.3223  0.1677
19477TIP3    H179846   3.053   2.672   2.324  2.4760  1.4076 -1.1170
19477TIP3    H279847   2.938   2.770   2.310  0.7151 -0.1886  1.3548
19478TIP3   OH279848   0.513   3.045  12.430  0.4722 -0.0686 -0.2594
19478TIP3    H179849   0.450   3.060  12.501  0.0163 -1.6610 -0.2834
19478TIP3    H279850   0.461   3.005  12.361  1.3962 -0.9024 -0.4932
19479TIP3   OH279851   5.954   3.774  15.271  0.3200  0.4065 -0.0556
19479TIP3    H179852   5.879   3.736  15.318 -1.2025  2.9652 -0.2288
19479TIP3    H279853   6.029   3.722  15.299 -0.9120  0.1931  3.2198
19480TIP3   OH279854   5.627   5.898  16.489  0.6570  0.1433 -0.2367
19480TIP3    H179855   5.649   5.823  16.544  3.4550  0.3436 -0.9255
19480TIP3    H279856   5.648   5.870  16.400  1.8929  1.7528 -0.4939
19481TIP3   OH279857   1.594   4.375   1.827 -0.5899  0.6753  0.1500
19481TIP3    H179858   1.593   4.447   1.764 -0.5077  0.0803 -0.5465
19481TIP3    H279859   1.539   4.405   1.898 -0.9644  1.2300 -0.3620
19482TIP3   OH279860   0.133   0.302  14.394  0.2957  0.2619  0.2504
19482TIP3    H179861   0.049   0.328  14.357 -1.2097 -3.9893  0.0844
19482TIP3    H279862   0.189   0.287  14.318  0.4956  0.9606  0.2529
19483TIP3   OH279863   4.374   4.835   5.185  0.0038 -0.0068 -0.9039
19483TIP3    H179864   4.445   4.783   5.148 -0.9478 -0.9107 -1.5365
19483TIP3    H279865   4.387   4.830   5.280  0.6210 -0.3865 -1.0038
19484TIP3   OH279866   0.918   1.537   2.358  0.1079  0.1784 -0.2678
19484TIP3    H179867   0.908   1.614   2.303  1.5342  0.7417  0.2206
19484TIP3    H279868   0.878   1.562   2.442 -1.3615 -0.4014 -0.7726
19485TIP3   OH279869   0.762   2.947   5.970 -0.0312  0.0946 -0.0383
19485TIP3    H179870   0.847   2.904   5.971 -0.1813 -0.2106 -0.5292
19485TIP3    H279871   0.698   2.877   5.985 -0.2651  0.1586 -0.6938
19486TIP3   OH279872   6.120   3.685  14.430  0.2959 -0.1813 -0.1926
19486TIP3    H179873   6.106   3.595  14.400  1.9639 -0.5546  0.0632
19486TIP3    H279874   6.040   3.706  14.478  1.1874 -2.8429  2.8445
19487TIP3   OH279875   5.078   6.306   4.985 -0.6129  0.0125 -0.1028
19487TIP3    H179876   5.135   6.380   5.007 -0.8528  0.5263 -1.1506
19487TIP3    H279877   5.133   6.247   4.934 -1.1033  0.7523 -1.5636
19488TIP3   OH279878   2.765   2.185   1.922  0.4530 -0.2785 -0.1306
19488TIP3    H179879   2.760   2.270   1.877 -3.1160 -0.5653 -0.5405
19488TIP3    H279880   2.859   2.168   1.930  1.2970  3.2745 -0.8089
19489TIP3   OH279881   6.729   0.148  13.050 -0.4361  0.1862  0.3345
19489TIP3    H179882   6.656   0.107  13.004 -0.3763  1.2958 -0.8293
19489TIP3    H279883   6.804   0.092  13.030 -0.1009  1.4303 -2.2885
19490TIP3   OH279884   0.018   1.501   3.449  0.3012 -0.2914  0.5580
19490TIP3    H179885   0.074   1.480   3.523  0.1627 -0.8097  0.5252
19490TIP3    H279886   0.078   1.519   3.377  0.4493  0.9198  0.9678
19491TIP3   OH279887   4.279   2.766  11.353  0.4825  0.1470 -0.1896
19491TIP3    H179888   4.342   2.834  11.375  1.2119 -0.7328  0.5162
19491TIP3    H279889   4.260   2.723  11.436 -1.5209  0.7577 -0.2871
19492TIP3   OH279890   2.213   5.437  11.780 -0.3858  0.0377  0.0742
19492TIP3    H179891   2.222   5.522  11.736 -0.8536  0.2523  0.3820
19492TIP3    H279892   2.280   5.437  11.847 -1.1075  0.6452  0.8191
19493TIP3   OH279893   1.612   4.099   1.716 -0.0300 -0.0781 -0.3958
19493TIP3    H179894   1.625   4.193   1.732 -1.9997 -0.1592  2.4691
19493TIP3    H279895   1.697   4.059   1.735  0.2825  0.9589  0.5121
19494TIP3   OH279896   2.421   5.179  16.179  0.3750  0.1424 -0.3743
19494TIP3    H179897   2.442   5.102  16.126  0.0296  0.2610 -0.6858
19494TIP3    H279898   2.331   5.200  16.156 -0.3642 -0.7871  1.4686
19495TIP3   OH279899   2.100   5.536  16.909 -0.2881  0.2951  0.0106
19495TIP3    H179900   2.039   5.591  16.958  1.9288  2.1270  0.8918
19495TIP3    H279901   2.121   5.587  16.831  0.7479  0.1350  0.1638
19496TIP3   OH279902   2.041   5.617   4.585  0.7289 -0.4889  0.8622
19496TIP3    H179903   2.093   5.677   4.533 -1.1762 -0.5003 -1.2037
19496TIP3    H279904   2.025   5.664   4.667 -0.7800  1.9599 -0.7027
19497TIP3   OH279905   6.253   4.872   3.340  0.6637  0.3875  0.1700
19497TIP3    H179906   6.274   4.783   3.370  1.2607  0.6786  0.6208
19497TIP3    H279907   6.325   4.926   3.371  1.2716  0.7236 -1.7112
19498TIP3   OH279908   5.977   0.574  14.793 -0.1606 -0.4946  0.4898
19498TIP3    H179909   6.070   0.561  14.776 -0.3409 -0.7107 -0.3659
19498TIP3    H279910   5.936   0.492  14.765 -1.1322  1.0900 -3.3481
19499TIP3   OH279911   4.997   5.132  14.343 -0.4545 -0.0711 -0.0869
19499TIP3    H179912   4.968   5.042  14.356 -1.5338  0.1509 -0.7705
19499TIP3    H279913   4.920   5.185  14.365  0.3822  0.7356  0.9857
19500TIP3   OH279914   1.900   3.610  11.769 -0.1811 -0.0529 -0.7837
19500TIP3    H179915   1.882   3.696  11.730 -1.7051  2.1583  4.0111
19500TIP3    H279916   1.958   3.629  11.843  2.8321 -3.9013 -1.8645
19501TIP3   OH279917   0.939   3.640   1.572 -0.0067 -0.2335  0.0174
19501TIP3    H179918   1.023   3.611   1.608  0.3926  0.5024 -0.3157
19501TIP3    H279919   0.944   3.736   1.572 -1.0519 -0.1637  0.4862
19502TIP3   OH279920   3.122   5.020   3.233 -0.3243 -0.4626  0.2832
19502TIP3    H179921   3.168   5.010   3.150 -0.9914 -2.0177  0.0749
19502TIP3    H279922   3.192   5.023   3.299  0.2377  1.3666 -0.3406
19503TIP3   OH279923   5.255   2.619   6.392  1.0768  0.1260 -0.1367
19503TIP3    H179924   5.278   2.544   6.448 -0.0515 -0.9892 -1.0903
19503TIP3    H279925   5.325   2.682   6.406 -0.2145  0.9446  4.3279
19504TIP3   OH279926   1.468   6.706   0.630 -0.4947 -0.5482 -0.2744
19504TIP3    H179927   1.464   6.693   0.535  0.0315  0.2339 -0.4193
19504TIP3    H279928   1.509   6.627   0.664  0.7802 -0.1664 -0.8789
19505TIP3   OH279929   1.654   0.158  15.980  0.7748  0.0112  0.7703
19505TIP3    H179930   1.715   0.231  15.970  1.1386 -0.5471 -2.4582
19505TIP3    H279931   1.570   0.199  16.000  1.3939  1.1299  1.1494
19506TIP3   OH279932   5.151   4.745  11.740 -0.6278 -0.1110 -0.1115
19506TIP3    H179933   5.170   4.831  11.702  0.9456 -0.2639  0.2673
19506TIP3    H279934   5.078   4.711  11.688  0.1143  0.5595 -1.6404
19507TIP3   OH279935   1.045   3.069   2.171 -0.3197  0.6411 -0.0876
19507TIP3    H179936   1.075   2.978   2.176  0.7382  0.9855  0.0851
19507TIP3    H279937   1.029   3.084   2.078  0.4474  0.5567 -0.2436
19508TIP3   OH279938   3.463   2.367  13.974 -0.0400 -0.4321  0.3086
19508TIP3    H179939   3.532   2.301  13.974  0.4658  0.0385 -1.4894
19508TIP3    H279940   3.383   2.319  13.995  0.5973 -1.2459  0.9485
19509TIP3   OH279941   5.092   2.310  15.879  0.2024  0.2178 -0.0279
19509TIP3    H179942   5.095   2.394  15.924  1.2420 -0.2572  0.8155
19509TIP3    H279943   5.001   2.303  15.848 -0.1442  1.2094  0.7123
19510TIP3   OH279944   1.624   5.147   3.576 -0.0212 -0.3647 -0.1681
19510TIP3    H179945   1.700   5.096   3.602  0.1920 -0.4733 -0.9748
19510TIP3    H279946   1.560   5.081   3.547  0.0092 -0.2095 -0.5905
19511TIP3   OH279947   0.963   6.648  14.087  0.0731 -0.1365  0.2513
19511TIP3    H179948   1.009   6.653  14.171  0.8251 -0.4615 -0.1365
19511TIP3    H279949   0.953   6.555  14.070  1.2366 -0.1127 -0.7173
19512TIP3   OH279950   5.399   6.590  13.481  0.3475 -0.2890  0.6357
19512TIP3    H179951   5.409   6.680  13.451  0.2128 -0.9180 -1.4124
19512TIP3    H279952   5.398   6.597  13.577  0.2616  1.8776  0.5250
19513TIP3   OH279953   3.385   2.818  17.111 -0.2189 -0.4525 -0.4782
19513TIP3    H179954   3.461   2.858  17.154 -0.5706 -0.4927  0.1939
19513TIP3    H279955   3.415   2.730  17.087  0.1283 -0.2648 -0.7425
19514TIP3   OH279956   2.676   4.718   4.054  0.2570  0.8200 -0.1416
19514TIP3    H179957   2.634   4.656   4.114  2.9555 -0.7630  0.2733
19514TIP3    H279958   2.698   4.793   4.109 -2.2961  1.9319 -0.4765
19515TIP3   OH279959   5.440   1.095  11.137 -0.3996  0.0201  0.2722
19515TIP3    H179960   5.347   1.084  11.159 -0.7982  1.1323 -0.7501
19515TIP3    H279961   5.473   1.006  11.127 -2.4000 -0.5053 -3.4506
19516TIP3   OH279962   6.467   1.485  12.213  0.1084 -0.3866  0.0470
19516TIP3    H179963   6.407   1.502  12.140 -1.5992  0.6925  1.6148
19516TIP3    H279964   6.491   1.393  12.202  1.9213  0.3115 -3.2254
19517TIP3   OH279965   4.926   1.013   3.067 -0.5012  0.0917 -0.0609
19517TIP3    H179966   4.937   1.030   3.161  0.9818  1.4124 -0.4237
19517TIP3    H279967   4.940   0.919   3.058  0.8576  0.1733  0.8821
19518TIP3   OH279968   2.690   2.827  12.504  0.2460 -1.1278 -0.0538
19518TIP3    H179969   2.625   2.833  12.574  0.5506  0.8461  0.1144
19518TIP3    H279970   2.754   2.763  12.536 -0.0941 -0.9416  1.0488
19519TIP3   OH279971   3.510   3.965   3.274 -0.0856  0.5855 -0.1567
19519TIP3    H179972   3.481   3.935   3.188 -1.0966  0.8822  0.0636
19519TIP3    H279973   3.545   3.887   3.316 -2.2937 -0.2669  0.2527
19520TIP3   OH279974   4.768   2.095  13.413  0.3142 -0.1910 -0.0487
19520TIP3    H179975   4.821   2.135  13.481  0.6712  0.7382 -0.8477
19520TIP3    H279976   4.677   2.110  13.441  0.4364 -1.9766  1.4258
19521TIP3   OH279977   1.778   2.129  10.376  0.4066 -0.0647 -0.0565
19521TIP3    H179978   1.845   2.061  10.382  1.9026  1.4051  0.7841
19521TIP3    H279979   1.705   2.087  10.331  1.4703 -2.0525 -0.0360
19522TIP3   OH279980   3.809   1.756   0.005  0.0778  0.2517 -0.4429
19522TIP3    H179981   3.854   1.721  -0.072  0.1172  1.0978 -0.8160
19522TIP3    H279982   3.813   1.685   0.069  0.0183 -0.4849 -1.2255
19523TIP3   OH279983   3.058   2.300   0.294  0.2367  0.3031  1.3405
19523TIP3    H179984   3.042   2.392   0.314  0.4118  0.7220 -0.3234
19523TIP3    H279985   2.973   2.258   0.300 -0.6163  1.3479 -1.5580
19524TIP3   OH279986   3.642   2.434  13.783  0.0512  0.3570 -0.1179
19524TIP3    H179987   3.581   2.420  13.855  1.6263 -1.0133  1.0162
19524TIP3    H279988   3.690   2.514  13.807 -0.9712  1.2018 -0.8100
19525TIP3   OH279989   6.556   0.432  13.833 -0.1427  0.7128 -0.0889
19525TIP3    H179990   6.522   0.454  13.746 -0.5012 -1.8334 -0.7031
19525TIP3    H279991   6.566   0.336  13.830  1.1910  0.7223  2.2109
19526TIP3   OH279992   0.125   3.215  16.966 -0.4842 -0.2017 -0.1839
19526TIP3    H179993   0.047   3.164  16.945  0.7897 -2.2406 -0.2721
19526TIP3    H279994   0.099   3.306  16.952 -2.5895 -0.8670 -0.9721
19527TIP3   OH279995   0.081   0.329   6.056  0.3177  0.1250 -0.5101
19527TIP3    H179996   0.085   0.409   6.004 -0.3374 -0.3489 -1.3034
19527TIP3    H279997   0.002   0.339   6.110  1.0011  0.6213  0.4297
19528TIP3   OH279998   5.262   3.812   2.379 -0.0753 -0.6590  0.2012
19528TIP3    H179999   5.245   3.856   2.462  0.6961  0.3121 -0.1358
19528TIP3    H280000   5.356   3.822   2.365 -0.2331 -0.5877 -0.9086
19529TIP3   OH280001   6.536   3.775   0.303 -0.2556 -0.6205  0.2281
19529TIP3    H180002   6.572   3.745   0.220 -0.0531 -0.1160  0.1332
19529TIP3    H280003   6.585   3.726   0.370 -0.3826 -0.9847  0.0568
19530TIP3   OH280004   4.988   3.033  14.685 -0.2026 -0.0101  0.3812
19530TIP3    H180005   5.076   3.019  14.648 -0.3449  0.9206 -0.3393
19530TIP3    H280006   4.970   3.126  14.671 -0.9776 -0.0092  1.2695
19531TIP3   OH280007   4.788   6.569   1.489 -0.5231 -0.3214 -0.4791
19531TIP3    H180008   4.696   6.572   1.517 -0.3013 -0.6958  0.3263
19531TIP3    H280009   4.790   6.619   1.408 -1.3702  0.0212 -0.3009
19532TIP3   OH280010   6.321   1.306   2.767  0.1728  0.1576  0.7844
19532TIP3    H180011   6.249   1.362   2.797  1.1185  1.9526 -0.1266
19532TIP3    H280012   6.385   1.310   2.838  0.5013  0.7465  0.4593
19533TIP3   OH280013   0.183   5.164  16.679  0.2163 -0.2368  0.4464
19533TIP3    H180014   0.186   5.166  16.584 -1.0815 -0.1082  0.3963
19533TIP3    H280015   0.127   5.089  16.700 -0.4568  0.4267  1.0712
19534TIP3   OH280016   4.271   2.045  15.013 -0.4044  0.2967  0.0599
19534TIP3    H180017   4.178   2.054  15.033 -0.4043  2.7511 -0.7862
19534TIP3    H280018   4.305   2.134  15.015  1.3995 -0.2514 -2.1335
19535TIP3   OH280019   0.125   6.530   0.416  0.4095  0.3279 -0.3546
19535TIP3    H180020   0.096   6.485   0.336 -1.2360 -2.1932  1.4966
19535TIP3    H280021   0.048   6.530   0.472  1.9903  0.3070  1.9381
19536TIP3   OH280022   1.721   3.733   5.217  0.1198 -0.1615 -0.2315
19536TIP3    H180023   1.666   3.654   5.219 -0.1470  0.0336  0.3805
19536TIP3    H280024   1.658   3.805   5.218  0.3472  0.0757 -1.1957
19537TIP3   OH280025   2.002   2.087  12.685  0.0420  0.8368  0.4380
19537TIP3    H180026   1.932   2.111  12.623  0.6854 -2.2946 -1.7574
19537TIP3    H280027   2.082   2.120  12.644  0.2939  0.4482  0.6214
19538TIP3   OH280028   2.417   0.928  16.965  0.8594  0.4976  0.6943
19538TIP3    H180029   2.355   0.887  16.904  1.1521  0.9248  0.1001
19538TIP3    H280030   2.440   0.858  17.026 -1.1633  0.6442  1.7107
19539TIP3   OH280031   6.728   3.986  15.152 -0.2135 -0.3098  0.3250
19539TIP3    H180032   6.699   4.072  15.123  1.5105  0.3948  0.5632
19539TIP3    H280033   6.653   3.929  15.137 -0.8833  0.9100 -1.2984
19540TIP3   OH280034   4.249   2.780   3.870  0.1959 -0.4570 -0.6886
19540TIP3    H180035   4.336   2.747   3.848  0.6288  0.8094 -0.9439
19540TIP3    H280036   4.257   2.875   3.866 -0.9812 -0.2947  0.1446
19541TIP3   OH280037   2.267   2.368  14.920  0.6391 -0.3058 -0.5275
19541TIP3    H180038   2.327   2.443  14.922 -0.1770  0.3387  0.3700
19541TIP3    H280039   2.182   2.406  14.898  0.2813 -1.0291 -0.4264
19542TIP3   OH280040   2.176   3.023  13.426  0.0614  0.0041 -0.2286
19542TIP3    H180041   2.102   3.071  13.389  1.7846  1.0981 -2.5689
19542TIP3    H280042   2.166   2.934  13.392  0.6639  0.5690 -2.0064
19543TIP3   OH280043   2.462   4.680   1.371  0.1834 -0.0688  0.0952
19543TIP3    H180044   2.411   4.735   1.312  1.5655 -1.2833 -2.4237
19543TIP3    H280045   2.409   4.601   1.384  0.3333 -0.2751 -0.4970
19544TIP3   OH280046   6.315   0.255   3.281  0.2650  0.3459  0.5498
19544TIP3    H180047   6.351   0.298   3.358 -1.2472  0.4400  1.2347
19544TIP3    H280048   6.254   0.319   3.244 -2.1366 -1.1648  1.6667
19545TIP3   OH280049   0.695   1.190  16.393 -0.3671 -0.1231 -0.3697
19545TIP3    H180050   0.664   1.111  16.349 -1.2760 -0.3038  0.5541
19545TIP3    H280051   0.728   1.159  16.477 -1.0345  0.5124  0.1331
19546TIP3   OH280052   2.994   1.372   2.868  0.2097 -0.1829  0.7326
19546TIP3    H180053   2.912   1.327   2.848  0.3074  0.5814 -1.6525
19546TIP3    H280054   3.062   1.312   2.836  0.3932  0.8892 -0.9836
19547TIP3   OH280055   4.433   4.085  16.205 -0.0081 -0.0914 -0.0099
19547TIP3    H180056   4.526   4.082  16.230  0.9544  2.8940 -2.5419
19547TIP3    H280057   4.426   4.025  16.131  0.7371  1.7417 -1.6777
19548TIP3   OH280058   0.541   0.492   6.691  0.1206 -0.1162  0.0094
19548TIP3    H180059   0.478   0.427   6.720  1.0809 -0.1343  2.2676
19548TIP3    H280060   0.496   0.576   6.705 -0.4612 -0.1867 -1.2463
19549TIP3   OH280061   1.675   2.926  12.542 -0.2061  0.4810 -0.3045
19549TIP3    H180062   1.638   3.008  12.576  2.0921  0.9983  1.1657
19549TIP3    H280063   1.616   2.858  12.575  0.0986  1.2521  2.0023
19550TIP3   OH280064   5.031   2.662   4.192 -0.3646 -0.2677 -0.5062
19550TIP3    H180065   5.077   2.670   4.275  0.2170 -0.1958 -0.8299
19550TIP3    H280066   5.019   2.568   4.180  1.7725 -0.4784 -1.5139
19551TIP3   OH280067   4.624   1.577  12.423  0.0650  0.4703 -0.0644
19551TIP3    H180068   4.600   1.533  12.341  0.6886  0.4497 -0.2406
19551TIP3    H280069   4.613   1.670  12.404  0.6129  0.4867 -0.3053
19552TIP3   OH280070   2.217   1.465   5.491  0.0374  0.5575 -0.2203
19552TIP3    H180071   2.247   1.483   5.580  1.3787  0.4980 -0.6376
19552TIP3    H280072   2.125   1.440   5.501  0.4082 -0.3364  1.2522
19553TIP3   OH280073   5.236   1.272   1.448  0.2497 -0.6471  0.3603
19553TIP3    H180074   5.157   1.324   1.436  1.2986  0.5465 -2.1576
19553TIP3    H280075   5.299   1.332   1.489  0.9214 -0.3946 -0.9695
19554TIP3   OH280076   6.474   2.113   6.098 -0.1933  0.0141  0.2586
19554TIP3    H180077   6.548   2.172   6.088 -0.3965  0.2500  0.1416
19554TIP3    H280078   6.465   2.102   6.193 -0.2696  0.3187  0.2886
19555TIP3   OH280079   0.575   3.452   5.931  0.4175 -0.3694  0.3701
19555TIP3    H180080   0.608   3.492   6.012  0.0575 -0.3149  0.4919
19555TIP3    H280081   0.609   3.508   5.861  0.4684 -0.2322  0.5030
19556TIP3   OH280082   6.136   5.044  12.676 -0.0951  0.2979  0.6840
19556TIP3    H180083   6.042   5.029  12.670  0.0822 -1.0750  0.9479
19556TIP3    H280084   6.164   5.060  12.586 -0.0993 -2.7621  0.0228
19557TIP3   OH280085   2.805   4.688  11.447 -0.4046 -0.4109 -0.1490
19557TIP3    H180086   2.755   4.748  11.393  0.4307  1.4015  0.9958
19557TIP3    H280087   2.833   4.741  11.522  0.2578 -2.2732  0.9847
19558TIP3   OH280088   1.499   0.235   4.296 -0.5028  0.2241  0.1383
19558TIP3    H180089   1.467   0.312   4.250  0.6198  0.8697  0.3874
19558TIP3    H280090   1.557   0.270   4.363 -3.3239 -0.5672  3.2166
19559TIP3   OH280091   4.950   1.270  14.575  0.4579  0.3834 -0.1400
19559TIP3    H180092   5.019   1.206  14.561  0.5972  1.0424 -2.9606
19559TIP3    H280093   4.893   1.261  14.499 -0.0636  2.8863 -0.1189
19560TIP3   OH280094   0.997   1.663  15.626 -0.1908  0.1500  0.6780
19560TIP3    H180095   0.991   1.567  15.625  1.9789 -0.0424  0.5529
19560TIP3    H280096   1.058   1.682  15.698  1.0967  1.2617 -0.6413
19561TIP3   OH280097   1.496   5.706   5.352  0.3948  0.6400 -0.1076
19561TIP3    H180098   1.429   5.769   5.327  0.5410  2.2538  3.0382
19561TIP3    H280099   1.575   5.736   5.306  0.1846  2.1010  0.4271
19562TIP3   OH280100   5.855   5.924   6.395 -0.4593  0.2188 -0.5845
19562TIP3    H180101   5.858   5.976   6.314  0.3216 -0.1358 -0.7930
19562TIP3    H280102   5.930   5.956   6.446 -0.5009 -0.0848 -0.3360
19563TIP3   OH280103   4.612   5.637   2.852  0.0045  0.2735 -0.4479
19563TIP3    H180104   4.626   5.559   2.799  1.3527 -0.5702  1.0828
19563TIP3    H280105   4.699   5.662   2.883 -0.7297  0.5992  1.5446
19564TIP3   OH280106   3.827   0.807  13.022 -0.0187  0.3511 -0.0195
19564TIP3    H180107   3.836   0.814  13.117  0.9105 -2.5513  0.2112
19564TIP3    H280108   3.739   0.839  13.003 -1.6734 -2.2979  2.3748
19565TIP3   OH280109   1.342   3.071   0.635 -0.6852 -0.4486 -0.3771
19565TIP3    H180110   1.315   3.162   0.635  0.2904 -0.1466 -0.5464
19565TIP3    H280111   1.274   3.025   0.684  0.6126  0.9134  3.0190
19566TIP3   OH280112   0.906   4.774  12.750  0.6776  0.5107 -0.1956
19566TIP3    H180113   0.956   4.767  12.668  1.8258 -0.8531  0.5844
19566TIP3    H280114   0.857   4.692  12.755 -1.6066  1.7306 -0.8434
19567TIP3   OH280115   3.231   6.047  11.664  0.1991  0.4310  0.6520
19567TIP3    H180116   3.178   6.018  11.590  0.4142  2.1535 -0.2343
19567TIP3    H280117   3.320   6.022  11.642  0.4196  1.8386 -0.2252
19568TIP3   OH280118   1.734   4.236   4.238  0.2632  0.1829 -0.4410
19568TIP3    H180119   1.730   4.284   4.156  0.8825  0.3935 -0.3580
19568TIP3    H280120   1.673   4.283   4.296 -1.9665 -1.3372 -1.4340
19569TIP3   OH280121   5.755   6.682   4.610  0.6022  0.3039  0.5682
19569TIP3    H180122   5.679   6.739   4.605  0.8197  0.5057 -0.7965
19569TIP3    H280123   5.727   6.601   4.568  1.4715  0.7970 -1.0610
19570TIP3   OH280124   4.493   3.232  13.602  0.4821 -0.4924  0.0001
19570TIP3    H180125   4.424   3.190  13.654 -0.9616  0.5475 -1.0049
19570TIP3    H280126   4.463   3.223  13.511  1.5384  0.2440 -0.4360
19571TIP3   OH280127   5.532   3.385   2.767 -0.3421 -0.5864 -0.4943
19571TIP3    H180128   5.482   3.383   2.849  1.3023 -1.8847  0.5664
19571TIP3    H280129   5.546   3.292   2.746 -0.1181 -0.2611 -1.8445
19572TIP3   OH280130   5.169   4.602   1.877  0.2054 -0.1368  0.2900
19572TIP3    H180131   5.118   4.536   1.924  0.6063 -0.8370 -0.2393
19572TIP3    H280132   5.230   4.551   1.823 -0.1795  0.6498 -0.9208
19573TIP3   OH280133   2.956   3.337  14.044  0.1964  0.4322 -0.2688
19573TIP3    H180134   2.998   3.252  14.044  1.0225  0.7463 -3.1520
19573TIP3    H280135   3.028   3.400  14.039 -0.4652  1.1322 -1.4256
19574TIP3   OH280136   1.426   6.450  15.045 -0.0408 -0.0513  0.0606
19574TIP3    H180137   1.381   6.523  15.003  1.5746  0.9853  0.0685
19574TIP3    H280138   1.486   6.491  15.107 -1.9835 -1.4884  3.1487
19575TIP3   OH280139   6.609   3.385   3.362  0.2750 -0.1511  0.4913
19575TIP3    H180140   6.545   3.340   3.417  1.6055 -1.0547  1.3939
19575TIP3    H280141   6.641   3.317   3.302  1.4027 -0.1222  1.0278
19576TIP3   OH280142   0.239   6.358  13.040  0.3862 -0.9567  0.5285
19576TIP3    H180143   0.171   6.351  13.106  0.3531  1.4261  0.8273
19576TIP3    H280144   0.193   6.349  12.956 -0.5903  1.7374  0.6719
19577TIP3   OH280145   3.981   4.002  14.301  0.0301 -0.0601 -0.1536
19577TIP3    H180146   3.981   4.002  14.397  0.4513  0.7336 -0.1462
19577TIP3    H280147   3.897   4.042  14.277 -0.3787 -0.8635 -0.1409
19578TIP3   OH280148   1.636   5.885   1.214  0.3707  0.0450 -0.1342
19578TIP3    H180149   1.674   5.833   1.285 -0.6473  0.9942  1.1544
19578TIP3    H280150   1.712   5.922   1.168  1.1147 -2.0778 -0.7739
19579TIP3   OH280151   4.361   6.543   3.964 -0.1029 -0.0021 -1.2507
19579TIP3    H180152   4.439   6.569   3.915  1.9484 -1.2395  1.1142
19579TIP3    H280153   4.393   6.479   4.028 -2.7394  0.7125  0.9840
19580TIP3   OH280154   3.415   6.092  15.274 -0.3137 -0.0034 -0.3579
19580TIP3    H180155   3.431   6.060  15.185  1.4699 -0.7070  0.1665
19580TIP3    H280156   3.470   6.170  15.281  1.8107 -1.4829  0.9371
19581TIP3   OH280157   4.807   2.414   3.523  0.0054 -0.8047  0.4004
19581TIP3    H180158   4.859   2.365   3.459 -1.5040  0.2489 -1.7536
19581TIP3    H280159   4.854   2.497   3.534 -0.6828 -0.1974 -0.9054
19582TIP3   OH280160   6.092   1.604   5.875 -0.1981 -0.0988 -0.1912
19582TIP3    H180161   6.001   1.603   5.903  0.1146 -1.2404  0.8663
19582TIP3    H280162   6.122   1.693   5.891 -0.7570 -0.0659  0.7254
19583TIP3   OH280163   2.533   3.506   1.955 -0.0944 -0.1400  0.0849
19583TIP3    H180164   2.453   3.458   1.973 -0.5006  1.0601  1.7139
19583TIP3    H280165   2.503   3.595   1.935  0.6930 -0.2666 -1.9182
19584TIP3   OH280166   6.353   6.027  16.865  0.6254  0.2931 -0.0334
19584TIP3    H180167   6.363   6.102  16.924  1.2784  0.0927  0.1162
19584TIP3    H280168   6.436   6.023  16.818 -0.6000  1.7823 -2.5576
19585TIP3   OH280169   0.170   0.840  12.908  0.1963 -0.1050 -0.4169
19585TIP3    H180170   0.086   0.872  12.942  0.1617 -0.5687 -0.0577
19585TIP3    H280171   0.226   0.832  12.985  0.6940  0.5624 -0.7061
19586TIP3   OH280172   0.619   3.098   5.391  0.3536  0.4006 -0.1368
19586TIP3    H180173   0.605   3.033   5.322 -0.5425  0.6723 -0.2316
19586TIP3    H280174   0.648   3.047   5.467 -1.1872 -0.2436  0.0552
19587TIP3   OH280175   1.535   6.611  16.799 -0.0483 -0.0791 -1.0347
19587TIP3    H180176   1.592   6.686  16.783  0.5981 -0.2224  0.3965
19587TIP3    H280177   1.457   6.648  16.840 -0.8458  0.0716 -2.6316
19588TIP3   OH280178   2.264   1.588  12.436  0.2682  0.4105  0.0263
19588TIP3    H180179   2.224   1.642  12.504 -0.2377  0.0709  0.0025
19588TIP3    H280180   2.335   1.642  12.402 -0.8342  1.4933 -0.6747
19589TIP3   OH280181   1.253   1.645   3.016 -0.0237 -0.4905 -0.8510
19589TIP3    H180182   1.307   1.682   2.946 -0.5436  1.9416 -0.0670
19589TIP3    H280183   1.311   1.584   3.061  0.5458 -1.5577 -2.9094
19590TIP3   OH280184   6.337   0.318  16.096  0.2191 -0.8687 -0.3474
19590TIP3    H180185   6.318   0.234  16.137  0.1476 -0.3043  0.7949
19590TIP3    H280186   6.271   0.378  16.130  0.9870 -0.0707 -0.2212
19591TIP3   OH280187   2.818   2.560   4.916 -0.3044  0.7182 -0.2680
19591TIP3    H180188   2.857   2.527   4.998 -2.7440  0.8658  1.0539
19591TIP3    H280189   2.741   2.506   4.904 -0.5923  1.4551 -1.8999
19592TIP3   OH280190   0.795   1.644   3.600  0.2529 -0.1463  0.6002
19592TIP3    H180191   0.853   1.579   3.559  1.5806  1.1148  0.3758
19592TIP3    H280192   0.707   1.609   3.588  0.9208 -1.8343  0.3843
19593TIP3   OH280193   6.183   1.869   3.673 -0.2308 -0.9120 -0.0078
19593TIP3    H180194   6.089   1.885   3.683 -0.1701 -1.4123  1.5508
19593TIP3    H280195   6.225   1.944   3.717  0.1513  0.0651 -1.9157
19594TIP3   OH280196   6.582   6.528  13.218  0.9841 -0.0892 -0.2608
19594TIP3    H180197   6.675   6.538  13.199  0.8701 -1.2677 -1.5910
19594TIP3    H280198   6.539   6.531  13.133 -0.1909  0.2463  0.3200
19595TIP3   OH280199   6.023   1.363   4.183 -0.1096  0.5096 -0.9496
19595TIP3    H180200   5.937   1.381   4.220  0.6796 -0.9562  2.0015
19595TIP3    H280201   6.071   1.445   4.192 -0.1189  0.3637  1.0944
19596TIP3   OH280202   6.229   5.453  12.968 -0.2527  0.1071  0.3534
19596TIP3    H180203   6.293   5.445  12.897 -0.7816 -1.4167  0.0017
19596TIP3    H280204   6.148   5.481  12.924 -0.1305  0.9358  0.6371
19597TIP3   OH280205   2.113   0.015   2.354  0.0170  0.0873 -0.2979
19597TIP3    H180206   2.109   0.039   2.447  0.4433  0.1560 -0.2925
19597TIP3    H280207   2.194   0.056   2.323  1.0695 -1.7841 -0.1624
19598TIP3   OH280208   1.317   3.778   1.518 -0.0399 -0.1807 -0.2564
19598TIP3    H180209   1.406   3.749   1.502  0.0467 -0.2831  0.3686
19598TIP3    H280210   1.295   3.741   1.604 -0.0979  1.1563  0.3376
19599TIP3   OH280211   0.612   3.236   4.607  0.2350 -0.1408  0.2738
19599TIP3    H180212   0.575   3.245   4.695 -0.2843 -0.3862  0.0876
19599TIP3    H280213   0.635   3.326   4.581  0.1969 -0.0429  0.5799
19600TIP3   OH280214   5.257   1.264  16.301 -0.3485  0.0047 -0.3161
19600TIP3    H180215   5.301   1.266  16.386 -0.7480 -1.4181 -0.0482
19600TIP3    H280216   5.170   1.227  16.320  0.1144 -1.8715 -1.5371
19601TIP3   OH280217   6.569   0.321   3.761  0.1985  0.4181 -0.3603
19601TIP3    H180218   6.629   0.309   3.688  1.9404 -0.3568  1.1198
19601TIP3    H280219   6.556   0.415   3.767  0.8220  0.5535 -1.0610
19602TIP3   OH280220   6.221   4.917   4.849  0.1838  0.1386  0.1102
19602TIP3    H180221   6.150   4.899   4.787  0.1184  2.4432 -0.5796
19602TIP3    H280222   6.178   4.951   4.927  0.4506  0.2955  0.1934
19603TIP3   OH280223   5.087   5.497  11.218  0.3586  0.3571  0.8100
19603TIP3    H180224   5.163   5.483  11.274 -1.1439 -1.9927  2.4346
19603TIP3    H280225   5.015   5.511  11.279 -1.5749 -3.5061 -0.2331
19604TIP3   OH280226   3.551   1.817  11.705 -0.2743 -0.2259 -0.2208
19604TIP3    H180227   3.636   1.773  11.713  0.6662  1.3295 -1.1598
19604TIP3    H280228   3.502   1.763  11.643 -0.0598 -1.2424  0.4730
19605TIP3   OH280229   4.389   0.788   3.757  0.2776 -0.2897  0.1275
19605TIP3    H180230   4.370   0.706   3.803 -0.8478  0.7629  1.6087
19605TIP3    H280231   4.314   0.844   3.776  1.6976  1.6134  0.3703
19606TIP3   OH280232   6.122   3.335   5.618  0.8583  0.0365  0.4716
19606TIP3    H180233   6.044   3.378   5.586  0.3333 -0.5444  0.9230
19606TIP3    H280234   6.108   3.327   5.713  1.0726 -0.8206  0.4468
19607TIP3   OH280235   3.578   4.939  14.218 -0.0471 -0.0261  0.4510
19607TIP3    H180236   3.579   4.915  14.311  1.7760 -1.0035  0.2252
19607TIP3    H280237   3.611   5.029  14.216  1.4541 -0.5404  0.6656
19608TIP3   OH280238   1.582   1.338   4.029 -0.3880 -0.1795  0.3353
19608TIP3    H180239   1.497   1.321   4.070 -0.1751 -0.9259  0.4855
19608TIP3    H280240   1.642   1.351   4.102 -0.6591  1.9721  0.2313
19609TIP3   OH280241   3.081   5.704  12.323  0.2518  0.9028 -0.3165
19609TIP3    H180242   3.087   5.797  12.345 -0.1603  0.3023  2.7584
19609TIP3    H280243   2.994   5.678  12.354  1.3288 -0.9983  1.3243
19610TIP3   OH280244   6.213   6.465   2.609  0.8585  0.3520 -0.3344
19610TIP3    H180245   6.204   6.528   2.538  2.4505  0.2029 -0.6981
19610TIP3    H280246   6.237   6.518   2.685 -1.7584  0.6347  0.4065
19611TIP3   OH280247   4.624   3.340  11.902 -0.1289  0.0672  0.1397
19611TIP3    H180248   4.635   3.252  11.865 -0.5995  1.4337 -3.6920
19611TIP3    H280249   4.533   3.364  11.883  0.5475  2.1147 -0.8010
19612TIP3   OH280250   1.108   3.804   2.070  0.2473  0.7654  0.0822
19612TIP3    H180251   1.074   3.861   2.140  1.4357  0.9437  0.5434
19612TIP3    H280252   1.129   3.722   2.114  1.9032  1.1897  0.1793
19613TIP3   OH280253   0.257   0.634  15.061  0.2749 -0.2810  0.2009
19613TIP3    H180254   0.313   0.710  15.075 -1.2832  0.4234  3.9299
19613TIP3    H280255   0.175   0.670  15.027  0.4620 -0.7179 -0.7634
19614TIP3   OH280256   6.510   0.776  16.172  0.2297 -0.1193  0.3487
19614TIP3    H180257   6.479   0.855  16.217  1.3974 -0.8567  2.5809
19614TIP3    H280258   6.470   0.781  16.085 -0.1868  2.6223  0.6066
19615TIP3   OH280259   5.283   3.810  12.278  0.1822 -0.3269  0.2183
19615TIP3    H180260   5.267   3.756  12.200  2.2184 -0.6574 -0.0154
19615TIP3    H280261   5.321   3.749  12.342  0.6732  0.4105  0.6460
19616TIP3   OH280262   5.019   4.124  15.128 -0.0018  0.4858 -0.2491
19616TIP3    H180263   5.026   4.114  15.033  2.4077  0.8477 -0.1835
19616TIP3    H280264   5.084   4.190  15.150 -0.9737  0.8995  1.6116
19617TIP3   OH280265   2.014   2.149  12.301  0.0300 -0.1238 -0.1616
19617TIP3    H180266   2.062   2.228  12.324  1.9864 -0.4949 -2.5965
19617TIP3    H280267   1.954   2.135  12.375 -0.2696  3.4477  0.4367
19618TIP3   OH280268   4.838   1.970   1.642  0.1239  0.4300  0.1055
19618TIP3    H180269   4.885   1.897   1.602  0.7473  1.0710 -0.3394
19618TIP3    H280270   4.769   1.992   1.580  0.5404  0.8493 -0.2102
19619TIP3   OH280271   2.178   2.012   3.314 -0.5898 -0.0714 -0.1285
19619TIP3    H180272   2.248   1.985   3.374  0.2455  1.6335 -0.2795
19619TIP3    H280273   2.099   1.974   3.352 -0.0827  0.8856  2.0947
19620TIP3   OH280274   3.361   2.340  15.315  0.0190  0.2397 -0.2374
19620TIP3    H180275   3.389   2.409  15.375  0.6625  0.1943 -0.4681
19620TIP3    H280276   3.266   2.335  15.326 -0.2602  2.2220 -1.3456
19621TIP3   OH280277   1.716   4.181   0.425  0.3999  0.2894 -0.0850
19621TIP3    H180278   1.730   4.121   0.351 -2.2826 -1.3310  0.5602
19621TIP3    H280279   1.761   4.140   0.498  0.6079  0.3359 -0.1881
19622TIP3   OH280280   0.202   3.929  17.121 -0.5882  0.0427  0.5404
19622TIP3    H180281   0.146   3.961  17.192 -1.2637 -0.3120  0.1843
19622TIP3    H280282   0.231   4.009  17.076  0.0227  0.2799  1.3338
19623TIP3   OH280283   6.414   5.905  13.450  0.0953  0.1026 -0.4083
19623TIP3    H180284   6.509   5.908  13.457  0.3195 -2.8021 -0.8861
19623TIP3    H280285   6.395   5.947  13.366  1.3147 -1.8303 -1.7390
19624TIP3   OH280286   2.023   0.950  16.168  0.2947  0.0459 -0.8444
19624TIP3    H180287   2.002   0.879  16.108 -2.9957 -0.9520  1.2431
19624TIP3    H280288   1.940   0.995  16.182  0.5451 -0.4572  3.6762
19625TIP3   OH280289   6.513   3.368   0.558  0.0549 -0.1233 -0.2030
19625TIP3    H180290   6.584   3.408   0.507 -1.1751  0.5552 -1.4401
19625TIP3    H280291   6.451   3.336   0.493 -1.7143  1.0215  0.8266
19626TIP3   OH280292   5.858   3.044  10.968 -0.0129 -0.4002 -0.1290
19626TIP3    H180293   5.785   3.018  11.025  1.1104 -3.7110  0.0596
19626TIP3    H280294   5.876   3.135  10.992 -2.6511 -0.1483  1.3336
19627TIP3   OH280295   1.820   4.231  11.899  0.2788 -0.3333  0.0399
19627TIP3    H180296   1.844   4.144  11.865  1.4052  0.1170 -0.3566
19627TIP3    H280297   1.838   4.226  11.993  1.5556 -0.1518 -0.1777
19628TIP3   OH280298   5.663   0.433  15.665 -0.0150  0.1764  0.3773
19628TIP3    H180299   5.735   0.388  15.710 -0.0892 -1.2322 -0.8612
19628TIP3    H280300   5.698   0.456  15.580 -0.8794 -0.1086 -0.0680
19629TIP3   OH280301   6.271   3.178  17.204  0.1954 -0.4085 -0.6688
19629TIP3    H180302   6.207   3.156  17.137  0.7474 -0.1517 -1.2982
19629TIP3    H280303   6.293   3.095  17.245 -1.0031 -0.4130 -0.0149
19630TIP3   OH280304   0.619   2.098   1.314  0.7587  0.1625  0.2046
19630TIP3    H180305   0.582   2.184   1.293 -0.6382 -0.5705 -0.4879
19630TIP3    H280306   0.628   2.054   1.230  0.8572 -0.6078  0.6034
19631TIP3   OH280307   2.826   6.255  13.014 -0.4584 -0.5753 -0.0564
19631TIP3    H180308   2.886   6.324  12.985 -0.5435 -0.4682  0.0221
19631TIP3    H280309   2.792   6.287  13.097  0.6004 -1.3661  0.7169
19632TIP3   OH280310   1.607   5.634   3.133  0.1258 -0.0329  0.1612
19632TIP3    H180311   1.587   5.541   3.148 -0.0480  0.1919  1.4354
19632TIP3    H280312   1.695   5.633   3.096 -0.1770 -0.7473 -0.5678
19633TIP3   OH280313   0.480   4.418   5.581 -0.0819 -0.2129 -0.3183
19633TIP3    H180314   0.440   4.332   5.595 -0.7240  0.2355  0.7352
19633TIP3    H280315   0.417   4.480   5.618  0.7125  0.6583 -0.3872
19634TIP3   OH280316   2.857   3.277  11.644  0.2162  0.0427 -0.4128
19634TIP3    H180317   2.938   3.302  11.689  0.5481 -1.0252 -0.3816
19634TIP3    H280318   2.800   3.353  11.654  1.2339  0.8515 -0.5062
19635TIP3   OH280319   3.992   3.480   1.700  0.0201  0.1861  0.7144
19635TIP3    H180320   3.963   3.557   1.652 -0.3552 -0.1637  0.3726
19635TIP3    H280321   4.073   3.507   1.742 -0.4738  0.9874  1.1752
19636TIP3   OH280322   3.367   6.233   2.027  0.0964 -1.0797  0.3134
19636TIP3    H180323   3.300   6.200   2.087  0.1768 -1.8899 -0.0267
19636TIP3    H280324   3.347   6.190   1.944 -1.3480  1.6261 -0.8970
19637TIP3   OH280325   4.339   1.965  16.380 -0.0916  0.0165  0.3714
19637TIP3    H180326   4.334   2.053  16.342 -1.0598  0.3819  1.2772
19637TIP3    H280327   4.350   1.907  16.305  0.3178  0.8899 -0.2671
19638TIP3   OH280328   0.025   5.692   6.120 -0.2866  0.0098 -0.1502
19638TIP3    H180329  -0.049   5.676   6.061 -1.4033  2.1434  0.5718
19638TIP3    H280330  -0.011   5.682   6.208  0.8824 -1.1597  0.2391
19639TIP3   OH280331   6.185   3.352  16.144 -0.1682  0.2628  0.2275
19639TIP3    H180332   6.158   3.409  16.072 -1.6831  0.9879  1.3037
19639TIP3    H280333   6.167   3.264  16.113 -1.7332  0.6152  0.0440
19640TIP3   OH280334   1.025   2.075  15.538 -0.1555  0.0447 -0.2298
19640TIP3    H180335   1.021   2.143  15.470 -0.2292  0.4825  0.2070
19640TIP3    H280336   0.936   2.041  15.543  0.0297 -0.5904 -0.9442
19641TIP3   OH280337   1.327   3.260   3.723 -0.0901  0.2785  0.6298
19641TIP3    H180338   1.420   3.278   3.707  0.3198 -0.3680  2.0743
19641TIP3    H280339   1.296   3.337   3.771 -0.8194  1.3426 -1.4219
19642TIP3   OH280340   3.473   4.574  13.765  0.2993  0.5488 -0.8320
19642TIP3    H180341   3.563   4.580  13.735  0.6203  2.3175  0.3438
19642TIP3    H280342   3.479   4.550  13.857 -0.2271  3.3475  0.0271
19643TIP3   OH280343   3.448   0.925  13.258 -0.2077  0.2111  0.1574
19643TIP3    H180344   3.367   0.889  13.296  0.2714 -2.8971 -1.4212
19643TIP3    H280345   3.496   0.960  13.332 -0.8825 -2.3600  1.9511
19644TIP3   OH280346   3.069   5.165   2.333 -0.3036  0.0271  0.7377
19644TIP3    H180347   2.990   5.211   2.362 -1.1501 -0.4713 -0.6987
19644TIP3    H280348   3.039   5.077   2.311  0.9786 -0.7125  1.7594
19645TIP3   OH280349   3.237   2.271  14.806 -0.6169  0.6371 -0.0731
19645TIP3    H180350   3.149   2.240  14.782 -0.9707  1.0261  0.6846
19645TIP3    H280351   3.281   2.194  14.842 -1.1427  0.7556  0.8571
19646TIP3   OH280352   5.843   5.540  11.773  1.0184  0.3975  0.0631
19646TIP3    H180353   5.897   5.463  11.790  1.9430  0.8684 -0.6311
19646TIP3    H280354   5.763   5.505  11.734  1.5849 -0.2001 -0.6018
19647TIP3   OH280355   1.197   2.087   3.779 -0.4803  0.3217 -0.3825
19647TIP3    H180356   1.138   2.130   3.841 -0.7512 -0.9388  0.2582
19647TIP3    H280357   1.275   2.068   3.831  0.5429  1.9925 -1.2279
19648TIP3   OH280358   1.415   1.034  13.404  0.5327 -0.0856 -0.2645
19648TIP3    H180359   1.378   1.025  13.492  0.5979 -2.6575 -0.4197
19648TIP3    H280360   1.394   0.951  13.361  1.8195  0.5183 -2.1814
19649TIP3   OH280361   2.430   1.971  12.846  0.8266  0.1328  0.1739
19649TIP3    H180362   2.399   1.903  12.787  1.3699  0.0595 -0.0320
19649TIP3    H280363   2.350   2.008  12.884  0.2319  2.0849 -2.6550
19650TIP3   OH280364   3.125   5.981  11.375 -0.5388 -0.2597  0.1456
19650TIP3    H180365   3.098   6.060  11.329  1.4804  1.0300  1.0303
19650TIP3    H280366   3.160   5.924  11.306  0.0181  0.5529 -0.2645
19651TIP3   OH280367   4.766   0.681  11.514 -0.2529  0.5416  0.1975
19651TIP3    H180368   4.857   0.704  11.496 -0.2184 -0.6406 -1.3822
19651TIP3    H280369   4.715   0.745  11.463 -0.2790  0.3700  0.0096
19652TIP3   OH280370   5.915   0.045  15.339  0.0548 -0.3754  0.3441
19652TIP3    H180371   5.973  -0.026  15.312 -1.0721 -1.3384  0.3542
19652TIP3    H280372   5.882   0.082  15.257 -0.0543 -0.4628  0.3487
19653TIP3   OH280373   3.552   3.658  16.693  0.5685 -0.4865  0.1064
19653TIP3    H180374   3.582   3.706  16.616  0.6999 -2.2561 -1.0090
19653TIP3    H280375   3.630   3.648  16.747  1.2668 -1.9672 -1.0886
19654TIP3   OH280376   6.575   4.665  10.729  0.3183  0.0299 -0.3630
19654TIP3    H180377   6.570   4.742  10.671  0.1046  0.6223  0.4212
19654TIP3    H280378   6.524   4.690  10.806 -0.7464 -1.3533 -0.5869
19655TIP3   OH280379   4.275   3.883   1.770  0.6563  0.0868  0.8557
19655TIP3    H180380   4.296   3.963   1.722  0.4389  1.3157  2.6903
19655TIP3    H280381   4.224   3.913   1.845  2.2320 -1.5067  2.6813
19656TIP3   OH280382   2.738   5.987   4.124 -0.1597  0.4029 -0.8966
19656TIP3    H180383   2.824   5.966   4.086  0.1149  0.6532 -0.4257
19656TIP3    H280384   2.727   5.922   4.194 -1.0343 -0.5925 -1.9103
19657TIP3   OH280385   5.803   0.456  12.669  0.5459 -0.3144 -0.1720
19657TIP3    H180386   5.734   0.410  12.620 -0.3339  0.2240  0.5377
19657TIP3    H280387   5.844   0.513  12.604 -2.8182  2.9902  0.2360
19658TIP3   OH280388   3.521   2.818  13.765  0.1913  0.2617 -0.1870
19658TIP3    H180389   3.553   2.751  13.826  1.3987  0.7140 -0.2838
19658TIP3    H280390   3.476   2.882  13.820  1.6512  0.8943  0.3319
19659TIP3   OH280391   1.704   3.533  16.348  0.1242  0.2711  0.3269
19659TIP3    H180392   1.757   3.548  16.427  0.4661  1.2797 -0.0781
19659TIP3    H280393   1.768   3.533  16.277 -0.3891  1.3510 -0.1540
19660TIP3   OH280394   3.191   1.757   0.988 -0.0794 -0.1358  0.0397
19660TIP3    H180395   3.265   1.708   1.023 -1.0341 -2.9716 -1.6052
19660TIP3    H280396   3.195   1.743   0.893 -1.6712  1.2277 -0.2867
19661TIP3   OH280397   1.885   4.864   5.483  0.3209 -0.0582 -0.4212
19661TIP3    H180398   1.903   4.814   5.562 -0.1282 -0.2217 -0.4174
19661TIP3    H280399   1.920   4.810   5.412  1.3804  0.4302 -0.2809
19662TIP3   OH280400   5.428   0.524   5.087  0.3725  0.1818  0.1053
19662TIP3    H180401   5.465   0.438   5.108 -1.3749 -0.4573  0.7290
19662TIP3    H280402   5.365   0.541   5.157 -0.8346  1.0067 -1.1254
19663TIP3   OH280403   4.492   0.332  15.766  0.7852  0.2676 -0.4212
19663TIP3    H180404   4.427   0.390  15.807  0.5131 -0.5650  0.3816
19663TIP3    H280405   4.501   0.365  15.677  0.1234  1.1126 -0.1937
19664TIP3   OH280406   1.481   3.467  15.553  0.3090 -0.3217 -0.7539
19664TIP3    H180407   1.449   3.506  15.635  0.3219 -0.8810 -0.4734
19664TIP3    H280408   1.442   3.379  15.552  0.7796 -0.5311 -1.0605
19665TIP3   OH280409   2.153   0.607  16.268 -0.1473 -0.1552  0.0530
19665TIP3    H180410   2.147   0.658  16.187 -1.2794 -0.6096 -0.1790
19665TIP3    H280411   2.221   0.542  16.250 -1.5092 -1.3165 -1.1956
19666TIP3   OH280412   5.826   1.486  11.634  0.2871  0.0903  0.3389
19666TIP3    H180413   5.793   1.507  11.547 -0.2333  1.9667  0.9475
19666TIP3    H280414   5.756   1.436  11.675  0.2811 -0.2622 -0.0943
19667TIP3   OH280415   1.757   0.384   2.079 -0.3820 -0.0203  0.0368
19667TIP3    H180416   1.691   0.453   2.072 -0.4024 -0.1989 -1.9453
19667TIP3    H280417   1.765   0.368   2.174 -3.5367 -0.3845  0.3312
19668TIP3   OH280418   3.686   3.464  13.173  0.2817 -0.0657 -0.2690
19668TIP3    H180419   3.610   3.470  13.231 -0.5240 -0.7089 -1.2125
19668TIP3    H280420   3.672   3.533  13.108  1.6660  1.2884  0.8066
19669TIP3   OH280421   5.645   5.162   3.316 -0.1751  0.6679  0.3319
19669TIP3    H180422   5.569   5.105   3.328  0.4548 -0.9380 -2.4450
19669TIP3    H280423   5.622   5.216   3.241  2.3579 -1.8295 -2.4619
19670TIP3   OH280424   0.307   4.790  12.717 -0.6654  0.0626 -0.4984
19670TIP3    H180425   0.281   4.859  12.657 -0.9970  0.4758  0.1141
19670TIP3    H280426   0.361   4.834  12.783 -2.9789  0.3121  1.3986
19671TIP3   OH280427   2.081   6.079  12.744  0.3798  0.0303 -0.2141
19671TIP3    H180428   2.059   6.164  12.783  0.1606  0.1012 -0.4861
19671TIP3    H280429   2.100   6.023  12.819 -1.6865 -0.3057  0.1181
19672TIP3   OH280430   4.115   3.863   4.091 -0.7558 -0.3814  0.5892
19672TIP3    H180431   4.128   3.923   4.018  1.4681 -1.1944  0.2177
19672TIP3    H280432   4.020   3.859   4.104 -1.0343  2.4413  0.0328
19673TIP3   OH280433   5.889   3.881   4.789 -0.1555  0.0267 -0.1321
19673TIP3    H180434   5.810   3.871   4.843 -0.7262  0.2399 -0.9038
19673TIP3    H280435   5.954   3.916   4.849 -0.1274 -1.7544  0.9421
19674TIP3   OH280436   2.809   1.186   2.749  0.1059  0.2174  0.5173
19674TIP3    H180437   2.768   1.100   2.750  0.9585 -0.2297 -1.0599
19674TIP3    H280438   2.767   1.233   2.678 -0.1611  1.0229  1.1903
19675TIP3   OH280439   2.359   6.692   3.356  0.2445 -0.4358  0.4421
19675TIP3    H180440   2.428   6.759   3.353  0.9503 -1.1321  0.5679
19675TIP3    H280441   2.332   6.690   3.448  0.9908 -1.0627  0.6590
19676TIP3   OH280442   6.037   5.171  13.385 -0.5287 -0.0685  0.4697
19676TIP3    H180443   6.113   5.220  13.353 -0.9383  0.0604 -0.3337
19676TIP3    H280444   5.994   5.231  13.445  0.1435 -0.2395  1.1344
19677TIP3   OH280445   5.011   1.099  11.836  0.4703  0.1461  0.2692
19677TIP3    H180446   5.097   1.115  11.797  1.0502  0.7812  1.7236
19677TIP3    H280447   5.021   1.126  11.927 -0.3353 -2.7166  1.3338
19678TIP3   OH280448   4.858   0.745   3.042  0.1412 -0.0916  0.6944
19678TIP3    H180449   4.912   0.682   2.994 -0.4758  1.1307 -1.7877
19678TIP3    H280450   4.773   0.702   3.049  0.1455 -0.1596  0.3772
19679TIP3   OH280451   1.685   0.855  12.158  0.2645 -0.1864  0.1970
19679TIP3    H180452   1.733   0.937  12.146  2.2264 -1.4058 -0.8976
19679TIP3    H280453   1.712   0.824  12.244  0.1920 -0.1097  0.2475
19680TIP3   OH280454   3.211   6.518  10.843  0.0693  0.2482  0.2159
19680TIP3    H180455   3.181   6.509  10.933 -0.7385 -0.5747 -0.1035
19680TIP3    H280456   3.220   6.612  10.829 -2.7956  0.6307  0.2609
19681TIP3   OH280457   4.975   1.445  16.018  0.1040  0.0138  0.1701
19681TIP3    H180458   4.979   1.541  16.014 -0.2577  0.0143 -0.2866
19681TIP3    H280459   4.925   1.427  16.097  0.4029  0.1949  0.4038
19682TIP3   OH280460   5.139   3.331  15.632  0.5613 -0.2097 -0.3601
19682TIP3    H180461   5.075   3.265  15.603  0.6208  0.3597 -1.8988
19682TIP3    H280462   5.190   3.350  15.553  1.1752  0.9735  0.3070
19683TIP3   OH280463   0.901   1.402   0.069  0.0520 -0.2060 -0.4568
19683TIP3    H180464   0.937   1.316   0.050 -1.4885 -0.7787 -0.9483
19683TIP3    H280465   0.847   1.423  -0.007 -3.9457 -1.2811  1.8033
19684TIP3   OH280466   5.571   2.178   4.936 -0.1206  0.4831  0.6078
19684TIP3    H180467   5.647   2.208   4.986 -0.3324  1.4486  0.3677
19684TIP3    H280468   5.498   2.231   4.969 -0.1831  1.4484 -1.0000
19685TIP3   OH280469   3.362   6.042   1.350  0.4251  0.5179 -0.3352
19685TIP3    H180470   3.320   6.125   1.329 -1.4338 -0.6911 -1.7186
19685TIP3    H280471   3.416   6.022   1.274  2.7670  1.4865  0.9471
19686TIP3   OH280472   6.465   4.048  13.042  0.4368 -0.3649 -0.7119
19686TIP3    H180473   6.508   4.133  13.052 -1.1547  0.4010  0.1566
19686TIP3    H280474   6.413   4.058  12.962 -0.4780 -0.1486 -0.1101
19687TIP3   OH280475   0.956   1.464  13.216 -0.3137  0.3923  0.0297
19687TIP3    H180476   1.017   1.533  13.192  0.9724 -0.6098  0.3323
19687TIP3    H280477   0.907   1.500  13.291 -0.5589  1.4399 -0.6218
19688TIP3   OH280478   0.215   3.186  16.254 -0.0252 -0.0766  0.2394
19688TIP3    H180479   0.194   3.134  16.177 -1.5819 -0.2016  0.7173
19688TIP3    H280480   0.132   3.198  16.299  0.9929 -1.0218  2.5620
19689TIP3   OH280481   1.062   1.259   0.666 -0.5222 -0.6733  0.0041
19689TIP3    H180482   0.986   1.242   0.612 -1.5753  2.0486  0.5069
19689TIP3    H280483   1.108   1.331   0.623 -0.0859 -0.0388  1.4589
19690TIP3   OH280484   5.827   4.221  15.279  0.0893 -0.3492  0.2187
19690TIP3    H180485   5.848   4.269  15.199  1.4847 -1.3670 -0.0746
19690TIP3    H280486   5.735   4.240  15.295 -0.6653 -1.2709 -2.4818
19691TIP3   OH280487   6.067   3.607  12.430 -0.7946  0.0573 -0.1136
19691TIP3    H180488   6.024   3.526  12.402 -0.2416 -0.2183 -0.1858
19691TIP3    H280489   6.153   3.603  12.389 -0.6783  0.5746  0.0749
19692TIP3   OH280490   1.297   4.288   1.346  0.1511 -0.0620 -0.4546
19692TIP3    H180491   1.214   4.323   1.314 -0.4462 -0.6676  0.3966
19692TIP3    H280492   1.323   4.347   1.416  1.1991  0.9615 -1.6378
19693TIP3   OH280493   3.794   0.894   3.323  0.3113  0.3421  0.3566
19693TIP3    H180494   3.736   0.841   3.269  0.0693  0.7709  0.1920
19693TIP3    H280495   3.853   0.937   3.261  1.1566 -0.5098  0.5635
19694TIP3   OH280496   4.534   1.640  10.237 -1.0120  0.0462 -0.7926
19694TIP3    H180497   4.489   1.578  10.181  0.4023 -0.7132 -1.1318
19694TIP3    H280498   4.569   1.587  10.308 -0.2113  0.5279 -0.8206
19695TIP3   OH280499   2.962   6.054  15.261  0.4154  0.8646 -0.1422
19695TIP3    H180500   3.025   6.109  15.215 -0.2937  0.8332 -1.2122
19695TIP3    H280501   2.978   5.966  15.227  0.1784  0.7628  0.0051
19696TIP3   OH280502   6.661   6.102   4.614  0.1795 -0.5988 -0.1057
19696TIP3    H180503   6.627   6.190   4.631  1.2438  0.1755 -1.6982
19696TIP3    H280504   6.620   6.077   4.531 -0.9970 -2.1323  0.8783
19697TIP3   OH280505   0.792   1.119   0.834 -0.4288 -0.3464  1.1922
19697TIP3    H180506   0.792   1.211   0.859  1.9374 -0.0222  0.2823
19697TIP3    H280507   0.844   1.076   0.902  1.8087 -0.2903 -0.3983
19698TIP3   OH280508   0.519   5.424   0.770 -0.5492  0.2500  0.0698
19698TIP3    H180509   0.518   5.368   0.693 -2.8851  1.0092 -0.5561
19698TIP3    H280510   0.484   5.369   0.840 -2.1716  0.6426 -0.3823
19699TIP3   OH280511   4.752   0.125   1.119  0.6066 -0.0315  0.3348
19699TIP3    H180512   4.810   0.069   1.170  0.0623  0.0137  1.0204
19699TIP3    H280513   4.800   0.208   1.111  1.0138 -0.2829  0.1157
19700TIP3   OH280514   0.828   0.322   1.685 -0.7140  0.1699 -0.4263
19700TIP3    H180515   0.845   0.329   1.779  0.3844 -0.6434 -0.5406
19700TIP3    H280516   0.900   0.370   1.644  0.9312 -2.5223 -0.9042
19701TIP3   OH280517   3.579   2.649   5.428  0.1623 -0.5744  0.2680
19701TIP3    H180518   3.499   2.633   5.378 -0.3912  0.7515  0.6888
19701TIP3    H280519   3.650   2.626   5.368 -0.5129 -2.4794  0.1400
19702TIP3   OH280520   3.905   4.746   4.144  0.8277 -0.1988  0.8364
19702TIP3    H180521   3.846   4.814   4.177  0.8218 -0.6088  1.6909
19702TIP3    H280522   3.952   4.715   4.222  0.0373 -1.9484  0.6550
19703TIP3   OH280523   2.536   2.616  15.270  0.3803  0.7014  0.0568
19703TIP3    H180524   2.528   2.542  15.330 -0.6498  0.3008 -0.5578
19703TIP3    H280525   2.455   2.615  15.219  1.5846  0.4580 -1.9974
19704TIP3   OH280526   6.108   0.409   5.637  0.2675 -0.1718  0.0163
19704TIP3    H180527   6.053   0.338   5.605 -0.5627 -1.2755  3.4237
19704TIP3    H280528   6.198   0.379   5.620 -0.0968 -0.8895 -0.7262
19705TIP3   OH280529   6.107   3.124   1.689  0.1185  0.2703 -0.3542
19705TIP3    H180530   6.154   3.184   1.747  0.7868 -0.6189  0.0542
19705TIP3    H280531   6.132   3.151   1.601  0.2580  0.7138 -0.1806
19706TIP3   OH280532   0.140   4.770   2.175 -0.5820  0.0074  0.4423
19706TIP3    H180533   0.147   4.788   2.082 -0.9673 -0.2432  0.3591
19706TIP3    H280534   0.224   4.796   2.212 -0.4252  0.0958  0.0227
19707TIP3   OH280535   4.544   2.437  15.489  0.4475  0.0938 -0.8619
19707TIP3    H180536   4.525   2.523  15.526 -0.1300 -1.0049  1.5629
19707TIP3    H280537   4.466   2.415  15.439  0.2150  0.5799 -0.7215
19708TIP3   OH280538   3.684   5.730   5.215 -0.1888  0.1971  0.0979
19708TIP3    H180539   3.644   5.657   5.262 -1.7529  0.8220 -0.1956
19708TIP3    H280540   3.778   5.722   5.233 -0.4437 -1.2633  0.9153
19709TIP3   OH280541   2.352   3.563  12.913  0.0393  0.1686 -0.2308
19709TIP3    H180542   2.393   3.574  12.999 -1.1046  1.7032  0.1726
19709TIP3    H280543   2.424   3.539  12.855  1.2940  1.5201  0.6952
19710TIP3   OH280544   0.273   6.720  14.694  0.0664  0.2235  0.0826
19710TIP3    H180545   0.297   6.743  14.783  1.5176  0.2446 -0.2892
19710TIP3    H280546   0.183   6.687  14.701  0.3736 -0.3808  1.6409
19711TIP3   OH280547   3.717   5.077  15.214 -0.2929  0.5841  0.2986
19711TIP3    H180548   3.645   5.081  15.276  0.3259 -0.2483  1.1098
19711TIP3    H280549   3.746   4.985  15.217  1.4572  1.1035  0.7936
19712TIP3   OH280550   1.731   0.466  16.168  0.0221  0.3228  0.0197
19712TIP3    H180551   1.678   0.501  16.240  0.4569  0.5825  0.2184
19712TIP3    H280552   1.786   0.399  16.210 -0.3593 -0.1618 -0.2408
19713TIP3   OH280553   3.768   5.070  16.402  0.2320 -0.0109  0.8952
19713TIP3    H180554   3.722   5.134  16.456  0.5897 -0.6975  2.0421
19713TIP3    H280555   3.750   4.986  16.443  1.6187 -0.4035  0.7514
19714TIP3   OH280556   5.314   1.046  10.809  0.2537  0.3587 -0.4601
19714TIP3    H180557   5.320   1.108  10.736 -0.2979 -0.4207 -1.1985
19714TIP3    H280558   5.400   1.004  10.812  0.0138 -0.2183 -1.2445
19715TIP3   OH280559   0.213   5.808   5.953  0.1497 -0.2903 -0.2646
19715TIP3    H180560   0.154   5.770   6.018 -1.8338  0.7842 -1.3269
19715TIP3    H280561   0.292   5.755   5.959 -0.2479 -0.7349  2.4143
19716TIP3   OH280562   5.153   5.149  14.891 -0.0888 -0.3994 -0.4507
19716TIP3    H180563   5.087   5.137  14.823 -0.2561 -4.1126  0.1529
19716TIP3    H280564   5.107   5.195  14.962 -0.7610  0.7557 -1.5885
19717TIP3   OH280565   3.764   2.526   5.280 -0.0395 -0.2971  0.3783
19717TIP3    H180566   3.826   2.480   5.337  0.0139 -0.4685  0.1816
19717TIP3    H280567   3.799   2.515   5.192  0.0355  0.2249  0.3392
19718TIP3   OH280568   4.377   4.299   2.404 -0.3115  0.0293 -0.3805
19718TIP3    H180569   4.413   4.211   2.399 -0.1854  0.0235  0.4999
19718TIP3    H280570   4.443   4.354   2.362  1.7269  0.2964  2.8853
19719TIP3   OH280571   2.950   2.967  13.742  0.5512 -0.2092 -0.2079
19719TIP3    H180572   2.896   2.892  13.715  1.0831 -0.6459 -0.0889
19719TIP3    H280573   3.036   2.949  13.704 -0.2789  2.4345 -3.8094
19720TIP3   OH280574   5.191   3.403  16.941 -0.0971 -0.3012 -0.0498
19720TIP3    H180575   5.191   3.320  16.988  0.1352 -0.4659 -0.3354
19720TIP3    H280576   5.216   3.379  16.851 -2.3986 -0.2929 -0.7637
19721TIP3   OH280577   2.899   3.333  17.244  0.2980  0.5395 -0.1291
19721TIP3    H180578   2.979   3.300  17.204 -0.4985  0.6948 -1.9709
19721TIP3    H280579   2.928   3.398  17.308  1.6137  1.3166 -1.4632
19722TIP3   OH280580   4.586   1.744   2.832 -0.0630 -0.1194  0.8582
19722TIP3    H180581   4.634   1.722   2.912  0.4995 -1.8661  0.0968
19722TIP3    H280582   4.522   1.673   2.822 -0.6055  0.4617  0.1325
19723TIP3   OH280583   1.417   2.941   3.557 -0.3939  0.0374  0.0924
19723TIP3    H180584   1.475   2.900   3.492 -1.0018  0.1092 -0.5055
19723TIP3    H280585   1.332   2.899   3.544 -0.5911  0.2422  0.6667
19724TIP3   OH280586   3.245   2.266   0.045 -0.3152 -0.2443  0.3529
19724TIP3    H180587   3.204   2.310  -0.029 -1.2140 -1.7053 -0.0421
19724TIP3    H280588   3.179   2.268   0.114 -1.8576 -3.9769 -0.7687
19725TIP3   OH280589   0.800   0.925  14.549  0.1239  0.2617 -0.2882
19725TIP3    H180590   0.813   0.938  14.642  1.9267  1.3495 -0.6399
19725TIP3    H280591   0.788   0.830  14.539  0.5708  0.0569  0.9695
19726TIP3   OH280592   4.306   5.014  13.058  0.4342 -0.2339 -0.2906
19726TIP3    H180593   4.302   4.930  13.102  0.6156 -0.0182  0.1486
19726TIP3    H280594   4.400   5.032  13.048  0.5114  1.0177  1.8216
19727TIP3   OH280595   3.001   6.456  13.011 -0.2009  0.7533  0.0305
19727TIP3    H180596   3.026   6.432  13.101 -0.8294 -1.1860 -0.2612
19727TIP3    H280597   2.956   6.539  13.021  0.8596  1.2113  1.3475
19728TIP3   OH280598   4.658   3.601  11.793 -0.4044 -0.2188  0.1681
19728TIP3    H180599   4.672   3.516  11.834  0.0257  0.0094  0.5168
19728TIP3    H280600   4.632   3.658  11.866 -3.5466 -0.6648 -0.4669
19729TIP3   OH280601   3.439   1.843  13.550  0.0487  0.3458  0.6957
19729TIP3    H180602   3.471   1.753  13.554 -0.5762  0.1350  1.0430
19729TIP3    H280603   3.495   1.885  13.485  0.5445 -0.2084  0.7496
19730TIP3   OH280604   5.352   6.645  14.467 -0.0413 -0.2578 -0.3636
19730TIP3    H180605   5.279   6.700  14.495 -2.2199 -3.5187  0.9379
19730TIP3    H280606   5.415   6.650  14.539  0.8384  2.0832 -1.2166
19731TIP3   OH280607   2.028   1.921   0.912  0.6067  0.4109 -0.6037
19731TIP3    H180608   2.014   1.999   0.965  0.4485  0.0295 -0.0849
19731TIP3    H280609   2.119   1.928   0.883  1.1050 -0.0394  0.8040
19732TIP3   OH280610   4.037   3.744   5.344  0.2110  0.0303 -0.6082
19732TIP3    H180611   3.951   3.775   5.317 -0.4648 -0.2371  1.0956
19732TIP3    H280612   4.092   3.823   5.344 -0.6848  0.6992  0.6269
19733TIP3   OH280613   4.182   6.106   3.127  0.2887  0.2521  0.0745
19733TIP3    H180614   4.127   6.183   3.112 -0.0002  0.0554  0.1272
19733TIP3    H280615   4.135   6.055   3.193  1.4421  1.0120  1.5513
19734TIP3   OH280616   4.195   2.751  12.067 -0.4165 -0.2832 -0.1414
19734TIP3    H180617   4.198   2.752  12.162 -1.3184 -1.1300 -0.0917
19734TIP3    H280618   4.238   2.670  12.042 -2.2024 -1.2228 -0.3331
19735TIP3   OH280619   2.181   1.167   0.390 -0.2618  0.1765  0.3601
19735TIP3    H180620   2.272   1.168   0.421 -0.3970  1.7704  0.7684
19735TIP3    H280621   2.164   1.074   0.372  1.6315 -0.1030 -0.2992
19736TIP3   OH280622   3.286   4.828  16.635 -0.0722  0.7064  0.5411
19736TIP3    H180623   3.375   4.861  16.623 -0.1075  0.4389 -0.5470
19736TIP3    H280624   3.231   4.905  16.623 -0.0350  0.6852  0.2169
19737TIP3   OH280625   0.731   0.612   5.926  0.1025 -0.4384  0.4243
19737TIP3    H180626   0.780   0.683   5.885 -1.1102  0.2796  0.1942
19737TIP3    H280627   0.717   0.641   6.016  0.1412 -0.6713  0.5076
19738TIP3   OH280628   1.189   3.782  16.328 -0.5008 -0.2617 -0.3580
19738TIP3    H180629   1.258   3.835  16.288 -0.6252  2.1343  2.2531
19738TIP3    H280630   1.131   3.846  16.370 -0.6179 -2.3650  3.0931
19739TIP3   OH280631   4.409   1.014   2.530  0.9487  0.2161  0.5382
19739TIP3    H180632   4.416   0.936   2.476  1.6036  0.1819  0.6647
19739TIP3    H280633   4.335   1.062   2.494  0.2810 -0.6645  0.7171
19740TIP3   OH280634   0.372   6.737   3.266 -0.0637  0.0415  0.1558
19740TIP3    H180635   0.295   6.778   3.226 -1.0390 -1.7869  0.0833
19740TIP3    H280636   0.442   6.749   3.201 -0.7485  0.1326 -0.5792
19741TIP3   OH280637   4.091   0.704  16.622 -0.4069 -0.0051  0.3717
19741TIP3    H180638   4.070   0.742  16.537  0.6690  1.3486  0.6865
19741TIP3    H280639   4.056   0.766  16.686 -0.6632 -0.7076  0.9335
19742TIP3   OH280640   6.536   5.141   2.653  0.1653 -0.1811 -0.3023
19742TIP3    H180641   6.495   5.119   2.569  0.1027 -0.8950 -0.0989
19742TIP3    H280642   6.539   5.057   2.699  0.6013  0.1282  0.2310
19743TIP3   OH280643   6.558   0.982   2.412  0.3085 -0.3376 -0.8098
19743TIP3    H180644   6.463   0.974   2.421  0.3512 -0.5156 -0.4987
19743TIP3    H280645   6.579   1.067   2.452  0.5486 -1.3182  1.2641
19744TIP3   OH280646   6.692   2.996   2.200 -0.4170  0.4249  0.3188
19744TIP3    H180647   6.755   2.983   2.129 -1.1683 -1.7408 -0.0185
19744TIP3    H280648   6.665   3.088   2.192  1.8102  1.0989 -0.2193
19745TIP3   OH280649   4.434   0.200   3.640  0.1992 -0.6650  0.3264
19745TIP3    H180650   4.480   0.214   3.722 -1.0183 -0.8683  1.0776
19745TIP3    H280651   4.362   0.263   3.641 -0.5192 -1.4534 -0.0275
19746TIP3   OH280652   0.733   4.646   4.258  0.2051 -0.0939  0.2035
19746TIP3    H180653   0.761   4.671   4.170 -0.2742  0.5238  0.2156
19746TIP3    H280654   0.640   4.623   4.249  0.2506 -0.3873  0.4748
19747TIP3   OH280655   1.028   3.764  12.922  0.0928  0.1610  0.5102
19747TIP3    H180656   1.114   3.803  12.937  1.4346 -2.0066 -1.0264
19747TIP3    H280657   1.010   3.779  12.829 -0.2540 -1.0868  0.3562
19748TIP3   OH280658   3.182   0.495  14.917  0.0787 -0.3355 -0.0481
19748TIP3    H180659   3.230   0.578  14.919 -2.1176  0.9935  1.2093
19748TIP3    H280660   3.224   0.443  14.986  1.0324 -0.0294 -0.3753
19749TIP3   OH280661   3.813   2.664  11.259 -1.2178  0.4314 -0.1535
19749TIP3    H180662   3.879   2.707  11.204 -1.2976  0.8926  0.1071
19749TIP3    H280663   3.786   2.587  11.209 -0.1918  0.0183 -0.0862
19750TIP3   OH280664   3.470   5.040   3.684 -0.0789  0.5664  0.8647
19750TIP3    H180665   3.418   5.104   3.732 -0.4221  1.5964 -0.7994
19750TIP3    H280666   3.555   5.083   3.671 -0.3063  0.7151 -0.2477
19751TIP3   OH280667   6.450   4.053   0.313 -0.7130 -0.0132  0.4740
19751TIP3    H180668   6.455   3.967   0.270 -0.7475 -0.1557  0.7568
19751TIP3    H280669   6.434   4.114   0.241 -0.3147 -0.1980  0.2214
19752TIP3   OH280670   2.062   0.798   1.025 -0.8888  0.1105 -0.0774
19752TIP3    H180671   2.148   0.818   0.987  0.4682 -1.0767  2.1451
19752TIP3    H280672   2.006   0.783   0.949  0.5813  1.8520 -1.6334
19753TIP3   OH280673   2.047   3.142  13.059 -0.1977 -0.0678  0.4091
19753TIP3    H180674   2.028   3.125  13.151  0.0299  0.1009  0.4871
19753TIP3    H280675   2.070   3.056  13.023  1.5613  0.1457  0.9447
19754TIP3   OH280676   1.370   3.961  15.312  0.2537 -0.0241 -0.0879
19754TIP3    H180677   1.460   3.940  15.336  0.4513 -0.2546 -0.9874
19754TIP3    H280678   1.378   4.031  15.246 -0.1878 -0.4299 -0.5851
19755TIP3   OH280679   0.247   1.190   2.380 -0.4708 -0.4408  0.0755
19755TIP3    H180680   0.216   1.169   2.468 -0.8485 -2.3407 -0.4672
19755TIP3    H280681   0.335   1.152   2.376 -1.6654 -3.3692 -1.3583
19756TIP3   OH280682   4.555   4.504   2.360  0.4005  0.5484 -0.2930
19756TIP3    H180683   4.582   4.560   2.288  0.7294  1.7692  0.7330
19756TIP3    H280684   4.626   4.441   2.370  1.3931  1.7151  0.3006
19757TIP3   OH280685   3.550   6.386  13.371 -0.8013  0.5149  0.1218
19757TIP3    H180686   3.565   6.475  13.340  0.4225  0.5491  0.7371
19757TIP3    H280687   3.637   6.355  13.396 -1.4392 -0.2576  1.4947
19758TIP3   OH280688   0.322   3.163   2.411 -0.2277 -0.8209  0.1457
19758TIP3    H180689   0.338   3.248   2.370  0.2290 -0.6844  0.5972
19758TIP3    H280690   0.409   3.128   2.430 -0.4130 -0.3859  1.9951
19759TIP3   OH280691   0.406   2.978  14.467 -0.7077  0.0324  0.0823
19759TIP3    H180692   0.435   3.052  14.414 -0.5234  0.9058  1.3601
19759TIP3    H280693   0.330   3.011  14.515 -2.3139 -1.4523 -1.3265
19760TIP3   OH280694   4.187   1.926  11.375  0.3562 -0.4436 -0.4987
19760TIP3    H180695   4.130   1.901  11.303 -0.7795 -0.3914  0.3702
19760TIP3    H280696   4.266   1.873  11.362 -0.1227 -0.9686 -1.3646
19761TIP3   OH280697   4.401   3.643  14.709  0.3572 -0.3889  0.4143
19761TIP3    H180698   4.492   3.618  14.726  0.0096  0.0675  3.4750
19761TIP3    H280699   4.402   3.738  14.709  0.0377 -0.3657 -0.8498
19762TIP3   OH280700   6.415   3.976   2.161  0.1534 -0.1539 -0.2303
19762TIP3    H180701   6.486   3.985   2.224 -0.2592  1.4371  0.0574
19762TIP3    H280702   6.414   4.059   2.114 -1.2120 -0.3226 -0.5400
19763TIP3   OH280703   0.725   4.453  15.825  0.2017  0.5183  0.3289
19763TIP3    H180704   0.683   4.377  15.865 -1.0029  1.3846  0.7482
19763TIP3    H280705   0.781   4.489  15.894  2.0757 -0.8763 -0.3518
19764TIP3   OH280706   3.038   0.733  10.574 -0.2253  0.9562  0.2030
19764TIP3    H180707   2.953   0.696  10.552  1.6168 -2.2222 -2.5013
19764TIP3    H280708   3.052   0.707  10.665 -1.6266  0.5073  0.3151
19765TIP3   OH280709   6.551   5.646   1.293 -0.1189  0.5804  0.3635
19765TIP3    H180710   6.553   5.708   1.366  0.7696 -1.1681  1.9206
19765TIP3    H280711   6.523   5.563   1.333  2.0583 -0.8646 -0.9017
19766TIP3   OH280712   0.678   5.285   2.987 -1.1043  0.1280 -0.0575
19766TIP3    H180713   0.700   5.206   2.939 -0.7225  0.9529 -1.2673
19766TIP3    H280714   0.597   5.316   2.947 -1.9902 -0.3450  1.2882
19767TIP3   OH280715   3.812   5.370   3.557 -0.2255  0.3325  0.5078
19767TIP3    H180716   3.825   5.394   3.648  2.7228  1.5630 -0.0972
19767TIP3    H280717   3.825   5.452   3.509  0.8573 -0.7164 -1.1190
19768TIP3   OH280718   5.659   4.226   0.883 -0.1345  0.1272 -0.0757
19768TIP3    H180719   5.601   4.153   0.900 -0.6137  0.9743  2.2056
19768TIP3    H280720   5.624   4.298   0.935  1.1433  1.5858 -1.1209
19769TIP3   OH280721   2.268   1.687   3.329 -0.5717 -0.0250  0.1375
19769TIP3    H180722   2.279   1.762   3.387 -0.7210 -0.2776  0.4983
19769TIP3    H280723   2.297   1.612   3.381 -1.2138 -0.3221  0.0725
19770TIP3   OH280724   3.386   3.002   1.239  0.3264 -0.6216 -0.3078
19770TIP3    H180725   3.413   3.088   1.271  0.2682 -0.0449 -1.7243
19770TIP3    H280726   3.467   2.953   1.229  0.5742 -0.0288 -1.3914
19771TIP3   OH280727   2.678   0.173  14.475  0.4382 -0.3510  0.1571
19771TIP3    H180728   2.725   0.102  14.517 -0.2210  0.0756  1.6681
19771TIP3    H280729   2.586   0.148  14.480 -0.0454  1.5693  2.7870
19772TIP3   OH280730   6.183   6.564  16.354 -0.4433 -0.1764 -0.5126
19772TIP3    H180731   6.136   6.615  16.289 -0.8919  1.4269  0.9803
19772TIP3    H280732   6.116   6.539  16.418  0.4779  1.2848  1.1194
19773TIP3   OH280733   1.461   2.183  15.841 -0.1374  0.4525  0.3025
19773TIP3    H180734   1.448   2.112  15.904 -0.1287 -0.2567 -0.4704
19773TIP3    H280735   1.374   2.201  15.807  0.0987 -0.5601 -0.9232
19774TIP3   OH280736   0.027   1.935  11.616 -0.5273  0.3110  0.2526
19774TIP3    H180737   0.011   1.875  11.689  1.1194 -1.5300 -0.7650
19774TIP3    H280738   0.011   1.882  11.538  0.7464  1.2555 -0.7030
19775TIP3   OH280739   1.617   4.276   2.586  0.1432  0.1942  0.2533
19775TIP3    H180740   1.558   4.217   2.539  0.7048 -0.8856  0.8713
19775TIP3    H280741   1.559   4.328   2.642 -0.4615  1.0085 -1.0718
19776TIP3   OH280742   1.444   2.814   5.078 -0.6054 -0.5608 -0.1312
19776TIP3    H180743   1.506   2.853   5.017 -0.4728 -0.7491 -0.1195
19776TIP3    H280744   1.377   2.775   5.023  0.1125 -1.7456 -0.2175
19777TIP3   OH280745   0.282   0.463  13.507 -0.0278  0.2473  0.4612
19777TIP3    H180746   0.320   0.451  13.594  0.3810 -0.8194  0.1443
19777TIP3    H280747   0.189   0.482  13.524  0.3908  1.9016  1.1906
19778TIP3   OH280748   6.275   0.026  12.616  0.4849 -0.0405  0.1475
19778TIP3    H180749   6.234   0.092  12.673  3.3089  1.1539  0.9923
19778TIP3    H280750   6.203  -0.008  12.563 -1.5207  1.9968  1.3614
19779TIP3   OH280751   1.614   2.773  10.857  0.2617 -0.0920  0.2682
19779TIP3    H180752   1.624   2.740  10.768  0.2504  0.4659  0.0520
19779TIP3    H280753   1.589   2.865  10.845  2.0266  0.5139  0.8479
19780TIP3   OH280754   6.405   5.345  17.129  0.3725  0.1792  0.8974
19780TIP3    H180755   6.401   5.376  17.038 -0.6313 -0.5076  0.6951
19780TIP3    H280756   6.498   5.349  17.151  0.4716  1.8502  0.3796
19781TIP3   OH280757   5.000   5.179  17.222 -0.0608 -0.0877  0.0659
19781TIP3    H180758   4.939   5.136  17.283 -0.1126  2.0215  1.6181
19781TIP3    H280759   5.082   5.131  17.232 -0.1890 -0.0523  1.5164
19782TIP3   OH280760   3.414   2.223   3.259 -0.4040 -0.0010  0.9956
19782TIP3    H180761   3.495   2.174   3.249 -0.1267  0.6334 -0.1651
19782TIP3    H280762   3.394   2.220   3.352  0.9976 -0.1143  1.3075
19783TIP3   OH280763   1.082   4.215  10.630 -0.2019 -0.4306  0.3423
19783TIP3    H180764   1.158   4.198  10.574 -1.9278 -1.2376 -1.9391
19783TIP3    H280765   1.066   4.309  10.622  0.2733 -0.3413  0.4411
19784TIP3   OH280766   1.299   5.798  12.465  0.2994 -0.7490 -0.4342
19784TIP3    H180767   1.287   5.859  12.392 -0.5917  0.5211  0.7426
19784TIP3    H280768   1.276   5.848  12.543  2.1147 -1.7944  0.8533
19785TIP3   OH280769   5.966   3.217   3.055  0.0002 -0.1825  0.8059
19785TIP3    H180770   5.943   3.246   2.966  1.1626 -0.2439  0.4670
19785TIP3    H280771   6.061   3.204   3.052 -0.1525 -1.7577  1.6032
19786TIP3   OH280772   5.082   5.049  16.368 -0.7364  0.5388  0.4513
19786TIP3    H180773   5.164   5.063  16.320 -0.5528 -3.3488 -0.6645
19786TIP3    H280774   5.109   5.017  16.454 -1.0673 -0.0966  0.3233
19787TIP3   OH280775   3.065   3.629   3.474 -0.4522 -0.0581  0.2801
19787TIP3    H180776   3.018   3.549   3.496 -1.8199  0.5136 -0.4009
19787TIP3    H280777   3.066   3.630   3.378  1.7034 -0.4447  0.2594
19788TIP3   OH280778   0.432   5.486  11.958  0.5579  0.2721  0.2900
19788TIP3    H180779   0.412   5.487  12.051  1.8595 -1.8753  0.6507
19788TIP3    H280780   0.391   5.566  11.924 -2.7641 -0.5132  2.0633
19789TIP3   OH280781   3.053   1.321  13.079  0.6199  0.6338 -0.9738
19789TIP3    H180782   2.987   1.364  13.025  0.1537  0.2743 -0.6919
19789TIP3    H280783   3.079   1.388  13.142  1.0536  1.0070 -1.5333
19790TIP3   OH280784   0.972   6.105   2.397  0.1455  0.0889  0.1419
19790TIP3    H180785   0.935   6.018   2.381  1.3262 -0.0732 -2.1053
19790TIP3    H280786   0.910   6.147   2.457 -3.6961 -0.1942 -3.2046
19791TIP3   OH280787   3.894   4.042   0.156 -0.1521  0.0227  0.4273
19791TIP3    H180788   3.976   4.011   0.118  0.7304 -0.1312  2.3688
19791TIP3    H280789   3.852   3.964   0.191  0.8477  0.5656  3.0278
19792TIP3   OH280790   2.959   5.842  16.563  0.7204  0.3107 -0.0650
19792TIP3    H180791   3.008   5.924  16.568  1.6295 -0.2818  1.4498
19792TIP3    H280792   2.939   5.820  16.654 -3.2307  0.9861 -0.5766
19793TIP3   OH280793   5.936   1.502   3.627 -0.2640 -0.3370 -0.7786
19793TIP3    H180794   6.006   1.439   3.610 -0.0519  0.2900 -2.3921
19793TIP3    H280795   5.905   1.527   3.540  0.5838  2.8278 -0.2767
19794TIP3   OH280796   2.752   4.652   2.152  0.3572 -0.0913 -0.6748
19794TIP3    H180797   2.761   4.743   2.182  2.6480 -0.2533 -0.7303
19794TIP3    H280798   2.744   4.659   2.056 -1.4036  0.1036 -0.5575
19795TIP3   OH280799   1.879   2.564   5.708  0.0056  0.6748 -0.3829
19795TIP3    H180800   1.810   2.607   5.658 -0.3082  0.0195 -0.5151
19795TIP3    H280801   1.873   2.472   5.684 -0.4846  0.2429  1.2223
19796TIP3   OH280802   1.664   3.561   4.989  0.3433  0.3718 -0.0677
19796TIP3    H180803   1.610   3.516   4.924  0.3879 -0.4833  0.4796
19796TIP3    H280804   1.754   3.539   4.965  0.3893  0.5775 -0.0884
19797TIP3   OH280805   0.715   1.467  16.034 -0.0994  0.2677  0.6771
19797TIP3    H180806   0.780   1.443  16.100  0.1136  0.7896  0.6664
19797TIP3    H280807   0.634   1.479  16.083 -0.5645 -1.7891  0.5102
19798TIP3   OH280808   6.166   2.925  10.949  0.2063 -0.3935 -0.1089
19798TIP3    H180809   6.076   2.946  10.973  0.8058  0.3834  1.6057
19798TIP3    H280810   6.210   3.010  10.942  1.1185 -0.8063  0.4032
19799TIP3   OH280811   6.205   5.460   2.644 -0.2851  0.3288 -0.2262
19799TIP3    H180812   6.154   5.463   2.563  0.5039 -3.5524 -1.0859
19799TIP3    H280813   6.144   5.427   2.710  0.2098 -1.1998 -0.4867
19800TIP3   OH280814   0.826   2.205   1.921  0.2537  0.1663  0.7152
19800TIP3    H180815   0.748   2.152   1.909  0.8025 -0.0947 -2.3516
19800TIP3    H280816   0.795   2.295   1.918 -0.0129  0.0607  0.3181
19801TIP3   OH280817   3.748   0.776  14.149 -0.2998 -0.1750  0.3482
19801TIP3    H180818   3.719   0.685  14.149 -0.8137 -0.0145  0.5708
19801TIP3    H280819   3.688   0.821  14.089  0.8670 -0.2572 -0.9394
19802TIP3   OH280820   1.232   4.901   1.779  0.0274 -0.6505 -0.5076
19802TIP3    H180821   1.298   4.968   1.795 -0.4266  0.3459 -2.4457
19802TIP3    H280822   1.266   4.853   1.703  0.3556 -2.6886  0.8507
19803TIP3   OH280823   1.274   1.050   3.638 -0.2394  0.2309  0.1019
19803TIP3    H180824   1.345   1.102   3.676 -0.7973  1.2695 -0.2294
19803TIP3    H280825   1.216   1.030   3.712 -0.3303  0.5948  0.1296
19804TIP3   OH280826   6.412   0.467   5.328 -0.3709 -0.1578  0.0395
19804TIP3    H180827   6.401   0.548   5.379  1.2300 -0.1407  0.4097
19804TIP3    H280828   6.475   0.416   5.378  0.7664 -0.4160 -1.5822
19805TIP3   OH280829   0.657   4.962   1.652 -0.3507 -0.2494 -0.4462
19805TIP3    H180830   0.646   4.870   1.628  1.3363 -0.4505 -0.5177
19805TIP3    H280831   0.599   5.009   1.592 -1.8980 -1.2952  0.1665
19806TIP3   OH280832   0.633   2.448  11.570 -0.1605  0.2641 -0.5221
19806TIP3    H180833   0.718   2.448  11.525 -0.0850 -1.4252 -0.4753
19806TIP3    H280834   0.623   2.357  11.600 -2.0121  0.4133 -0.5817
19807TIP3   OH280835   6.753   2.184  15.629 -0.1613  0.0280 -0.1895
19807TIP3    H180836   6.838   2.145  15.607  0.1956  1.3730 -1.3043
19807TIP3    H280837   6.714   2.121  15.690  1.8515 -0.3672  0.7909
19808TIP3   OH280838   2.993   1.787  12.987 -0.5442 -0.4385  0.5349
19808TIP3    H180839   3.054   1.811  13.057  0.1170  1.6920 -0.6972
19808TIP3    H280840   3.047   1.741  12.923 -1.0310 -1.8457  1.0901
19809TIP3   OH280841   2.762   6.550  15.917  0.6185  0.0188  0.0744
19809TIP3    H180842   2.735   6.641  15.926  1.0445  0.1043  0.4900
19809TIP3    H280843   2.843   6.543  15.967  1.7563 -0.0735 -1.6927
19810TIP3   OH280844   5.601   2.096  12.728  0.4385  0.4410  0.2247
19810TIP3    H180845   5.667   2.071  12.792 -1.4440 -2.5652  1.2074
19810TIP3    H280846   5.540   2.151  12.777  1.5457  2.2902 -0.3913
19811TIP3   OH280847   3.206   6.200   5.205 -0.4332 -0.2134  0.6052
19811TIP3    H180848   3.260   6.183   5.127 -1.8005  1.8344 -0.8752
19811TIP3    H280849   3.270   6.221   5.274  0.7786  2.4988 -1.1751
19812TIP3   OH280850   2.636   3.114   4.185  0.6774 -0.1119 -0.2684
19812TIP3    H180851   2.726   3.146   4.185  0.5396  0.3801 -2.0556
19812TIP3    H280852   2.583   3.192   4.202  0.4118  0.5031 -3.3571
19813TIP3   OH280853   5.770   6.222   1.299 -0.4057  0.0489 -0.2832
19813TIP3    H180854   5.806   6.152   1.354  0.6062  0.6260 -0.1860
19813TIP3    H280855   5.705   6.265   1.353  1.2531  1.2289  0.8490
19814TIP3   OH280856   3.216   4.449  17.144  0.0232 -0.1825 -0.3519
19814TIP3    H180857   3.247   4.359  17.134  1.0364  0.1144  0.0582
19814TIP3    H280858   3.120   4.442  17.139  0.1505 -0.9770 -2.7667
19815TIP3   OH280859   2.350   0.710   2.999 -0.5647 -0.5585 -0.0369
19815TIP3    H180860   2.270   0.763   3.000 -0.9803 -1.1465  1.2598
19815TIP3    H280861   2.332   0.639   3.061  0.6849 -1.1416 -0.3038
19816TIP3   OH280862   3.068   6.575   3.105  0.2484 -0.0883 -0.1831
19816TIP3    H180863   3.152   6.620   3.095  0.5869 -1.2131 -3.1486
19816TIP3    H280864   3.086   6.502   3.164  0.3459  1.8256  2.3527
19817TIP3   OH280865   2.260   6.606  14.563  0.4095 -0.1165  0.2201
19817TIP3    H180866   2.220   6.662  14.497 -0.9137 -0.1785  0.9250
19817TIP3    H280867   2.230   6.518  14.540  0.9629 -0.2966  0.1868
19818TIP3   OH280868   0.079   3.003  12.533  0.1075 -0.1035  0.3267
19818TIP3    H180869   0.142   3.060  12.576  1.1908 -1.6125  0.8566
19818TIP3    H280870   0.117   2.915  12.543 -1.4367 -0.8984 -0.5204
19819TIP3   OH280871   3.862   4.245  13.257 -0.3960 -0.3977  0.2665
19819TIP3    H180872   3.837   4.196  13.179 -1.2324  0.8126 -0.2629
19819TIP3    H280873   3.795   4.313  13.265  0.3505  0.2392  1.3558
19820TIP3   OH280874   2.229   2.932  11.428  0.7030  0.1024 -0.1873
19820TIP3    H180875   2.252   2.914  11.337  1.2214 -3.2608  0.4869
19820TIP3    H280876   2.305   2.903  11.478 -0.5343 -0.4856  1.4478
19821TIP3   OH280877   2.934   2.019  16.413  0.8384  0.0097 -0.0356
19821TIP3    H180878   2.932   1.946  16.476  1.2089  0.3132  0.3302
19821TIP3    H280879   2.880   2.087  16.453  1.2817  0.2994  0.0740
19822TIP3   OH280880   3.806   3.548  15.208  1.0227 -0.4925 -0.5443
19822TIP3    H180881   3.741   3.576  15.271  0.8425 -1.1001 -0.4550
19822TIP3    H280882   3.764   3.476  15.160  1.4276 -0.5309 -0.8482
19823TIP3   OH280883   2.512   5.002  13.700  0.4187 -0.0927  0.0670
19823TIP3    H180884   2.436   5.018  13.756  0.4307  0.8137 -0.1613
19823TIP3    H280885   2.511   4.908  13.685 -1.1858 -0.0109 -0.6512
19824TIP3   OH280886   4.701   0.563   1.887  0.0440  0.1339  0.1745
19824TIP3    H180887   4.775   0.538   1.833  0.2478 -0.4719  0.7170
19824TIP3    H280888   4.740   0.605   1.964 -0.1689 -0.1886  0.4628
19825TIP3   OH280889   5.368   1.602   4.908  0.3065 -0.4840  0.1362
19825TIP3    H180890   5.404   1.617   4.995  1.5943 -0.1088 -0.4404
19825TIP3    H280891   5.273   1.611   4.919  0.4610 -0.3588  1.4672
19826TIP3   OH280892   1.020   2.960  12.883  0.2805  0.5774 -0.1667
19826TIP3    H180893   1.006   2.890  12.947  0.3399  0.7980  0.0901
19826TIP3    H280894   1.008   3.041  12.933 -0.2899  0.7523 -0.5781
19827TIP3   OH280895   1.803   5.936  15.371  0.0490 -0.2036  0.1732
19827TIP3    H180896   1.882   5.986  15.349  0.3120 -0.5749  0.2641
19827TIP3    H280897   1.827   5.887  15.450 -0.0716 -0.7954 -0.1562
19828TIP3   OH280898   4.859   1.655   3.454 -0.6225 -0.2834 -0.2807
19828TIP3    H180899   4.883   1.651   3.547 -0.0020 -1.1661 -0.4752
19828TIP3    H280900   4.812   1.738   3.446 -1.0501 -0.3868  0.9090
19829TIP3   OH280901   5.294   0.857   0.098  0.0554  0.5016 -0.5099
19829TIP3    H180902   5.231   0.806   0.149 -0.4974 -0.7211 -2.3038
19829TIP3    H280903   5.326   0.795   0.032  0.1098  2.2210 -2.1657
19830TIP3   OH280904   4.308   6.237   2.894  0.4621  0.1328 -0.4492
19830TIP3    H180905   4.310   6.172   2.825  1.0147 -1.5347  1.0727
19830TIP3    H280906   4.255   6.198   2.964 -0.2027  1.8164  0.0563
19831TIP3   OH280907   0.702   4.563  11.169  0.1251 -1.0138  0.8689
19831TIP3    H180908   0.775   4.551  11.231 -0.1249 -0.9809  1.1732
19831TIP3    H280909   0.743   4.558  11.083  1.1500  2.5720  0.9827
19832TIP3   OH280910   2.070   4.211   4.191 -0.3744  0.2133 -0.6122
19832TIP3    H180911   2.000   4.177   4.136 -2.8872  1.2718  1.6572
19832TIP3    H280912   2.093   4.295   4.151 -2.5376  1.2272  0.0915
19833TIP3   OH280913   6.392   4.603   6.438 -0.4873 -0.0016 -0.0654
19833TIP3    H180914   6.463   4.550   6.402  1.3515  1.4927  1.2048
19833TIP3    H280915   6.390   4.580   6.531 -0.0013  1.7092  0.3987
19834TIP3   OH280916   4.388   0.529  13.082  0.3195 -0.1421  0.0762
19834TIP3    H180917   4.460   0.483  13.126  0.4110 -0.7753 -0.6972
19834TIP3    H280918   4.328   0.459  13.055 -0.8924  0.4168  1.2040
19835TIP3   OH280919   5.754   4.776   6.291 -0.3622 -0.5972  0.3285
19835TIP3    H180920   5.683   4.756   6.352  0.6406 -2.5747  0.9339
19835TIP3    H280921   5.803   4.847   6.333 -1.7530  0.6111  0.0267
19836TIP3   OH280922   1.660   0.275   5.855  0.2568  0.0789 -0.0219
19836TIP3    H180923   1.647   0.348   5.916  1.6605 -0.5017  1.0555
19836TIP3    H280924   1.582   0.275   5.800  0.0846  2.2127  0.1149
19837TIP3   OH280925   6.571   3.391  12.542 -0.0128  0.3732 -0.5930
19837TIP3    H180926   6.626   3.444  12.484  0.7783  1.7666  1.3165
19837TIP3    H280927   6.619   3.309  12.551  2.5197  1.8799  1.7905
19838TIP3   OH280928   5.702   5.969  17.277  0.1081  0.4109  0.3005
19838TIP3    H180929   5.671   6.060  17.275  1.6767  0.9627 -0.1757
19838TIP3    H280930   5.797   5.976  17.281  0.2701 -1.2254 -0.0153
19839TIP3   OH280931   1.811   0.072  15.195  0.2737 -0.5196  0.0831
19839TIP3    H180932   1.736   0.132  15.203  1.0186  0.5039 -0.3622
19839TIP3    H280933   1.779   0.001  15.140 -0.6825 -0.6277  0.7557
19840TIP3   OH280934   1.605   0.338  13.610 -0.0277  0.7639 -0.7350
19840TIP3    H180935   1.687   0.364  13.569  1.2359  0.0259  1.1640
19840TIP3    H280936   1.571   0.269  13.553  2.0129 -0.7147 -0.2748
19841TIP3   OH280937   3.511   4.475   1.381  0.3790 -0.3320 -0.2018
19841TIP3    H180938   3.442   4.457   1.445 -0.0331  1.0560 -0.2169
19841TIP3    H280939   3.466   4.524   1.312  1.4644  1.0282  0.0230
19842TIP3   OH280940   3.771   2.388   2.092  0.5299 -0.8996  0.2220
19842TIP3    H180941   3.784   2.481   2.073 -0.3733 -0.5072  1.3829
19842TIP3    H280942   3.818   2.373   2.174  0.6925 -1.4773  0.0275
19843TIP3   OH280943   2.077   4.630   5.919 -0.4019  0.4870 -0.3641
19843TIP3    H180944   2.020   4.646   5.994 -1.5572  2.2172 -1.5410
19843TIP3    H280945   2.094   4.536   5.921 -4.5815 -0.4710 -0.8029
19844TIP3   OH280946   3.152   1.825   4.067 -0.0401  0.1849 -0.0492
19844TIP3    H180947   3.205   1.892   4.023  0.9599 -0.5715 -0.0097
19844TIP3    H280948   3.074   1.873   4.097 -0.5071  0.8375 -2.1489
19845TIP3   OH280949   5.498   6.114   0.151 -0.1857  0.3551 -0.1268
19845TIP3    H180950   5.482   6.033   0.101 -0.0023 -0.2609  0.7917
19845TIP3    H280951   5.424   6.171   0.128 -1.2452 -0.7112  0.4817
19846TIP3   OH280952   4.576   1.428  14.455 -0.2569 -0.0362 -0.5651
19846TIP3    H180953   4.660   1.473  14.449 -0.9204  1.1660 -1.2261
19846TIP3    H280954   4.554   1.406  14.364  0.2885 -2.2274 -0.2301
19847TIP3   OH280955   3.929   5.943   0.076 -0.5572  0.1173  0.1195
19847TIP3    H180956   3.963   6.013   0.020  0.6382 -2.3489 -2.4450
19847TIP3    H280957   4.004   5.919   0.131 -1.0451  0.9529  1.1891
19848TIP3   OH280958   1.449   3.090   3.158  0.5452  0.5499  0.1260
19848TIP3    H180959   1.377   3.144   3.125 -0.5293 -1.3736 -0.8139
19848TIP3    H280960   1.489   3.052   3.080  1.5580  0.2867  0.7444
19849TIP3   OH280961   4.340   2.793  14.318  0.4575 -0.2565  0.2216
19849TIP3    H180962   4.406   2.752  14.262 -0.0987 -0.1837 -0.5168
19849TIP3    H280963   4.268   2.812  14.258 -1.0869 -2.1777  1.3229
19850TIP3   OH280964   4.205   1.201  15.314 -0.1216  0.0402  0.1608
19850TIP3    H180965   4.123   1.248  15.298  0.4190  1.3467  1.0310
19850TIP3    H280966   4.182   1.132  15.376 -0.4862  0.7184  0.7993
19851TIP3   OH280967   0.808   2.457  17.006 -0.0812  0.3787 -0.0292
19851TIP3    H180968   0.773   2.492  17.087 -2.0684  0.7397 -0.9600
19851TIP3    H280969   0.816   2.363  17.022 -2.9163  0.0254 -0.1293
19852TIP3   OH280970   5.562   4.148   4.207 -0.8381  0.3445 -0.2000
19852TIP3    H180971   5.533   4.206   4.278 -1.3260  1.1311 -1.0193
19852TIP3    H280972   5.558   4.203   4.128  0.7161 -0.1880 -0.6937
19853TIP3   OH280973   4.905   3.033   3.421 -0.0613  0.1290 -0.1626
19853TIP3    H180974   4.819   3.011   3.385 -0.5357  0.8377  0.5192
19853TIP3    H280975   4.956   3.061   3.345 -0.6155  0.2649 -0.4881
19854TIP3   OH280976   0.370   2.944   1.179  0.1722 -0.3303  0.5363
19854TIP3    H180977   0.284   2.921   1.214  0.4037 -0.3514  1.0973
19854TIP3    H280978   0.432   2.906   1.240  0.5673  1.2187  1.1362
19855TIP3   OH280979   3.363   0.324   1.742  0.1159 -0.1111 -0.3006
19855TIP3    H180980   3.415   0.394   1.781 -0.4109  0.8378 -1.2757
19855TIP3    H280981   3.282   0.322   1.793 -0.3209  0.7241 -0.9535
19856TIP3   OH280982   5.817   6.020   2.143  0.5753 -0.3813  0.1560
19856TIP3    H180983   5.867   6.031   2.061 -0.0760 -0.1796 -0.2230
19856TIP3    H280984   5.757   5.948   2.126  1.5648 -1.4331  1.0334
19857TIP3   OH280985   2.894   3.854   2.950  0.2184 -0.0101 -0.0865
19857TIP3    H180986   2.985   3.852   2.921  0.2957 -2.2190  0.0960
19857TIP3    H280987   2.888   3.932   3.005  2.0199  0.1651 -0.0747
19858TIP3   OH280988   5.226   1.641  12.522  0.8926  0.2402  0.3293
19858TIP3    H180989   5.281   1.708  12.563  1.1804  1.3350 -1.6980
19858TIP3    H280990   5.282   1.602  12.454 -0.2160  0.0319 -0.4923
19859TIP3   OH280991   2.629   0.834  13.687  0.5139  0.4330 -1.0964
19859TIP3    H180992   2.565   0.851  13.618  0.3886  1.4207 -0.7541
19859TIP3    H280993   2.639   0.739  13.688 -0.1208  0.3490 -1.8934
19860TIP3   OH280994   0.164   0.340   2.380  0.4131  0.5071 -0.0427
19860TIP3    H180995   0.160   0.341   2.285 -2.1080  0.8710 -0.0076
19860TIP3    H280996   0.148   0.431   2.406  3.9569  1.0383  0.7812
19861TIP3   OH280997   1.290   4.924  13.887 -0.3099  0.5002  0.6158
19861TIP3    H180998   1.286   4.833  13.856  0.3093  0.0441  1.8055
19861TIP3    H280999   1.240   4.924  13.969  0.5723  0.9735  1.1785
19862TIP3   OH281000   1.674   0.767  11.610  0.1655  0.4799  0.0758
19862TIP3    H181001   1.614   0.696  11.587 -0.1069  0.1145  1.8071
19862TIP3    H281002   1.674   0.768  11.706  1.6109  1.6009  0.0862
19863TIP3   OH281003   2.805   2.068  11.859 -0.8109 -0.1407 -0.2563
19863TIP3    H181004   2.727   2.095  11.909 -0.5871 -1.9334  1.1802
19863TIP3    H281005   2.770   2.022  11.783 -1.1929 -0.6296  0.1999
19864TIP3   OH281006   0.385   0.358   5.884  0.1290 -0.4040 -0.4134
19864TIP3    H181007   0.345   0.271   5.891  1.2226 -1.0134 -1.2607
19864TIP3    H281008   0.411   0.380   5.973 -1.0590 -0.4771 -0.0268
19865TIP3   OH281009   0.616   1.639   0.111  0.0044  0.1737 -0.0856
19865TIP3    H181010   0.595   1.561   0.163  1.7615  1.6093  3.0105
19865TIP3    H281011   0.705   1.662   0.137 -0.6129  3.4816 -0.5184
19866TIP3   OH281012   1.578   1.177   2.801  0.5502  0.9232  0.3646
19866TIP3    H181013   1.522   1.102   2.780  1.2420  0.8787 -1.4983
19866TIP3    H281014   1.581   1.228   2.720  1.4639  2.0556  1.0904
19867TIP3   OH281015   1.508   4.796   5.135  0.6600 -0.2226 -0.3476
19867TIP3    H181016   1.502   4.716   5.082 -0.7412 -0.5345  0.2174
19867TIP3    H281017   1.483   4.768   5.223  0.8652  0.6955  0.0124
19868TIP3   OH281018   2.864   5.662   5.502 -0.0342  0.3235 -0.1730
19868TIP3    H181019   2.945   5.618   5.526 -0.0752  0.3805  0.0662
19868TIP3    H281020   2.820   5.600   5.443 -0.5483 -0.3853  0.9343
19869TIP3   OH281021   5.470   2.083   5.202 -0.5158  0.3057 -0.5559
19869TIP3    H181022   5.410   2.052   5.134  0.5441 -0.9269 -0.9696
19869TIP3    H281023   5.553   2.094   5.157  0.4040 -1.2604  0.6607
19870TIP3   OH281024   4.867   4.947   6.641  0.3619  0.0452  0.6505
19870TIP3    H181025   4.834   5.018   6.586 -2.6602 -1.0238  0.9118
19870TIP3    H281026   4.870   4.985   6.729  0.9691  0.4602  0.4653
19871TIP3   OH281027   4.137   6.484  14.751  0.4059 -0.4890 -0.9213
19871TIP3    H181028   4.213   6.427  14.764  0.4075  0.0472  2.1477
19871TIP3    H281029   4.148   6.553  14.817 -1.1923  1.3395 -2.4722
19872TIP3   OH281030   4.465   3.813  16.351  0.0506 -0.3826 -0.2438
19872TIP3    H181031   4.387   3.756  16.352 -2.5186  2.7989 -1.2801
19872TIP3    H281032   4.496   3.812  16.442 -2.4841 -0.2607  0.7258
19873TIP3   OH281033   1.810   0.494  12.278 -0.6719 -0.1796  0.4681
19873TIP3    H181034   1.832   0.586  12.292 -2.8749  0.2789  1.3958
19873TIP3    H281035   1.754   0.471  12.353 -1.3302 -1.8495 -0.4818
19874TIP3   OH281036   0.309   3.851   5.088 -0.8624 -0.0499  0.0368
19874TIP3    H181037   0.249   3.783   5.060  0.3519 -0.8450 -0.7748
19874TIP3    H281038   0.381   3.804   5.130  0.4841  0.5819 -1.4188
19875TIP3   OH281039   4.723   2.963  15.203  0.4235 -0.3808 -0.6518
19875TIP3    H181040   4.731   2.977  15.109 -0.4816  3.1250 -0.3608
19875TIP3    H281041   4.809   2.932  15.230  1.3649  0.5682 -2.3625
19876TIP3   OH281042   1.484   6.571  12.885  0.2594  0.4476 -0.2268
19876TIP3    H181043   1.467   6.522  12.805  3.0720 -0.1808 -0.5541
19876TIP3    H281044   1.489   6.504  12.954 -2.4337  1.0037  0.6289
19877TIP3   OH281045   1.536   1.571  15.094  0.0294 -0.5179  0.2467
19877TIP3    H181046   1.492   1.569  15.179  0.0455  0.2284  0.2798
19877TIP3    H281047   1.482   1.516  15.037 -0.2043 -0.6861  0.6272
19878TIP3   OH281048   1.744   5.084  12.203 -0.6716 -0.7832 -0.0772
19878TIP3    H181049   1.685   5.143  12.156  0.8570  0.9916  0.1095
19878TIP3    H281050   1.817   5.070  12.143  0.5211  0.1853  1.0861
19879TIP3   OH281051   0.860   2.421   0.570  0.0900  0.2428  0.3228
19879TIP3    H181052   0.818   2.350   0.619 -1.3805  0.5237 -0.4868
19879TIP3    H281053   0.860   2.495   0.631  2.5529 -0.6521  1.5435
19880TIP3   OH281054   6.719   3.926   4.072 -0.1295  0.2068  0.3177
19880TIP3    H181055   6.761   4.007   4.102 -1.7534  1.2708 -0.1633
19880TIP3    H281056   6.631   3.929   4.110 -1.0106 -0.1676 -1.5949
19881TIP3   OH281057   1.320   5.914  11.529 -0.5085 -0.2062  0.1383
19881TIP3    H181058   1.370   5.839  11.562 -1.9395 -0.5855  1.5744
19881TIP3    H281059   1.384   5.985  11.523  0.6626 -1.2593 -0.2762
19882TIP3   OH281060   1.541   3.891  15.587  0.2509  0.4301 -0.0502
19882TIP3    H181061   1.596   3.936  15.650  0.0931  1.7149 -0.7792
19882TIP3    H281062   1.584   3.906  15.502 -1.0794  1.3449 -0.6182
19883TIP3   OH281063   0.150   1.919  11.148  0.1761 -0.0185 -0.1675
19883TIP3    H181064   0.224   1.896  11.093 -0.3137 -0.7143 -0.5532
19883TIP3    H281065   0.080   1.861  11.120 -0.3904  0.3244  0.4888
19884TIP3   OH281066   4.250   5.268   5.716  0.3495 -0.1767  1.0725
19884TIP3    H181067   4.250   5.228   5.629 -1.2539 -1.6108  1.6649
19884TIP3    H281068   4.321   5.333   5.714  0.5962 -0.4619 -1.1501
19885TIP3   OH281069   4.045   5.653   1.658  0.4379  0.3498  0.0596
19885TIP3    H181070   3.959   5.694   1.663  0.0252 -0.4948  0.0266
19885TIP3    H281071   4.030   5.570   1.612  1.3244  0.3418 -0.2429
19886TIP3   OH281072   5.914   6.074   5.362 -0.4936  0.0220 -0.4494
19886TIP3    H181073   5.935   5.981   5.349 -3.3270 -0.9576  0.9132
19886TIP3    H281074   5.906   6.082   5.457  0.8275  2.0094 -0.4610
19887TIP3   OH281075   0.506   0.605  14.631 -0.2579  0.0404  0.2128
19887TIP3    H181076   0.469   0.536  14.575 -0.7354  1.2561 -1.0383
19887TIP3    H281077   0.446   0.678  14.620  0.2811  0.6846  1.4672
19888TIP3   OH281078   0.439   2.447  14.993  0.0173  0.9191  0.1180
19888TIP3    H181079   0.427   2.521  15.052 -0.5611 -0.0449  1.2710
19888TIP3    H281080   0.528   2.457  14.959  0.3257  1.5709  1.0675
19889TIP3   OH281081   1.157   4.749  15.253 -0.5851 -0.1583 -0.2617
19889TIP3    H181082   1.201   4.671  15.220 -0.9183  0.1839 -1.5881
19889TIP3    H281083   1.083   4.762  15.194 -1.9211 -0.1599  1.3312
19890TIP3   OH281084   1.051   4.688  13.382  0.1190 -0.2222  0.6303
19890TIP3    H181085   1.135   4.721  13.349  1.3082 -1.0509  2.6570
19890TIP3    H281086   1.007   4.655  13.304  2.5901 -1.7268 -0.2634
19891TIP3   OH281087   4.173   0.072  15.873 -0.0591 -0.1955  0.0583
19891TIP3    H181088   4.150  -0.020  15.868 -0.9785  0.0224  0.2112
19891TIP3    H281089   4.140   0.110  15.791  0.4881 -0.0286 -0.0958
19892TIP3   OH281090   2.920   5.855   0.747  0.1065  0.1318 -0.0178
19892TIP3    H181091   2.872   5.892   0.673 -0.9387 -1.5691 -0.2463
19892TIP3    H281092   2.852   5.820   0.804  0.8773  1.6755  1.9372
19893TIP3   OH281093   1.774   3.857  12.782 -0.4008 -0.2333  0.4507
19893TIP3    H181094   1.790   3.897  12.696  0.0469 -1.4730 -0.0694
19893TIP3    H281095   1.680   3.867  12.796 -0.4498  0.1383 -0.1118
19894TIP3   OH281096   2.961   2.695  13.967 -0.2051 -0.0357 -0.5999
19894TIP3    H181097   2.880   2.674  14.014 -0.7196  0.3929 -1.2899
19894TIP3    H281098   2.934   2.711  13.877  0.4681  1.4228 -0.5676
19895TIP3   OH281099   5.415   2.149   4.412 -0.1633 -0.0183  0.3294
19895TIP3    H181100   5.437   2.142   4.319 -1.1640 -0.6273  0.1224
19895TIP3    H281101   5.437   2.064   4.449 -1.0356 -0.2432  0.3559
19896TIP3   OH281102   3.002   5.562  17.135  0.2859  0.2638  0.0716
19896TIP3    H181103   2.929   5.520  17.090 -0.1579  0.2560  0.7838
19896TIP3    H281104   2.965   5.644  17.169 -0.0437 -0.7476  2.3502
19897TIP3   OH281105   5.441   3.193  12.660 -0.3509 -0.5299 -0.1458
19897TIP3    H181106   5.379   3.162  12.727  0.6905 -3.0259 -0.2361
19897TIP3    H281107   5.391   3.188  12.578 -1.0986  0.9271  0.1816
19898TIP3   OH281108   6.319   5.922   1.309 -0.2076 -0.0391 -0.3660
19898TIP3    H181109   6.288   6.008   1.282  0.6480 -0.0488 -1.4509
19898TIP3    H281110   6.400   5.940   1.357 -1.8128  0.0009  2.5763
19899TIP3   OH281111   3.966   2.760  14.391  0.0354 -0.1643 -0.1150
19899TIP3    H181112   3.971   2.854  14.372 -2.1813  0.2723  1.1597
19899TIP3    H281113   3.976   2.754  14.486  2.6109 -1.5234 -0.3593
19900TIP3   OH281114   4.897   4.766  11.550 -0.0850 -0.0576 -0.5773
19900TIP3    H181115   4.930   4.846  11.509  0.1906 -0.5953 -1.4395
19900TIP3    H281116   4.873   4.709  11.477 -2.0903 -0.0575  0.0126
19901TIP3   OH281117   4.513   2.108  11.749 -0.1463  0.4766  0.4829
19901TIP3    H181118   4.426   2.071  11.762 -0.5531  1.3128  0.2440
19901TIP3    H281119   4.551   2.058  11.677 -0.8004  0.7107 -0.0341
19902TIP3   OH281120   3.377   2.353   1.585 -0.9891  0.0496 -0.6390
19902TIP3    H181121   3.346   2.335   1.497 -2.1078 -2.3401  0.1609
19902TIP3    H281122   3.466   2.317   1.587 -0.8508  0.3736 -0.8575
19903TIP3   OH281123   6.619   2.586  11.998 -0.2686  0.2501  0.0881
19903TIP3    H181124   6.538   2.636  11.991 -0.6676 -0.3481  0.3595
19903TIP3    H281125   6.687   2.646  11.966 -0.9662  0.3335 -1.3297
19904TIP3   OH281126   6.622   4.862  13.267  0.0093  0.3928 -0.0144
19904TIP3    H181127   6.557   4.796  13.293  0.6583 -0.0886  0.3939
19904TIP3    H281128   6.667   4.885  13.348  0.9918  0.0209 -0.4415
19905TIP3   OH281129   5.821   6.169  14.290 -1.0756  0.1843 -0.3765
19905TIP3    H181130   5.880   6.241  14.269 -0.4031 -0.1582  0.3218
19905TIP3    H281131   5.746   6.211  14.333 -0.6231  0.4506  0.1595
19906TIP3   OH281132   3.560   2.070  11.328  0.4125  0.4009 -0.5900
19906TIP3    H181133   3.652   2.095  11.330  0.1899  1.2153 -0.3859
19906TIP3    H281134   3.540   2.060  11.235  0.6178  0.5423 -0.6503
19907TIP3   OH281135   5.133   0.597   3.675  0.4569 -0.2393 -0.4986
19907TIP3    H181136   5.176   0.673   3.714  1.6132 -0.3162 -1.5645
19907TIP3    H281137   5.043   0.627   3.658  1.0250  1.0959 -1.3777
19908TIP3   OH281138   2.389   3.281   5.533 -0.1957 -0.2357 -0.4203
19908TIP3    H181139   2.305   3.325   5.538 -0.1279  0.1368 -1.9626
19908TIP3    H281140   2.367   3.190   5.511 -0.1910 -0.0183 -1.3589
19909TIP3   OH281141   0.328   5.616  12.994  0.5618  0.0270 -0.3394
19909TIP3    H181142   0.419   5.645  12.990  1.0348 -1.0540  1.3817
19909TIP3    H281143   0.327   5.549  13.063 -1.7027  0.6193  0.2992
19910TIP3   OH281144   0.148   0.995  15.409  0.3157  0.5449 -0.5072
19910TIP3    H181145   0.068   1.041  15.436 -0.2741 -0.3559 -0.6645
19910TIP3    H281146   0.182   1.046  15.336 -0.3566  0.7108 -0.7108
19911TIP3   OH281147   1.194   0.022  13.638  0.3796 -0.6410 -0.5672
19911TIP3    H181148   1.147   0.088  13.586  1.0272 -0.5396 -1.0291
19911TIP3    H281149   1.129  -0.009  13.701  0.3569  1.2790  0.4449
19912TIP3   OH281150   2.258   2.635   1.550 -0.4076  0.6898  0.0008
19912TIP3    H181151   2.256   2.552   1.597 -0.2194  0.9159  0.4074
19912TIP3    H281152   2.351   2.649   1.530 -0.6068 -0.1365 -1.7566
19913TIP3   OH281153   0.483   0.157  12.662 -0.3184 -0.0389  0.4692
19913TIP3    H181154   0.424   0.232  12.653  0.1693  0.2020 -0.9865
19913TIP3    H281155   0.440   0.101  12.727 -2.4610 -0.1565 -0.9481
19914TIP3   OH281156   2.697   5.588  16.138  0.1094  0.1050  0.0439
19914TIP3    H181157   2.646   5.649  16.191 -1.2490  0.0474 -1.1130
19914TIP3    H281158   2.655   5.503  16.153  0.8299 -0.2225  0.2308
19915TIP3   OH281159   5.112   2.041  10.853  0.4055  0.3373 -0.0001
19915TIP3    H181160   5.200   2.078  10.860 -0.2904  2.1513 -0.3407
19915TIP3    H281161   5.069   2.064  10.935 -0.1501  0.5889 -0.3544
19916TIP3   OH281162   0.068   3.596  16.406 -0.0619  0.1692  0.1170
19916TIP3    H181163   0.130   3.559  16.342 -1.1104 -1.2669 -0.1237
19916TIP3    H281164  -0.017   3.563  16.379 -0.5566 -0.4379  2.2267
19917TIP3   OH281165   1.938   0.947   3.370 -0.0943  0.0322  0.0721
19917TIP3    H181166   1.948   0.887   3.444 -0.4776  0.1180  0.1914
19917TIP3    H281167   1.973   1.030   3.402  0.3739 -0.1062 -0.0708
19918TIP3   OH281168   5.533   5.943   4.581 -0.7280 -0.3502 -0.9076
19918TIP3    H181169   5.531   5.849   4.565 -0.6011 -0.6605  0.6731
19918TIP3    H281170   5.536   5.983   4.494 -0.0056 -1.8155 -1.5866
19919TIP3   OH281171   6.197   4.506   6.655 -0.0117  0.0193  0.1851
19919TIP3    H181172   6.139   4.468   6.721  1.0518  0.9102  1.6930
19919TIP3    H281173   6.252   4.434   6.625 -0.2506 -0.3145  0.5530
19920TIP3   OH281174   2.724   4.952  12.216 -0.4270 -0.1543  1.1477
19920TIP3    H181175   2.645   4.999  12.243 -0.7453 -0.0941  0.1843
19920TIP3    H281176   2.691   4.875  12.170  0.0182  0.5313 -0.4237
19921TIP3   OH281177   1.363   0.717   2.281  0.4570 -0.2384 -0.3865
19921TIP3    H181178   1.345   0.747   2.192 -3.5621  0.2900  0.4153
19921TIP3    H281179   1.400   0.793   2.325  0.1899  0.2627 -1.0073
19922TIP3   OH281180   2.035   3.366   2.654 -0.1235 -0.6777  0.1950
19922TIP3    H181181   2.052   3.272   2.651  2.7766 -0.3042 -3.2739
19922TIP3    H281182   1.983   3.384   2.576  1.4898  0.7628 -0.6462
19923TIP3   OH281183   1.189   0.148   0.396  0.3100 -0.1415  0.7123
19923TIP3    H181184   1.206   0.176   0.307 -1.4370 -1.7408 -0.2031
19923TIP3    H281185   1.094   0.153   0.405  0.3285 -1.3864  1.9776
19924TIP3   OH281186   5.985   0.187   5.835  0.3960  0.2395 -0.1127
19924TIP3    H181187   5.938   0.242   5.897  1.0980  0.7695 -0.0379
19924TIP3    H281188   5.933   0.191   5.755 -0.6560 -0.6626  0.5053
19925TIP3   OH281189   3.693   5.045  17.064  0.0616  0.0669 -0.0432
19925TIP3    H181190   3.620   5.018  17.007 -0.2361  0.7151  0.0299
19925TIP3    H281191   3.655   5.046  17.152 -0.1693  1.5328 -0.1363
19926TIP3   OH281192   2.133   2.749  17.073  0.3772  0.0688 -0.2306
19926TIP3    H181193   2.070   2.776  17.140 -1.0136 -0.9457 -1.0592
19926TIP3    H281194   2.106   2.659  17.051  1.8016 -0.1947 -0.9977
19927TIP3   OH281195   1.579   3.058  10.841  0.4679 -0.1625  0.2532
19927TIP3    H181196   1.573   3.126  10.908  0.5803 -1.5999  1.7925
19927TIP3    H281197   1.642   3.091  10.777  0.0815  1.3995  0.6543
19928TIP3   OH281198   3.949   0.313  10.947 -0.2639 -0.0764  0.0973
19928TIP3    H181199   3.968   0.260  11.024  0.8030  0.0664 -0.0584
19928TIP3    H281200   3.858   0.340  10.958  0.0332  0.3646  1.5678
19929TIP3   OH281201   6.588   4.280  13.059  0.3577  0.0826 -0.0825
19929TIP3    H181202   6.649   4.306  12.990  0.7332  0.8778  0.5153
19929TIP3    H281203   6.589   4.354  13.120 -0.1105 -0.5117  0.6674
19930TIP3   OH281204   0.140   2.445   6.105  0.0023  0.0833 -0.1340
19930TIP3    H181205   0.090   2.505   6.160  0.0606  0.3633 -0.3820
19930TIP3    H281206   0.215   2.497   6.076  1.2248 -0.7495  1.3776
19931TIP3   OH281207   4.327   4.985  14.900  0.1069  0.1943  0.2286
19931TIP3    H181208   4.302   4.983  14.807 -0.9942  1.0213  0.4843
19931TIP3    H281209   4.391   4.914  14.909 -0.2009 -0.2791 -1.0394
19932TIP3   OH281210   3.336   0.403   0.689  0.5479 -0.5670 -0.5596
19932TIP3    H181211   3.386   0.330   0.654  2.9571  1.0773 -0.7845
19932TIP3    H281212   3.325   0.382   0.782  1.3634 -1.1553 -0.5848
19933TIP3   OH281213   3.217   0.832   2.190 -0.1111  0.2719 -0.0350
19933TIP3    H181214   3.302   0.877   2.187  0.2243 -0.3922 -0.6420
19933TIP3    H281215   3.160   0.885   2.135 -0.5932  1.6822  1.7015
19934TIP3   OH281216   1.940   5.910   2.058 -0.0145  1.0189 -0.6305
19934TIP3    H181217   1.936   6.003   2.081  1.4429  1.2893 -1.3227
19934TIP3    H281218   1.954   5.866   2.142 -0.2507  1.4661 -0.3504
19935TIP3   OH281219   6.615   5.611  11.774  0.2464 -0.5011  0.0582
19935TIP3    H181220   6.565   5.679  11.729  0.3564 -2.0086 -2.5084
19935TIP3    H281221   6.699   5.653  11.795 -0.1623  0.5146 -0.2576
19936TIP3   OH281222   3.323   2.286  11.307  0.1119 -0.4323 -0.4144
19936TIP3    H181223   3.391   2.237  11.260  0.1827 -0.8134  0.0799
19936TIP3    H281224   3.303   2.360  11.249  1.6242  0.2293 -0.1312
19937TIP3   OH281225   1.476   1.296   3.369  0.0835  0.1520 -0.1751
19937TIP3    H181226   1.408   1.228   3.374 -0.5475  0.7073 -0.9756
19937TIP3    H281227   1.499   1.313   3.461  0.3503 -1.2269  0.0315
19938TIP3   OH281228   1.848   4.669  13.214  0.0549  0.3056 -0.1468
19938TIP3    H181229   1.889   4.587  13.185  1.1054  0.1246  1.7083
19938TIP3    H281230   1.889   4.737  13.160  0.5415 -0.2010 -0.4205
19939TIP3   OH281231   3.366   4.348  14.319 -0.0493  0.3720  0.0782
19939TIP3    H181232   3.368   4.260  14.354  3.5582 -0.1248 -0.9548
19939TIP3    H281233   3.339   4.403  14.392 -0.7520 -1.4157  1.2135
19940TIP3   OH281234   1.488   5.802   3.321  0.3054  1.0907  0.5493
19940TIP3    H181235   1.512   5.750   3.244  0.6459  0.0526  1.3310
19940TIP3    H281236   1.460   5.886   3.285 -0.6712  0.2411 -0.7933
19941TIP3   OH281237   1.262   6.418   1.517 -0.0173 -0.3988  0.1623
19941TIP3    H181238   1.203   6.366   1.463  0.4729 -0.0726 -0.7234
19941TIP3    H281239   1.342   6.424   1.465  0.6962 -0.5943  1.2131
19942TIP3   OH281240   0.391   4.059   2.063  0.6183 -0.0505  0.1596
19942TIP3    H181241   0.301   4.032   2.084  0.3622  0.3874 -0.3413
19942TIP3    H281242   0.445   4.013   2.127 -0.0100  0.1340  0.8378
19943TIP3   OH281243   0.389   0.057   4.815 -1.2167 -0.6575  0.2327
19943TIP3    H181244   0.344   0.109   4.882  1.0655 -0.7291  1.9523
19943TIP3    H281245   0.425   0.122   4.755 -2.5123 -0.5533 -0.4779
19944TIP3   OH281246   0.581   4.177   4.664  0.2710  0.0723 -0.0989
19944TIP3    H181247   0.556   4.251   4.609 -0.6296 -0.5756 -0.5812
19944TIP3    H281248   0.636   4.216   4.732  0.8904  0.9804 -1.0879
19945TIP3   OH281249   2.046   3.534   1.442  0.6817 -0.2693  0.0175
19945TIP3    H181250   2.134   3.570   1.435  0.7265  0.2517  2.4217
19945TIP3    H281251   2.057   3.440   1.425  1.2078  0.1454 -2.2888
19946TIP3   OH281252   6.717   5.843   0.801  0.2983 -0.3738 -0.1579
19946TIP3    H181253   6.745   5.753   0.788  0.4754 -0.6639  1.9712
19946TIP3    H281254   6.712   5.854   0.896  0.2874  1.8612 -0.3563
19947TIP3   OH281255   4.826   6.373   0.428  0.3055 -0.2453  0.3113
19947TIP3    H181256   4.826   6.312   0.354  1.1372 -0.1047  0.1900
19947TIP3    H281257   4.733   6.393   0.442  0.1180 -0.4888 -0.5211
19948TIP3   OH281258   2.034   1.348  11.044  0.3907 -0.0075 -0.5271
19948TIP3    H181259   2.111   1.345  11.102  0.2036  0.8254 -0.2160
19948TIP3    H281260   1.989   1.429  11.069 -0.8972 -0.7616 -0.3211
19949TIP3   OH281261   2.911   4.754  13.118 -0.0262  0.8670  0.0417
19949TIP3    H181262   2.990   4.700  13.113  0.1733  1.2067 -0.4378
19949TIP3    H281263   2.841   4.691  13.139  0.0448  0.2731 -1.3830
19950TIP3   OH281264   1.925   4.535   3.918 -0.2154 -0.0968 -0.1122
19950TIP3    H181265   1.958   4.602   3.978  2.7806  0.9635 -2.6604
19950TIP3    H281266   1.902   4.584   3.839 -0.1489 -1.8406 -1.2500
19951TIP3   OH281267   1.542   5.581  14.631  0.0170  0.3033 -0.4022
19951TIP3    H181268   1.483   5.626  14.571 -1.7794 -0.8154  0.4559
19951TIP3    H281269   1.559   5.496  14.590 -0.9414 -0.3302  0.4744
19952TIP3   OH281270   2.531   2.393   2.417  0.2561 -0.5976 -0.0188
19952TIP3    H181271   2.591   2.419   2.347  2.2017  0.9712  2.0754
19952TIP3    H281272   2.588   2.358   2.486 -1.2201  0.7201  1.9831
19953TIP3   OH281273   2.693   2.167  14.910  0.3799 -0.7799  0.3530
19953TIP3    H181274   2.609   2.129  14.885  0.8686 -1.8866  0.3260
19953TIP3    H281275   2.703   2.145  15.003  0.0167  0.5650  0.7321
19954TIP3   OH281276   1.611   5.401  16.558  0.0367  0.0346 -0.0629
19954TIP3    H181277   1.658   5.333  16.607 -1.1202  0.3785  1.6006
19954TIP3    H281278   1.679   5.465  16.535  0.5521  0.1300  1.6044
19955TIP3   OH281279   5.123   4.817   2.278 -0.4965  0.5353 -0.2673
19955TIP3    H181280   5.117   4.782   2.366 -1.4110 -1.4289 -1.0469
19955TIP3    H281281   5.217   4.812   2.256 -0.6050 -1.7140 -0.4033
19956TIP3   OH281282   5.873   0.084   3.131 -0.1927  0.4255  0.3723
19956TIP3    H181283   5.828   0.105   3.212 -0.1636  0.6642  0.3277
19956TIP3    H281284   5.923   0.005   3.151 -0.3483  0.3658  0.5260
19957TIP3   OH281285   2.142   4.773   2.053  0.1866  0.3953 -0.4412
19957TIP3    H181286   2.088   4.740   1.981 -1.7054 -0.1967  1.1497
19957TIP3    H281287   2.142   4.702   2.117  2.4396  0.6186 -0.1157
19958TIP3   OH281288   4.778   0.464  11.978 -0.4043  0.3354  0.3854
19958TIP3    H181289   4.720   0.409  11.926  1.7951 -1.1038 -0.7292
19958TIP3    H281290   4.804   0.409  12.052  0.1295  0.6504  0.4419
19959TIP3   OH281291   4.281   0.207  15.571  0.5245  0.1303 -0.1462
19959TIP3    H181292   4.306   0.180  15.482  2.0111  1.8704 -0.3254
19959TIP3    H281293   4.365   0.215  15.617 -0.0755  1.3421  0.7674
19960LIG      S81294   3.319   3.240  16.311 -0.2503  0.0962 -0.0202
19960LIG     F181295   2.910   3.303  16.702  0.2471 -0.5770 -0.3177
19960LIG     F281296   2.939   3.094  16.667 -0.7685 -0.3665 -0.1484
19960LIG     F381297   2.997   3.188  16.846  0.2344  0.0672 -0.1232
19960LIG     N181298   3.525   3.333  16.504 -0.4956  0.2263  0.7443
19960LIG     N281299   3.454   3.383  16.789 -0.9245  0.3827 -0.3814
19960LIG     C181300   3.668   3.300  16.548 -0.2216 -0.2873 -0.3097
19960LIG     C281301   3.399   3.293  16.566  0.0027  0.1915 -0.6401
19960LIG     C381302   3.746   3.236  16.439 -0.4484 -0.4458  0.2655
19960LIG     C481303   3.505   3.418  16.394  0.1071  0.4190  0.8994
19960LIG     C581304   3.294   3.245  16.488 -0.2608 -0.3806 -0.1903
19960LIG     C681305   3.416   3.388  16.290 -0.2108  0.5446  0.2732
19960LIG     C781306   3.360   3.316  16.707 -0.2598 -0.3451  0.0652
19960LIG     C881307   3.687   3.097  16.403 -0.1396 -0.8884  0.2048
19960LIG     C981308   3.166   3.220  16.532 -0.3200 -0.1692 -0.0213
19960LIG    C1081309   3.135   3.225  16.670 -0.4822 -0.3540 -0.1844
19960LIG    C1181310   3.573   3.534  16.379  0.2332 -0.5558  0.3097
19960LIG    C1281311   3.235   3.277  16.753  0.7198 -0.7811 -0.3951
19960LIG    C1381312   3.388   3.477  16.182  0.3957 -0.0583  0.3596
19960LIG    C1481313   3.757   3.032  16.288  0.2816 -0.1834  0.0100
19960LIG    C1581314   3.558   3.618  16.269  1.1518 -0.5351  0.4551
19960LIG    C1681315   3.468   3.587  16.167 -0.4212  0.3740  0.2755
19960LIG    C1781316   2.998   3.203  16.712 -0.0377 -0.0718  0.5429
19960LIG     H181317   3.670   3.228  16.633 -0.4729 -1.0058 -0.8962
19960LIG     H281318   3.719   3.391  16.584  1.0024 -1.6276  1.5085
19960LIG     H381319   3.846   3.221  16.485  0.0392 -0.7431 -0.8454
19960LIG     H481320   3.757   3.309  16.356 -1.4825 -0.9313 -0.3288
19960LIG     H581321   3.583   3.119  16.371 -0.7346 -1.5368  1.6274
19960LIG     H681322   3.691   3.033  16.493 -0.0490 -0.1623  0.7208
19960LIG     H781323   3.097   3.179  16.459 -2.0813  1.7899  0.4630
19960LIG     H881324   3.628   3.567  16.466  0.7887 -4.0867  1.4709
19960LIG     H981325   3.207   3.292  16.856 -0.8833 -4.2591 -0.1763
19960LIG    H1081326   3.321   3.437  16.108 -0.5648 -0.4809  1.4247
19960LIG    H1181327   3.744   3.103  16.203  1.0730 -1.1969 -0.9884
19960LIG    H1281328   3.727   2.931  16.252  2.0134 -0.8417  0.3199
19960LIG    H1381329   3.865   3.026  16.312 -0.0069  0.9548  1.7812
19960LIG    H1481330   3.609   3.712  16.259  0.1908 -0.0748 -0.2540
19960LIG    H1581331   3.472   3.639  16.073 -1.7960  0.6881  0.3637
19960LIG    H1681332   3.503   3.439  16.722  0.0062 -2.1040 -1.9503
19960LIG    H1781333   3.417   3.428  16.870  0.1571  0.1224  0.2744
   6.77387   6.77387  17.29406
